LAMMPS (20 Nov 2019)
Reading data file ...
  orthogonal box = (0 0 0) to (0.0001 0.0001 5e-05)
  2 by 2 by 2 MPI processor grid
  reading atoms ...
  50 atoms
  4 nutrients
Lattice spacing in x,y,z = 100 100 100
50 atoms in group CYANO
0 atoms in group ECW
Model is defined as a closed system. 
Neighbor list info ...
  update every 1 steps, delay 0 steps, check yes
  max neighbors/atom: 5000, page size: 100000
  master list distance cutoff = 2.44e-06
  ghost atom cutoff = 2.44e-06
  binsize = 1.22e-06, bins = 82 82 41
  1 neighbor lists, perpetual/occasional/extra = 1 0 0
  (1) pair gran/hooke/history, perpetual
      attributes: half, newton off, size, history
      pair build: half/size/bin/newtoff
      stencil: half/bin/3d/newtoff
      bin: standard
Setting up Verlet run ...
  Unit style    : lj
  Current step  : 0
  Time step     : 10
Per MPI rank memory allocation (min/avg/max) = 6.964 | 10.22 | 12.34 Mbytes
Step CPU Atoms c_myNtypes[1] c_myNtypes[2] c_myMass[1] c_myMass[2] c_myCon[1] c_myCon[2] c_myCon[3] c_myCon[4] 
       0            0       50           50            0 4.3719263e-14            0          0.1        0.009     3.42e-20       0.0299 
number of iterations: 324037 
     100    5.2702829       50           50            0 4.453596e-14            0          0.1 0.0090021421 0.0034645173  0.029896434 
number of iterations: 22323 
     200    5.8849837       50           50            0 4.5367913e-14            0          0.1 0.0090021821 0.0068849421  0.029896367 
number of iterations: 22420 
     300    6.5075302       51           51            0 4.6215408e-14            0          0.1 0.0090022229  0.010368726  0.029896299 
number of iterations: 22518 
     400    7.0922742       51           51            0 4.7078734e-14            0          0.1 0.0090022644   0.01391733   0.02989623 
number of iterations: 22616 
     500    7.7169408       51           51            0 4.7958187e-14            0          0.1 0.0090023067  0.017532062   0.02989616 
number of iterations: 22717 
     600    8.3236593       53           53            0 4.885407e-14            0          0.1 0.0090023498  0.021214219  0.029896088 
number of iterations: 22811 
     700    8.9289547       53           53            0 4.9766687e-14            0          0.1 0.0090023937  0.024965112  0.029896015 
number of iterations: 22909 
     800    9.5430074       53           53            0 5.0696353e-14            0          0.1 0.0090024385  0.028786034   0.02989594 
number of iterations: 22996 
     900    10.152024       54           54            0 5.1643385e-14            0          0.1  0.009002484  0.032678295  0.029895864 
number of iterations: 23105 
    1000    10.747533       54           54            0 5.2608109e-14            0          0.1 0.0090025304  0.036643238  0.029895787 
number of iterations: 23203 
    1100    11.345778       54           54            0 5.3590854e-14            0          0.1 0.0090025777  0.040682224  0.029895708 
number of iterations: 23301 
    1200    11.959027       55           55            0 5.4591957e-14            0          0.1 0.0090026259  0.044796638  0.029895628 
number of iterations: 23399 
    1300    12.552157       55           55            0 5.5611761e-14            0          0.1 0.0090026749  0.048987893  0.029895547 
number of iterations: 23488 
    1400    13.125626       59           59            0 5.6650615e-14            0          0.1 0.0090027249   0.05325742  0.029895463 
number of iterations: 23595 
    1500    13.747566       61           61            0 5.7708876e-14            0          0.1 0.0090027758  0.057606687  0.029895379 
number of iterations: 24954 
    1600    14.367881       62           62            0 5.8786906e-14            0          0.1 0.0090028398   0.06203719  0.029895272 
number of iterations: 23816 
    1700    14.968365       62           62            0 5.9885073e-14            0          0.1 0.0090028928  0.066550443  0.029895184 
number of iterations: 23914 
    1800    15.553279       64           64            0 6.1003755e-14            0          0.1 0.0090029469  0.071147994  0.029895094 
number of iterations: 24013 
    1900    16.180066       65           65            0 6.2143335e-14            0          0.1 0.0090030019  0.075831418  0.029895002 
number of iterations: 24111 
    2000    16.802531       65           65            0 6.3304202e-14            0          0.1  0.009003058  0.080602319  0.029894909 
number of iterations: 24209 
    2100    17.430408       65           65            0 6.4486755e-14            0          0.1 0.0090031151  0.085462334  0.029894814 
number of iterations: 25432 
    2200    18.054794       68           68            0 6.5691398e-14            0          0.1 0.0090031853  0.090413129  0.029894697 
number of iterations: 24429 
    2300    18.670929       68           68            0 6.6918545e-14            0          0.1 0.0090032448  0.095456398  0.029894598 
number of iterations: 24527 
    2400    19.295748       68           68            0 6.8168615e-14            0          0.1 0.0090033054   0.10059387  0.029894497 
number of iterations: 24625 
    2500    19.902852       71           71            0 6.9442038e-14            0          0.1 0.0090033672    0.1058273  0.029894394 
number of iterations: 24724 
    2600    20.503031       72           72            0 7.0739248e-14            0          0.1 0.0090034301   0.11115849  0.029894289 
number of iterations: 24822 
    2700    21.195905       73           73            0 7.2060691e-14            0          0.1 0.0090034941   0.11658926  0.029894183 
number of iterations: 24921 
    2800    21.872405       74           74            0 7.3406819e-14            0          0.1 0.0090035594   0.12212148  0.029894074 
number of iterations: 25019 
    2900    22.466415       74           74            0 7.4778094e-14            0          0.1 0.0090036259   0.12775703  0.029893963 
number of iterations: 25118 
    3000    23.087538       76           76            0 7.6174984e-14            0          0.1 0.0090036936   0.13349784   0.02989385 
number of iterations: 23962 
    3100    23.721697       78           78            0 7.7597969e-14            0          0.1 0.0090037496   0.13934589  0.029893757 
number of iterations: 25293 
    3200    24.365604       78           78            0 7.9047536e-14            0          0.1 0.0090038197   0.14530318   0.02989364 
number of iterations: 25396 
    3300    24.990943       79           79            0 8.0524181e-14            0          0.1  0.009003891   0.15137175  0.029893522 
number of iterations: 25491 
    3400      25.6182       81           81            0 8.2028411e-14            0          0.1 0.0090039637   0.15755367  0.029893401 
number of iterations: 25590 
    3500     26.23663       82           82            0 8.3560741e-14            0          0.1 0.0090040378   0.16385107  0.029893277 
number of iterations: 25688 
    3600    26.906031       82           82            0 8.5121695e-14            0          0.1 0.0090041132    0.1702661  0.029893152 
number of iterations: 25787 
    3700    27.583526       83           83            0 8.6711809e-14            0          0.1 0.0090041901   0.17680096  0.029893024 
number of iterations: 25886 
    3800    28.237166       84           84            0 8.8331626e-14            0          0.1 0.0090042683   0.18345789  0.029892893 
number of iterations: 25984 
    3900    28.877858       85           85            0 8.9981703e-14            0          0.1 0.0090043481   0.19023917  0.029892761 
number of iterations: 26083 
    4000    29.503094       86           86            0 9.1662603e-14            0          0.1 0.0090044293   0.19714712  0.029892625 
number of iterations: 26182 
    4100    30.147283       86           86            0 9.3374904e-14            0          0.1 0.0090045121   0.20418412  0.029892488 
number of iterations: 26293 
    4200    30.835856       90           90            0 9.5119191e-14            0          0.1 0.0090045963   0.21135252  0.029892347 
number of iterations: 26379 
    4300    31.539717       90           90            0 9.6896062e-14            0          0.1 0.0090046822   0.21865484  0.029892204 
number of iterations: 26478 
    4400     32.17804       92           92            0 9.8706126e-14            0          0.1 0.0090047697   0.22609355  0.029892059 
number of iterations: 26577 
    4500     32.81695       95           95            0   1.0055e-13            0          0.1 0.0090048588   0.23367123   0.02989191 
number of iterations: 26676 
    4600    33.456403       95           95            0 1.0242832e-13            0          0.1 0.0090049496   0.24139045  0.029891759 
number of iterations: 26775 
    4700    34.092643       97           97            0 1.0434173e-13            0          0.1  0.009005042   0.24925386  0.029891605 
number of iterations: 26874 
    4800    34.735396       99           99            0 1.0629089e-13            0          0.1 0.0090051362   0.25726417  0.029891448 
number of iterations: 25957 
    4900    35.388904      102          102            0 1.0827645e-13            0          0.1 0.0090052152   0.26542409  0.029891317 
number of iterations: 27054 
    5000    36.045864      105          105            0 1.102991e-13            0          0.1 0.0090053126   0.27373644  0.029891155 
number of iterations: 27153 
    5100    36.743745      109          109            0 1.1235954e-13            0          0.1 0.0090054119   0.28220407  0.029890989 
number of iterations: 27252 
    5200    37.385683      109          109            0 1.1445847e-13            0          0.1  0.009005513   0.29082987  0.029890821 
number of iterations: 27351 
    5300    38.034356      112          112            0 1.1659661e-13            0          0.1  0.009005616    0.2996168  0.029890649 
number of iterations: 27445 
    5400    38.717838      119          119            0 1.1877469e-13            0          0.1 0.0090057209   0.30856788  0.029890475 
number of iterations: 27548 
    5500    39.375896      125          125            0 1.2099345e-13            0          0.1 0.0090058277   0.31768615  0.029890297 
number of iterations: 27647 
    5600    40.046631      126          126            0 1.2325367e-13            0          0.1 0.0090059366   0.32697476  0.029890116 
number of iterations: 27752 
    5700    40.720004      131          131            0 1.255561e-13            0          0.1 0.0090060475   0.33643688  0.029889931 
number of iterations: 27845 
    5800    41.408704      133          133            0 1.2790155e-13            0          0.1 0.0090061605   0.34607575  0.029889743 
number of iterations: 28172 
    5900    42.105026      135          135            0 1.3029081e-13            0          0.1 0.0090062794   0.35589466  0.029889545 
number of iterations: 28044 
    6000    42.788999      138          138            0 1.327247e-13            0          0.1 0.0090063967   0.36589699  0.029889349 
number of iterations: 28147 
    6100    43.473846      138          138            0 1.3520406e-13            0          0.1 0.0090065162   0.37608617   0.02988915 
number of iterations: 28585 
    6200    44.142809      139          139            0 1.3772973e-13            0          0.1 0.0090066441   0.38646567  0.029888937 
number of iterations: 28351 
    6300    44.827797      140          140            0 1.4030259e-13            0          0.1 0.0090067682   0.39703905  0.029888731 
number of iterations: 28450 
    6400    45.515197      140          140            0 1.429235e-13            0          0.1 0.0090068947   0.40780995   0.02988852 
number of iterations: 28552 
    6500    46.212578      143          143            0 1.4559338e-13            0          0.1 0.0090070235   0.41878205  0.029888306 
number of iterations: 27956 
    6600     46.94155      145          145            0 1.4831313e-13            0          0.1 0.0090071406   0.42995911  0.029888111 
number of iterations: 28735 
    6700    47.630058      150          150            0 1.5108369e-13            0          0.1  0.009007274   0.44134495  0.029887889 
number of iterations: 28841 
    6800    48.372032      152          152            0  1.53906e-13            0          0.1 0.0090074098   0.45294347  0.029887662 
number of iterations: 28934 
    6900     49.15541      154          154            0 1.5678103e-13            0          0.1 0.0090075483   0.46475864  0.029887432 
number of iterations: 29638 
    7000    49.904305      160          160            0 1.5970977e-13            0          0.1  0.009007704   0.47679453  0.029887173 
number of iterations: 28472 
    7100    50.635218      160          160            0 1.6269322e-13            0          0.1 0.0090078329   0.48905525  0.029886958 
number of iterations: 28399 
    7200    51.348011      165          165            0 1.6573241e-13            0          0.1  0.009007958   0.50154499   0.02988675 
number of iterations: 29315 
    7300    52.097136      166          166            0 1.6882836e-13            0          0.1 0.0090081066   0.51426804  0.029886502 
number of iterations: 29415 
    7400    52.844761      169          169            0 1.7198215e-13            0          0.1 0.0090082581   0.52722875   0.02988625 
number of iterations: 29519 
    7500    53.582761      171          171            0 1.7519486e-13            0          0.1 0.0090084124   0.54043158  0.029885993 
number of iterations: 28413 
    7600    54.304315      172          172            0 1.7846757e-13            0          0.1 0.0090085408   0.55388103  0.029885779 
number of iterations: 29031 
    7700    55.026005      175          175            0 1.8180143e-13            0          0.1 0.0090086818   0.56758172  0.029885544 
number of iterations: 29783 
    7800    55.770284      176          176            0 1.8519756e-13            0          0.1  0.009008844   0.58153834  0.029885274 
number of iterations: 29452 
    7900    56.579434      180          180            0 1.8865713e-13            0          0.1 0.0090089991   0.59575568  0.029885016 
number of iterations: 29968 
    8000    57.405655      182          182            0 1.9218133e-13            0          0.1 0.0090091672   0.61023861  0.029884736 
number of iterations: 30072 
    8100    58.140076      183          183            0 1.9577137e-13            0          0.1 0.0090093385   0.62499209  0.029884451 
number of iterations: 29965 
    8200    58.912713      188          188            0 1.9942846e-13            0          0.1 0.0090095078   0.64002117  0.029884169 
number of iterations: 30266 
    8300    59.754848      190          190            0 2.0315387e-13            0          0.1 0.0090096854   0.65533101  0.029883873 
number of iterations: 30365 
    8400    60.500033      196          196            0 2.0694888e-13            0          0.1 0.0090098664   0.67092683  0.029883572 
number of iterations: 30463 
    8500    61.297208      199          199            0 2.1081477e-13            0          0.1 0.0090100507   0.68681399  0.029883265 
number of iterations: 30235 
    8600    62.198306      202          202            0 2.1475289e-13            0          0.1 0.0090102295   0.70299793  0.029882967 
number of iterations: 30791 
    8700     63.16868      208          208            0 2.1876456e-13            0          0.1 0.0090104243   0.71948418  0.029882643 
number of iterations: 30760 
    8800    64.109905      211          211            0 2.2285118e-13            0          0.1 0.0090106191   0.73627837  0.029882319 
number of iterations: 30857 
    8900    64.946639      220          220            0 2.2701414e-13            0          0.1 0.0090108174   0.75338629  0.029881989 
number of iterations: 30961 
    9000    65.729211      229          229            0 2.3125486e-13            0          0.1 0.0090110195   0.77081379  0.029881652 
number of iterations: 30189 
    9100    66.501476      233          233            0 2.355748e-13            0          0.1 0.0090111965   0.78856683  0.029881357 
number of iterations: 31142 
    9200    67.250673      239          239            0 2.3997544e-13            0          0.1 0.0090114057    0.8066515  0.029881009 
number of iterations: 30777 
    9300    67.989358      246          246            0 2.4445828e-13            0          0.1 0.0090116031     0.825074   0.02988068 
number of iterations: 31332 
    9400    68.760182      250          250            0 2.4902487e-13            0          0.1 0.0090118198   0.84384064  0.029880319 
number of iterations: 31432 
    9500    69.497617      256          256            0 2.5367676e-13            0          0.1 0.0090120406   0.86295785  0.029879952 
number of iterations: 31782 
    9600    70.313384      263          263            0 2.5841555e-13            0          0.1 0.0090122743   0.88243216  0.029879563 
number of iterations: 31708 
    9700    71.175518      267          267            0 2.6324286e-13            0          0.1 0.0090125065   0.90227026  0.029879176 
number of iterations: 31736 
    9800    72.034407      273          273            0 2.6816035e-13            0          0.1 0.0090127401   0.92247895  0.029878787 
number of iterations: 31835 
    9900    73.349796      276          276            0 2.731697e-13            0          0.1 0.0090129781   0.94306513  0.029878391 
number of iterations: 31935 
   10000    74.137969      281          281            0 2.7827263e-13            0          0.1 0.0090132206   0.96403588  0.029877987 
Loop time of 74.138 on 8 procs for 10000 steps with 281 atoms

Performance: 116539396.176 tau/day, 134.884 timesteps/s
87.5% CPU use with 8 MPI tasks x no OpenMP threads

MPI task timing breakdown:
Section |  min time  |  avg time  |  max time  |%varavg| %total
---------------------------------------------------------------
Pair    | 0.0075639  | 0.011199   | 0.01561    |   2.3 |  0.02
Neigh   | 0.0072626  | 0.0086929  | 0.010386   |   1.3 |  0.01
Comm    | 0.041973   | 0.062588   | 0.079574   |   5.2 |  0.08
Output  | 13.879     | 13.879     | 13.882     |   0.0 | 18.72
Modify  | 60.093     | 60.097     | 60.1       |   0.0 | 81.06
Other   |            | 0.0796     |            |       |  0.11

Nlocal:    35.125 ave 74 max 8 min
Histogram: 1 1 1 1 1 1 0 1 0 1
Nghost:    11.375 ave 27 max 2 min
Histogram: 2 2 1 0 0 1 0 0 1 1
Neighs:    40.375 ave 90 max 7 min
Histogram: 1 1 2 0 2 0 0 1 0 1

Total # of neighbors = 323
Ave neighs/atom = 1.14947
Neighbor list builds = 118
Dangerous builds = 0
Total wall time: 0:01:14
