ITEM: TIMESTEP
0
ITEM: NUMBER OF ATOMS
50
ITEM: BOX BOUNDS ff ff ff
0.0000000000000000e+00 1.0000000000000000e-04
0.0000000000000000e+00 1.0000000000000000e-04
0.0000000000000000e+00 5.0000000000000002e-05
ITEM: ATOMS id type diameter x y z 
26 1 1.41e-06 4.81e-05 6.25e-06 1.95e-06 
3 1 1.74e-06 4.79e-05 7.78e-06 4.34e-06 
5 1 1.89e-06 4.72e-05 3.67e-05 4.04e-06 
35 1 1.66e-06 2.21e-05 4.15e-05 1.06e-05 
8 1 1.57e-06 3.24e-05 4.85e-05 2.21e-05 
41 1 1.42e-06 2.18e-05 3.77e-05 2.3e-05 
7 1 1.55e-06 1.03e-05 8.49e-06 2.53e-05 
48 1 1.91e-06 1.62e-05 2.62e-05 2.52e-05 
11 1 1.56e-06 2.33e-05 1.11e-05 2.65e-05 
9 1 1.64e-06 3.1e-05 3.74e-05 4.39e-05 
46 1 1.52e-06 3.01e-05 5.89e-06 4.57e-05 
29 1 1.6e-06 7.22e-06 2.24e-05 4.68e-05 
12 1 1.81e-06 3.35e-05 7.94e-05 3.14e-06 
32 1 1.56e-06 7.18e-06 7.99e-05 4.09e-06 
27 1 1.9e-06 1.29e-05 6.49e-05 1.64e-05 
31 1 1.42e-06 3.32e-05 7.86e-05 2.31e-05 
16 1 1.91e-06 2.24e-05 6.38e-05 2.51e-05 
47 1 1.38e-06 1.08e-05 5.38e-05 3.16e-05 
37 1 1.51e-06 4.4e-05 6.55e-05 3.43e-05 
39 1 1.5e-06 3.95e-05 6.24e-05 4.12e-05 
44 1 1.77e-06 3.33e-05 6.63e-05 4.54e-05 
14 1 1.57e-06 8.63e-06 9.67e-05 4.64e-05 
18 1 1.47e-06 8.26e-05 4.49e-05 2.75e-06 
2 1 1.48e-06 8.59e-05 4.59e-05 1.24e-05 
34 1 1.54e-06 8.17e-05 2.37e-05 1.44e-05 
40 1 1.82e-06 5.23e-05 3.85e-05 1.64e-05 
21 1 1.82e-06 8.78e-05 1.16e-05 1.83e-05 
13 1 1.9e-06 5.48e-05 4.26e-06 2.04e-05 
33 1 1.45e-06 8.64e-05 2.86e-05 2.69e-05 
36 1 1.6e-06 6.41e-05 3.68e-05 2.95e-05 
42 1 1.67e-06 7.06e-05 3.03e-05 3.24e-05 
25 1 1.91e-06 6.68e-05 3.11e-05 3.25e-05 
43 1 1.68e-06 6.25e-05 5.32e-06 3.57e-05 
24 1 1.41e-06 7.97e-05 1.43e-05 3.59e-05 
38 1 1.85e-06 7.98e-05 1.96e-05 4.07e-05 
50 1 1.58e-06 5.54e-05 3.64e-05 4.11e-05 
28 1 1.61e-06 7.88e-05 2.84e-05 4.28e-05 
20 1 1.63e-06 8.93e-05 4.79e-05 4.63e-05 
30 1 1.44e-06 8.19e-05 9.85e-05 1.53e-06 
15 1 1.75e-06 8.9e-05 5.12e-05 9.15e-06 
45 1 1.85e-06 7.83e-05 7e-05 1e-05 
6 1 1.77e-06 9.51e-05 5.54e-05 1.75e-05 
19 1 1.5e-06 7.55e-05 6.87e-05 2.04e-05 
1 1 1.91e-06 8.01e-05 8.7e-05 2.09e-05 
23 1 1.68e-06 5.83e-05 8.26e-05 2.57e-05 
17 1 1.66e-06 5.83e-05 7.12e-05 3.19e-05 
10 1 1.54e-06 6.94e-05 6.35e-05 3.62e-05 
4 1 1.75e-06 7.37e-05 5.78e-05 3.79e-05 
49 1 1.83e-06 9.31e-05 5.05e-05 3.92e-05 
22 1 1.73e-06 5.88e-05 8.81e-05 4.15e-05 
ITEM: TIMESTEP
100
ITEM: NUMBER OF ATOMS
50
ITEM: BOX BOUNDS ff ff ff
0.0000000000000000e+00 1.0000000000000000e-04
0.0000000000000000e+00 1.0000000000000000e-04
0.0000000000000000e+00 5.0000000000000002e-05
ITEM: ATOMS id type diameter x y z 
26 1 1.41948e-06 4.81e-05 6.25e-06 1.95e-06 
3 1 1.7517e-06 4.79e-05 7.78e-06 4.34e-06 
5 1 1.90271e-06 4.72e-05 3.67e-05 4.04e-06 
35 1 1.67116e-06 2.21e-05 4.15e-05 1.06e-05 
8 1 1.58056e-06 3.24e-05 4.85e-05 2.21e-05 
41 1 1.42955e-06 2.18e-05 3.77e-05 2.3e-05 
7 1 1.56042e-06 1.03e-05 8.49e-06 2.53e-05 
48 1 1.92284e-06 1.62e-05 2.62e-05 2.52e-05 
11 1 1.57049e-06 2.33e-05 1.11e-05 2.65e-05 
9 1 1.65103e-06 3.1e-05 3.74e-05 4.39e-05 
46 1 1.53022e-06 3.01e-05 5.89e-06 4.57e-05 
29 1 1.61076e-06 7.22e-06 2.24e-05 4.68e-05 
12 1 1.82217e-06 3.35e-05 7.94e-05 3.14e-06 
32 1 1.57049e-06 7.18e-06 7.99e-05 4.09e-06 
27 1 1.91277e-06 1.29e-05 6.49e-05 1.64e-05 
31 1 1.42955e-06 3.32e-05 7.86e-05 2.31e-05 
16 1 1.92284e-06 2.24e-05 6.38e-05 2.51e-05 
47 1 1.38928e-06 1.08e-05 5.38e-05 3.16e-05 
37 1 1.52015e-06 4.4e-05 6.55e-05 3.43e-05 
39 1 1.51008e-06 3.95e-05 6.24e-05 4.12e-05 
44 1 1.7819e-06 3.33e-05 6.63e-05 4.54e-05 
14 1 1.58056e-06 8.63e-06 9.67e-05 4.64e-05 
18 1 1.47988e-06 8.26e-05 4.49e-05 2.75e-06 
2 1 1.48995e-06 8.59e-05 4.59e-05 1.24e-05 
34 1 1.55035e-06 8.17e-05 2.37e-05 1.44e-05 
40 1 1.83224e-06 5.23e-05 3.85e-05 1.64e-05 
21 1 1.83224e-06 8.78e-05 1.16e-05 1.83e-05 
13 1 1.91277e-06 5.48e-05 4.26e-06 2.04e-05 
33 1 1.45975e-06 8.64e-05 2.86e-05 2.69e-05 
36 1 1.61076e-06 6.41e-05 3.68e-05 2.95e-05 
42 1 1.68123e-06 7.06e-05 3.03e-05 3.24e-05 
25 1 1.92284e-06 6.68e-05 3.11e-05 3.25e-05 
43 1 1.69129e-06 6.25e-05 5.32e-06 3.57e-05 
24 1 1.41948e-06 7.97e-05 1.43e-05 3.59e-05 
38 1 1.86244e-06 7.98e-05 1.96e-05 4.07e-05 
50 1 1.59062e-06 5.54e-05 3.64e-05 4.11e-05 
28 1 1.62082e-06 7.88e-05 2.84e-05 4.28e-05 
20 1 1.64096e-06 8.93e-05 4.79e-05 4.63e-05 
30 1 1.44968e-06 8.19e-05 9.85e-05 1.53e-06 
15 1 1.76177e-06 8.9e-05 5.12e-05 9.15e-06 
45 1 1.86244e-06 7.83e-05 7e-05 1e-05 
6 1 1.7819e-06 9.51e-05 5.54e-05 1.75e-05 
19 1 1.51008e-06 7.55e-05 6.87e-05 2.04e-05 
1 1 1.92284e-06 8.01e-05 8.7e-05 2.09e-05 
23 1 1.69129e-06 5.83e-05 8.26e-05 2.57e-05 
17 1 1.67116e-06 5.83e-05 7.12e-05 3.19e-05 
10 1 1.55035e-06 6.94e-05 6.35e-05 3.62e-05 
4 1 1.76177e-06 7.37e-05 5.78e-05 3.79e-05 
49 1 1.8423e-06 9.31e-05 5.05e-05 3.92e-05 
22 1 1.74163e-06 5.88e-05 8.81e-05 4.15e-05 
ITEM: TIMESTEP
200
ITEM: NUMBER OF ATOMS
50
ITEM: BOX BOUNDS ff ff ff
0.0000000000000000e+00 1.0000000000000000e-04
0.0000000000000000e+00 1.0000000000000000e-04
0.0000000000000000e+00 5.0000000000000002e-05
ITEM: ATOMS id type diameter x y z 
26 1 1.42902e-06 4.81e-05 6.25e-06 1.95e-06 
3 1 1.76347e-06 4.79e-05 7.78e-06 4.34e-06 
5 1 1.9155e-06 4.72e-05 3.67e-05 4.04e-06 
35 1 1.6824e-06 2.21e-05 4.15e-05 1.06e-05 
8 1 1.59118e-06 3.24e-05 4.85e-05 2.21e-05 
41 1 1.43916e-06 2.18e-05 3.77e-05 2.3e-05 
7 1 1.57091e-06 1.03e-05 8.49e-06 2.53e-05 
48 1 1.93577e-06 1.62e-05 2.62e-05 2.52e-05 
11 1 1.58105e-06 2.33e-05 1.11e-05 2.65e-05 
9 1 1.66213e-06 3.1e-05 3.74e-05 4.39e-05 
46 1 1.54051e-06 3.01e-05 5.89e-06 4.57e-05 
29 1 1.62159e-06 7.22e-06 2.24e-05 4.68e-05 
12 1 1.83442e-06 3.35e-05 7.94e-05 3.14e-06 
32 1 1.58105e-06 7.18e-06 7.99e-05 4.09e-06 
27 1 1.92563e-06 1.29e-05 6.49e-05 1.64e-05 
31 1 1.43916e-06 3.32e-05 7.86e-05 2.31e-05 
16 1 1.93577e-06 2.24e-05 6.38e-05 2.51e-05 
47 1 1.39862e-06 1.08e-05 5.38e-05 3.16e-05 
37 1 1.53037e-06 4.4e-05 6.55e-05 3.43e-05 
39 1 1.52024e-06 3.95e-05 6.24e-05 4.12e-05 
44 1 1.79388e-06 3.33e-05 6.63e-05 4.54e-05 
14 1 1.59118e-06 8.63e-06 9.67e-05 4.64e-05 
18 1 1.48983e-06 8.26e-05 4.49e-05 2.75e-06 
2 1 1.49997e-06 8.59e-05 4.59e-05 1.24e-05 
34 1 1.56078e-06 8.17e-05 2.37e-05 1.44e-05 
40 1 1.84455e-06 5.23e-05 3.85e-05 1.64e-05 
21 1 1.84455e-06 8.78e-05 1.16e-05 1.83e-05 
13 1 1.92563e-06 5.48e-05 4.26e-06 2.04e-05 
33 1 1.46956e-06 8.64e-05 2.86e-05 2.69e-05 
36 1 1.62159e-06 6.41e-05 3.68e-05 2.95e-05 
42 1 1.69253e-06 7.06e-05 3.03e-05 3.24e-05 
25 1 1.93577e-06 6.68e-05 3.11e-05 3.25e-05 
43 1 1.70267e-06 6.25e-05 5.32e-06 3.57e-05 
24 1 1.42902e-06 7.97e-05 1.43e-05 3.59e-05 
38 1 1.87496e-06 7.98e-05 1.96e-05 4.07e-05 
50 1 1.60132e-06 5.54e-05 3.64e-05 4.11e-05 
28 1 1.63172e-06 7.88e-05 2.84e-05 4.28e-05 
20 1 1.65199e-06 8.93e-05 4.79e-05 4.63e-05 
30 1 1.45943e-06 8.19e-05 9.85e-05 1.53e-06 
15 1 1.77361e-06 8.9e-05 5.12e-05 9.15e-06 
45 1 1.87496e-06 7.83e-05 7e-05 1e-05 
6 1 1.79388e-06 9.51e-05 5.54e-05 1.75e-05 
19 1 1.52024e-06 7.55e-05 6.87e-05 2.04e-05 
1 1 1.93577e-06 8.01e-05 8.7e-05 2.09e-05 
23 1 1.70267e-06 5.83e-05 8.26e-05 2.57e-05 
17 1 1.6824e-06 5.83e-05 7.12e-05 3.19e-05 
10 1 1.56078e-06 6.94e-05 6.35e-05 3.62e-05 
4 1 1.77361e-06 7.37e-05 5.78e-05 3.79e-05 
49 1 1.85469e-06 9.31e-05 5.05e-05 3.92e-05 
22 1 1.75334e-06 5.88e-05 8.81e-05 4.15e-05 
ITEM: TIMESTEP
300
ITEM: NUMBER OF ATOMS
50
ITEM: BOX BOUNDS ff ff ff
0.0000000000000000e+00 1.0000000000000000e-04
0.0000000000000000e+00 1.0000000000000000e-04
0.0000000000000000e+00 5.0000000000000002e-05
ITEM: ATOMS id type diameter x y z 
26 1 1.43863e-06 4.81e-05 6.25e-06 1.95e-06 
3 1 1.77533e-06 4.79e-05 7.78e-06 4.34e-06 
5 1 1.92838e-06 4.72e-05 3.67e-05 4.04e-06 
35 1 1.69371e-06 2.21e-05 4.15e-05 1.06e-05 
8 1 1.60188e-06 3.24e-05 4.85e-05 2.21e-05 
41 1 1.44883e-06 2.18e-05 3.77e-05 2.3e-05 
7 1 1.58147e-06 1.03e-05 8.49e-06 2.53e-05 
48 1 1.94878e-06 1.62e-05 2.62e-05 2.52e-05 
11 1 1.59168e-06 2.33e-05 1.11e-05 2.65e-05 
9 1 1.6733e-06 3.1e-05 3.74e-05 4.39e-05 
46 1 1.55086e-06 3.01e-05 5.89e-06 4.57e-05 
29 1 1.63249e-06 7.22e-06 2.24e-05 4.68e-05 
12 1 1.84675e-06 3.35e-05 7.94e-05 3.14e-06 
32 1 1.59168e-06 7.18e-06 7.99e-05 4.09e-06 
27 1 1.93858e-06 1.29e-05 6.49e-05 1.64e-05 
31 1 1.44883e-06 3.32e-05 7.86e-05 2.31e-05 
16 1 1.94878e-06 2.24e-05 6.38e-05 2.51e-05 
47 1 1.40802e-06 1.08e-05 5.38e-05 3.16e-05 
37 1 1.54066e-06 4.4e-05 6.55e-05 3.43e-05 
39 1 1.53046e-06 3.95e-05 6.24e-05 4.12e-05 
44 1 1.80594e-06 3.33e-05 6.63e-05 4.54e-05 
14 1 1.60188e-06 8.63e-06 9.67e-05 4.64e-05 
18 1 1.49985e-06 8.26e-05 4.49e-05 2.75e-06 
2 1 1.51005e-06 8.59e-05 4.59e-05 1.24e-05 
34 1 1.57127e-06 8.17e-05 2.37e-05 1.44e-05 
40 1 1.85695e-06 5.23e-05 3.85e-05 1.64e-05 
21 1 1.85695e-06 8.78e-05 1.16e-05 1.83e-05 
13 1 1.93858e-06 5.48e-05 4.26e-06 2.04e-05 
33 1 1.47944e-06 8.64e-05 2.86e-05 2.69e-05 
36 1 1.63249e-06 6.41e-05 3.68e-05 2.95e-05 
42 1 1.70391e-06 7.06e-05 3.03e-05 3.24e-05 
25 1 1.94878e-06 6.68e-05 3.11e-05 3.25e-05 
43 1 1.71411e-06 6.25e-05 5.32e-06 3.57e-05 
24 1 1.43863e-06 7.97e-05 1.43e-05 3.59e-05 
38 1 1.88756e-06 7.98e-05 1.96e-05 4.07e-05 
50 1 1.61208e-06 5.54e-05 3.64e-05 4.11e-05 
28 1 1.64269e-06 7.88e-05 2.84e-05 4.28e-05 
20 1 1.6631e-06 8.93e-05 4.79e-05 4.63e-05 
30 1 1.46924e-06 8.19e-05 9.85e-05 1.53e-06 
15 1 1.78553e-06 8.9e-05 5.12e-05 9.15e-06 
45 1 1.88756e-06 7.83e-05 7e-05 1e-05 
6 1 1.80594e-06 9.51e-05 5.54e-05 1.75e-05 
19 1 1.53046e-06 7.55e-05 6.87e-05 2.04e-05 
1 1 1.94878e-06 8.01e-05 8.7e-05 2.09e-05 
23 1 1.71411e-06 5.83e-05 8.26e-05 2.57e-05 
17 1 1.69371e-06 5.83e-05 7.12e-05 3.19e-05 
10 1 1.57127e-06 6.94e-05 6.35e-05 3.62e-05 
4 1 1.78553e-06 7.37e-05 5.78e-05 3.79e-05 
49 1 1.86716e-06 9.31e-05 5.05e-05 3.92e-05 
22 1 1.76513e-06 5.88e-05 8.81e-05 4.15e-05 
ITEM: TIMESTEP
400
ITEM: NUMBER OF ATOMS
50
ITEM: BOX BOUNDS ff ff ff
0.0000000000000000e+00 1.0000000000000000e-04
0.0000000000000000e+00 1.0000000000000000e-04
0.0000000000000000e+00 5.0000000000000002e-05
ITEM: ATOMS id type diameter x y z 
26 1 1.4483e-06 4.81e-05 6.25e-06 1.95e-06 
3 1 1.78727e-06 4.79e-05 7.78e-06 4.34e-06 
5 1 1.94134e-06 4.72e-05 3.67e-05 4.04e-06 
35 1 1.70509e-06 2.21e-05 4.15e-05 1.06e-05 
8 1 1.61265e-06 3.24e-05 4.85e-05 2.21e-05 
41 1 1.45857e-06 2.18e-05 3.77e-05 2.3e-05 
7 1 1.5921e-06 1.03e-05 8.49e-06 2.53e-05 
48 1 1.96188e-06 1.62e-05 2.62e-05 2.52e-05 
11 1 1.60238e-06 2.33e-05 1.11e-05 2.65e-05 
9 1 1.68455e-06 3.1e-05 3.74e-05 4.39e-05 
46 1 1.56129e-06 3.01e-05 5.89e-06 4.57e-05 
29 1 1.64346e-06 7.22e-06 2.24e-05 4.68e-05 
12 1 1.85917e-06 3.35e-05 7.94e-05 3.14e-06 
32 1 1.60238e-06 7.18e-06 7.99e-05 4.09e-06 
27 1 1.95161e-06 1.29e-05 6.49e-05 1.64e-05 
31 1 1.45857e-06 3.32e-05 7.86e-05 2.31e-05 
16 1 1.96188e-06 2.24e-05 6.38e-05 2.51e-05 
47 1 1.41749e-06 1.08e-05 5.38e-05 3.16e-05 
37 1 1.55102e-06 4.4e-05 6.55e-05 3.43e-05 
39 1 1.54075e-06 3.95e-05 6.24e-05 4.12e-05 
44 1 1.81808e-06 3.33e-05 6.63e-05 4.54e-05 
14 1 1.61265e-06 8.63e-06 9.67e-05 4.64e-05 
18 1 1.50993e-06 8.26e-05 4.49e-05 2.75e-06 
2 1 1.5202e-06 8.59e-05 4.59e-05 1.24e-05 
34 1 1.58183e-06 8.17e-05 2.37e-05 1.44e-05 
40 1 1.86944e-06 5.23e-05 3.85e-05 1.64e-05 
21 1 1.86944e-06 8.78e-05 1.16e-05 1.83e-05 
13 1 1.95161e-06 5.48e-05 4.26e-06 2.04e-05 
33 1 1.48939e-06 8.64e-05 2.86e-05 2.69e-05 
36 1 1.64346e-06 6.41e-05 3.68e-05 2.95e-05 
42 1 1.71536e-06 7.06e-05 3.03e-05 3.24e-05 
25 1 1.96188e-06 6.68e-05 3.11e-05 3.25e-05 
43 1 1.72564e-06 6.25e-05 5.32e-06 3.57e-05 
24 1 1.4483e-06 7.97e-05 1.43e-05 3.59e-05 
38 1 1.90025e-06 7.98e-05 1.96e-05 4.07e-05 
50 1 1.62292e-06 5.54e-05 3.64e-05 4.11e-05 
28 1 1.65373e-06 7.88e-05 2.84e-05 4.28e-05 
20 1 1.67428e-06 8.93e-05 4.79e-05 4.63e-05 
30 1 1.47912e-06 8.19e-05 9.85e-05 1.53e-06 
15 1 1.79754e-06 8.9e-05 5.12e-05 9.15e-06 
45 1 1.90025e-06 7.83e-05 7e-05 1e-05 
6 1 1.81808e-06 9.51e-05 5.54e-05 1.75e-05 
19 1 1.54075e-06 7.55e-05 6.87e-05 2.04e-05 
1 1 1.96188e-06 8.01e-05 8.7e-05 2.09e-05 
23 1 1.72564e-06 5.83e-05 8.26e-05 2.57e-05 
17 1 1.70509e-06 5.83e-05 7.12e-05 3.19e-05 
10 1 1.58183e-06 6.94e-05 6.35e-05 3.62e-05 
4 1 1.79754e-06 7.37e-05 5.78e-05 3.79e-05 
49 1 1.87971e-06 9.31e-05 5.05e-05 3.92e-05 
22 1 1.77699e-06 5.88e-05 8.81e-05 4.15e-05 
ITEM: TIMESTEP
500
ITEM: NUMBER OF ATOMS
54
ITEM: BOX BOUNDS ff ff ff
0.0000000000000000e+00 1.0000000000000000e-04
0.0000000000000000e+00 1.0000000000000000e-04
0.0000000000000000e+00 5.0000000000000002e-05
ITEM: ATOMS id type diameter x y z 
26 1 1.45804e-06 4.81e-05 6.25e-06 1.95e-06 
3 1 1.79928e-06 4.79e-05 7.78e-06 4.34e-06 
5 1 1.95439e-06 4.72e-05 3.67e-05 4.04e-06 
35 1 1.71656e-06 2.21e-05 4.15e-05 1.06e-05 
8 1 1.62349e-06 3.24e-05 4.85e-05 2.21e-05 
41 1 1.46838e-06 2.18e-05 3.77e-05 2.3e-05 
7 1 1.60281e-06 1.03e-05 8.49e-06 2.53e-05 
48 1 1.65805e-06 1.5879e-05 2.55167e-05 2.55391e-05 
11 1 1.61315e-06 2.33e-05 1.11e-05 2.65e-05 
9 1 1.69587e-06 3.1e-05 3.74e-05 4.39e-05 
46 1 1.57179e-06 3.01e-05 5.89e-06 4.57e-05 
29 1 1.65451e-06 7.22e-06 2.24e-05 4.68e-05 
51 1 1.46534e-06 1.64837e-05 2.68039e-05 2.49003e-05 
12 1 1.87167e-06 3.35e-05 7.94e-05 3.14e-06 
32 1 1.61315e-06 7.18e-06 7.99e-05 4.09e-06 
27 1 1.96473e-06 1.29e-05 6.49e-05 1.64e-05 
31 1 1.46838e-06 3.32e-05 7.86e-05 2.31e-05 
16 1 1.65805e-06 2.2079e-05 6.31167e-05 2.54391e-05 
47 1 1.42702e-06 1.08e-05 5.38e-05 3.16e-05 
37 1 1.56145e-06 4.4e-05 6.55e-05 3.43e-05 
39 1 1.55111e-06 3.95e-05 6.24e-05 4.12e-05 
44 1 1.8303e-06 3.33e-05 6.63e-05 4.54e-05 
14 1 1.62349e-06 8.63e-06 9.67e-05 4.64e-05 
52 1 1.46534e-06 2.26837e-05 6.44039e-05 2.48003e-05 
18 1 1.52008e-06 8.26e-05 4.49e-05 2.75e-06 
2 1 1.53042e-06 8.59e-05 4.59e-05 1.24e-05 
34 1 1.59247e-06 8.17e-05 2.37e-05 1.44e-05 
40 1 1.88201e-06 5.23e-05 3.85e-05 1.64e-05 
21 1 1.88201e-06 8.78e-05 1.16e-05 1.83e-05 
13 1 1.96473e-06 5.48e-05 4.26e-06 2.04e-05 
33 1 1.4994e-06 8.64e-05 2.86e-05 2.69e-05 
36 1 1.65451e-06 6.41e-05 3.68e-05 2.95e-05 
42 1 1.7269e-06 7.06e-05 3.03e-05 3.24e-05 
25 1 1.65805e-06 6.6479e-05 3.04167e-05 3.28391e-05 
43 1 1.73724e-06 6.25e-05 5.32e-06 3.57e-05 
24 1 1.45804e-06 7.97e-05 1.43e-05 3.59e-05 
38 1 1.91303e-06 7.98e-05 1.96e-05 4.07e-05 
50 1 1.63383e-06 5.54e-05 3.64e-05 4.11e-05 
28 1 1.66485e-06 7.88e-05 2.84e-05 4.28e-05 
20 1 1.68553e-06 8.93e-05 4.79e-05 4.63e-05 
53 1 1.46534e-06 6.70837e-05 3.17039e-05 3.22003e-05 
30 1 1.48906e-06 8.19e-05 9.85e-05 1.53e-06 
15 1 1.80962e-06 8.9e-05 5.12e-05 9.15e-06 
45 1 1.91303e-06 7.83e-05 7e-05 1e-05 
6 1 1.8303e-06 9.51e-05 5.54e-05 1.75e-05 
19 1 1.55111e-06 7.55e-05 6.87e-05 2.04e-05 
1 1 1.65805e-06 7.9779e-05 8.63167e-05 2.12391e-05 
23 1 1.73724e-06 5.83e-05 8.26e-05 2.57e-05 
17 1 1.71656e-06 5.83e-05 7.12e-05 3.19e-05 
10 1 1.59247e-06 6.94e-05 6.35e-05 3.62e-05 
4 1 1.80962e-06 7.37e-05 5.78e-05 3.79e-05 
49 1 1.89235e-06 9.31e-05 5.05e-05 3.92e-05 
22 1 1.78894e-06 5.88e-05 8.81e-05 4.15e-05 
54 1 1.46534e-06 8.03837e-05 8.76039e-05 2.06003e-05 
ITEM: TIMESTEP
600
ITEM: NUMBER OF ATOMS
56
ITEM: BOX BOUNDS ff ff ff
0.0000000000000000e+00 1.0000000000000000e-04
0.0000000000000000e+00 1.0000000000000000e-04
0.0000000000000000e+00 5.0000000000000002e-05
ITEM: ATOMS id type diameter x y z 
26 1 1.46784e-06 4.81e-05 6.25e-06 1.95e-06 
3 1 1.81138e-06 4.79e-05 7.78e-06 4.34e-06 
5 1 1.96753e-06 4.72e-05 3.67e-05 4.04e-06 
35 1 1.7281e-06 2.21e-05 4.15e-05 1.06e-05 
8 1 1.6344e-06 3.24e-05 4.85e-05 2.21e-05 
41 1 1.47825e-06 2.18e-05 3.77e-05 2.3e-05 
7 1 1.61358e-06 1.03e-05 8.49e-06 2.53e-05 
48 1 1.6692e-06 1.5879e-05 2.55167e-05 2.55391e-05 
11 1 1.62399e-06 2.33e-05 1.11e-05 2.65e-05 
9 1 1.70728e-06 3.1e-05 3.74e-05 4.39e-05 
46 1 1.58235e-06 3.01e-05 5.89e-06 4.57e-05 
29 1 1.66564e-06 7.22e-06 2.24e-05 4.68e-05 
51 1 1.47519e-06 1.64837e-05 2.68039e-05 2.49003e-05 
12 1 1.88425e-06 3.35e-05 7.94e-05 3.14e-06 
32 1 1.62399e-06 7.18e-06 7.99e-05 4.09e-06 
27 1 1.66046e-06 1.25785e-05 6.42157e-05 1.67396e-05 
55 1 1.46747e-06 1.31841e-05 6.55047e-05 1.60998e-05 
31 1 1.47825e-06 3.32e-05 7.86e-05 2.31e-05 
16 1 1.6692e-06 2.2079e-05 6.31167e-05 2.54391e-05 
47 1 1.43661e-06 1.08e-05 5.38e-05 3.16e-05 
37 1 1.57194e-06 4.4e-05 6.55e-05 3.43e-05 
39 1 1.56153e-06 3.95e-05 6.24e-05 4.12e-05 
44 1 1.84261e-06 3.33e-05 6.63e-05 4.54e-05 
14 1 1.6344e-06 8.63e-06 9.67e-05 4.64e-05 
52 1 1.47519e-06 2.26837e-05 6.44039e-05 2.48003e-05 
18 1 1.5303e-06 8.26e-05 4.49e-05 2.75e-06 
2 1 1.54071e-06 8.59e-05 4.59e-05 1.24e-05 
34 1 1.60317e-06 8.17e-05 2.37e-05 1.44e-05 
40 1 1.89466e-06 5.23e-05 3.85e-05 1.64e-05 
21 1 1.89466e-06 8.78e-05 1.16e-05 1.83e-05 
13 1 1.61011e-06 5.46458e-05 4.42654e-06 1.9629e-05 
56 1 1.5275e-06 5.49463e-05 4.102e-06 2.11314e-05 
33 1 1.50948e-06 8.64e-05 2.86e-05 2.69e-05 
36 1 1.66564e-06 6.41e-05 3.68e-05 2.95e-05 
42 1 1.73851e-06 7.06e-05 3.03e-05 3.24e-05 
25 1 1.6692e-06 6.6479e-05 3.04167e-05 3.28391e-05 
43 1 1.74892e-06 6.25e-05 5.32e-06 3.57e-05 
24 1 1.46784e-06 7.97e-05 1.43e-05 3.59e-05 
38 1 1.92589e-06 7.98e-05 1.96e-05 4.07e-05 
50 1 1.64481e-06 5.54e-05 3.64e-05 4.11e-05 
28 1 1.67605e-06 7.88e-05 2.84e-05 4.28e-05 
20 1 1.69687e-06 8.93e-05 4.79e-05 4.63e-05 
53 1 1.47519e-06 6.70837e-05 3.17039e-05 3.22003e-05 
30 1 1.49907e-06 8.19e-05 9.85e-05 1.53e-06 
15 1 1.82179e-06 8.9e-05 5.12e-05 9.15e-06 
45 1 1.92589e-06 7.83e-05 7e-05 1e-05 
6 1 1.84261e-06 9.51e-05 5.54e-05 1.75e-05 
19 1 1.56153e-06 7.55e-05 6.87e-05 2.04e-05 
1 1 1.6692e-06 7.9779e-05 8.63167e-05 2.12391e-05 
23 1 1.74892e-06 5.83e-05 8.26e-05 2.57e-05 
17 1 1.7281e-06 5.83e-05 7.12e-05 3.19e-05 
10 1 1.60317e-06 6.94e-05 6.35e-05 3.62e-05 
4 1 1.82179e-06 7.37e-05 5.78e-05 3.79e-05 
49 1 1.90507e-06 9.31e-05 5.05e-05 3.92e-05 
22 1 1.80097e-06 5.88e-05 8.81e-05 4.15e-05 
54 1 1.47519e-06 8.03837e-05 8.76039e-05 2.06003e-05 
ITEM: TIMESTEP
700
ITEM: NUMBER OF ATOMS
57
ITEM: BOX BOUNDS ff ff ff
0.0000000000000000e+00 1.0000000000000000e-04
0.0000000000000000e+00 1.0000000000000000e-04
0.0000000000000000e+00 5.0000000000000002e-05
ITEM: ATOMS id type diameter x y z 
26 1 1.47771e-06 4.81e-05 6.25e-06 1.95e-06 
3 1 1.82356e-06 4.79e-05 7.78e-06 4.34e-06 
5 1 1.66282e-06 4.68781e-05 3.60148e-05 4.38012e-06 
35 1 1.73971e-06 2.21e-05 4.15e-05 1.06e-05 
57 1 1.46956e-06 4.74845e-05 3.73056e-05 3.73941e-06 
8 1 1.64539e-06 3.24e-05 4.85e-05 2.21e-05 
41 1 1.48819e-06 2.18e-05 3.77e-05 2.3e-05 
7 1 1.62443e-06 1.03e-05 8.49e-06 2.53e-05 
48 1 1.68042e-06 1.5879e-05 2.55167e-05 2.55391e-05 
11 1 1.63491e-06 2.33e-05 1.11e-05 2.65e-05 
9 1 1.71875e-06 3.1e-05 3.74e-05 4.39e-05 
46 1 1.59299e-06 3.01e-05 5.89e-06 4.57e-05 
29 1 1.67683e-06 7.22e-06 2.24e-05 4.68e-05 
51 1 1.48511e-06 1.64837e-05 2.68039e-05 2.49003e-05 
12 1 1.89692e-06 3.35e-05 7.94e-05 3.14e-06 
32 1 1.63491e-06 7.18e-06 7.99e-05 4.09e-06 
27 1 1.67162e-06 1.25785e-05 6.42157e-05 1.67396e-05 
55 1 1.47733e-06 1.31841e-05 6.55047e-05 1.60998e-05 
31 1 1.48819e-06 3.32e-05 7.86e-05 2.31e-05 
16 1 1.68042e-06 2.2079e-05 6.31167e-05 2.54391e-05 
47 1 1.44627e-06 1.08e-05 5.38e-05 3.16e-05 
37 1 1.58251e-06 4.4e-05 6.55e-05 3.43e-05 
39 1 1.57203e-06 3.95e-05 6.24e-05 4.12e-05 
44 1 1.855e-06 3.33e-05 6.63e-05 4.54e-05 
14 1 1.64539e-06 8.63e-06 9.67e-05 4.64e-05 
52 1 1.48511e-06 2.26837e-05 6.44039e-05 2.48003e-05 
18 1 1.54059e-06 8.26e-05 4.49e-05 2.75e-06 
2 1 1.55107e-06 8.59e-05 4.59e-05 1.24e-05 
34 1 1.61395e-06 8.17e-05 2.37e-05 1.44e-05 
40 1 1.9074e-06 5.23e-05 3.85e-05 1.64e-05 
21 1 1.9074e-06 8.78e-05 1.16e-05 1.83e-05 
13 1 1.62094e-06 5.46439e-05 4.42862e-06 1.96194e-05 
56 1 1.53777e-06 5.49482e-05 4.09993e-06 2.1141e-05 
33 1 1.51963e-06 8.64e-05 2.86e-05 2.69e-05 
36 1 1.67683e-06 6.41e-05 3.68e-05 2.95e-05 
42 1 1.75019e-06 7.06e-05 3.03e-05 3.24e-05 
25 1 1.68042e-06 6.6479e-05 3.04167e-05 3.28391e-05 
43 1 1.76068e-06 6.25e-05 5.32e-06 3.57e-05 
24 1 1.47771e-06 7.97e-05 1.43e-05 3.59e-05 
38 1 1.93884e-06 7.98e-05 1.96e-05 4.07e-05 
50 1 1.65587e-06 5.54e-05 3.64e-05 4.11e-05 
28 1 1.68731e-06 7.88e-05 2.84e-05 4.28e-05 
20 1 1.70827e-06 8.93e-05 4.79e-05 4.63e-05 
53 1 1.48511e-06 6.70837e-05 3.17039e-05 3.22003e-05 
30 1 1.50915e-06 8.19e-05 9.85e-05 1.53e-06 
15 1 1.83404e-06 8.9e-05 5.12e-05 9.15e-06 
45 1 1.93884e-06 7.83e-05 7e-05 1e-05 
6 1 1.855e-06 9.51e-05 5.54e-05 1.75e-05 
19 1 1.57203e-06 7.55e-05 6.87e-05 2.04e-05 
1 1 1.68042e-06 7.9779e-05 8.63167e-05 2.12391e-05 
23 1 1.76068e-06 5.83e-05 8.26e-05 2.57e-05 
17 1 1.73971e-06 5.83e-05 7.12e-05 3.19e-05 
10 1 1.61395e-06 6.94e-05 6.35e-05 3.62e-05 
4 1 1.83404e-06 7.37e-05 5.78e-05 3.79e-05 
49 1 1.91788e-06 9.31e-05 5.05e-05 3.92e-05 
22 1 1.81308e-06 5.88e-05 8.81e-05 4.15e-05 
54 1 1.48511e-06 8.03837e-05 8.76039e-05 2.06003e-05 
ITEM: TIMESTEP
800
ITEM: NUMBER OF ATOMS
57
ITEM: BOX BOUNDS ff ff ff
0.0000000000000000e+00 1.0000000000000000e-04
0.0000000000000000e+00 1.0000000000000000e-04
0.0000000000000000e+00 5.0000000000000002e-05
ITEM: ATOMS id type diameter x y z 
26 1 1.48764e-06 4.81e-05 6.25e-06 1.95e-06 
3 1 1.83582e-06 4.79e-05 7.78e-06 4.34e-06 
5 1 1.674e-06 4.68781e-05 3.60148e-05 4.38012e-06 
35 1 1.75141e-06 2.21e-05 4.15e-05 1.06e-05 
57 1 1.47944e-06 4.74845e-05 3.73056e-05 3.73941e-06 
8 1 1.65645e-06 3.24e-05 4.85e-05 2.21e-05 
41 1 1.49819e-06 2.18e-05 3.77e-05 2.3e-05 
7 1 1.63535e-06 1.03e-05 8.49e-06 2.53e-05 
48 1 1.69172e-06 1.58712e-05 2.55002e-05 2.55473e-05 
11 1 1.6459e-06 2.33e-05 1.11e-05 2.65e-05 
9 1 1.73031e-06 3.1e-05 3.74e-05 4.39e-05 
46 1 1.6037e-06 3.01e-05 5.89e-06 4.57e-05 
29 1 1.68811e-06 7.22e-06 2.24e-05 4.68e-05 
51 1 1.49509e-06 1.64915e-05 2.68204e-05 2.48921e-05 
12 1 1.90967e-06 3.35e-05 7.94e-05 3.14e-06 
32 1 1.6459e-06 7.18e-06 7.99e-05 4.09e-06 
27 1 1.68286e-06 1.25785e-05 6.42157e-05 1.67396e-05 
55 1 1.48727e-06 1.31841e-05 6.55047e-05 1.60998e-05 
31 1 1.49819e-06 3.32e-05 7.86e-05 2.31e-05 
16 1 1.69172e-06 2.20712e-05 6.31002e-05 2.54473e-05 
47 1 1.45599e-06 1.08e-05 5.38e-05 3.16e-05 
37 1 1.59315e-06 4.4e-05 6.55e-05 3.43e-05 
39 1 1.5826e-06 3.95e-05 6.24e-05 4.12e-05 
44 1 1.86747e-06 3.33e-05 6.63e-05 4.54e-05 
14 1 1.65645e-06 8.63e-06 9.67e-05 4.64e-05 
52 1 1.49509e-06 2.26915e-05 6.44204e-05 2.47921e-05 
18 1 1.55095e-06 8.26e-05 4.49e-05 2.75e-06 
2 1 1.5615e-06 8.59e-05 4.59e-05 1.24e-05 
34 1 1.6248e-06 8.17e-05 2.37e-05 1.44e-05 
40 1 1.92022e-06 5.23e-05 3.85e-05 1.64e-05 
21 1 1.92022e-06 8.78e-05 1.16e-05 1.83e-05 
13 1 1.63184e-06 5.46439e-05 4.42862e-06 1.96194e-05 
56 1 1.54811e-06 5.49482e-05 4.09993e-06 2.1141e-05 
33 1 1.52985e-06 8.64e-05 2.86e-05 2.69e-05 
36 1 1.68811e-06 6.41e-05 3.68e-05 2.95e-05 
42 1 1.76196e-06 7.06e-05 3.03e-05 3.24e-05 
25 1 1.69172e-06 6.64712e-05 3.04002e-05 3.28473e-05 
43 1 1.77251e-06 6.25e-05 5.32e-06 3.57e-05 
24 1 1.48764e-06 7.97e-05 1.43e-05 3.59e-05 
38 1 1.95187e-06 7.98e-05 1.96e-05 4.07e-05 
50 1 1.66701e-06 5.54e-05 3.64e-05 4.11e-05 
28 1 1.69866e-06 7.88e-05 2.84e-05 4.28e-05 
20 1 1.71976e-06 8.93e-05 4.79e-05 4.63e-05 
53 1 1.49509e-06 6.70915e-05 3.17204e-05 3.21921e-05 
30 1 1.5193e-06 8.19e-05 9.85e-05 1.53e-06 
15 1 1.84637e-06 8.9e-05 5.12e-05 9.15e-06 
45 1 1.95187e-06 7.83e-05 7e-05 1e-05 
6 1 1.86747e-06 9.51e-05 5.54e-05 1.75e-05 
19 1 1.5826e-06 7.55e-05 6.87e-05 2.04e-05 
1 1 1.69172e-06 7.97712e-05 8.63002e-05 2.12473e-05 
23 1 1.77251e-06 5.83e-05 8.26e-05 2.57e-05 
17 1 1.75141e-06 5.83e-05 7.12e-05 3.19e-05 
10 1 1.6248e-06 6.94e-05 6.35e-05 3.62e-05 
4 1 1.84637e-06 7.37e-05 5.78e-05 3.79e-05 
49 1 1.93077e-06 9.31e-05 5.05e-05 3.92e-05 
22 1 1.82527e-06 5.88e-05 8.81e-05 4.15e-05 
54 1 1.49509e-06 8.03915e-05 8.76204e-05 2.05921e-05 
ITEM: TIMESTEP
900
ITEM: NUMBER OF ATOMS
57
ITEM: BOX BOUNDS ff ff ff
0.0000000000000000e+00 1.0000000000000000e-04
0.0000000000000000e+00 1.0000000000000000e-04
0.0000000000000000e+00 5.0000000000000002e-05
ITEM: ATOMS id type diameter x y z 
26 1 1.49765e-06 4.81e-05 6.25e-06 1.95e-06 
3 1 1.84816e-06 4.79e-05 7.78e-06 4.34e-06 
5 1 1.68526e-06 4.68781e-05 3.60148e-05 4.38012e-06 
35 1 1.76319e-06 2.21e-05 4.15e-05 1.06e-05 
57 1 1.48938e-06 4.74845e-05 3.73056e-05 3.73941e-06 
8 1 1.66759e-06 3.24e-05 4.85e-05 2.21e-05 
41 1 1.50827e-06 2.18e-05 3.77e-05 2.3e-05 
7 1 1.64635e-06 1.03e-05 8.49e-06 2.53e-05 
48 1 1.70309e-06 1.58712e-05 2.55002e-05 2.55473e-05 
11 1 1.65697e-06 2.33e-05 1.11e-05 2.65e-05 
9 1 1.74194e-06 3.1e-05 3.74e-05 4.39e-05 
46 1 1.61448e-06 3.01e-05 5.89e-06 4.57e-05 
29 1 1.69946e-06 7.22e-06 2.24e-05 4.68e-05 
51 1 1.50515e-06 1.64915e-05 2.68204e-05 2.48921e-05 
12 1 1.92251e-06 3.35e-05 7.94e-05 3.14e-06 
32 1 1.65697e-06 7.18e-06 7.99e-05 4.09e-06 
27 1 1.69417e-06 1.25708e-05 6.41992e-05 1.67478e-05 
55 1 1.49727e-06 1.31919e-05 6.55212e-05 1.60916e-05 
31 1 1.50827e-06 3.32e-05 7.86e-05 2.31e-05 
16 1 1.70309e-06 2.20712e-05 6.31002e-05 2.54473e-05 
47 1 1.46578e-06 1.08e-05 5.38e-05 3.16e-05 
37 1 1.60386e-06 4.4e-05 6.55e-05 3.43e-05 
39 1 1.59324e-06 3.95e-05 6.24e-05 4.12e-05 
44 1 1.88002e-06 3.33e-05 6.63e-05 4.54e-05 
14 1 1.66759e-06 8.63e-06 9.67e-05 4.64e-05 
52 1 1.50515e-06 2.26915e-05 6.44204e-05 2.47921e-05 
18 1 1.56138e-06 8.26e-05 4.49e-05 2.75e-06 
2 1 1.572e-06 8.59e-05 4.59e-05 1.24e-05 
34 1 1.63573e-06 8.17e-05 2.37e-05 1.44e-05 
40 1 1.93313e-06 5.23e-05 3.85e-05 1.64e-05 
21 1 1.93313e-06 8.78e-05 1.16e-05 1.83e-05 
13 1 1.64281e-06 5.46439e-05 4.42862e-06 1.96194e-05 
56 1 1.55852e-06 5.49482e-05 4.09993e-06 2.1141e-05 
33 1 1.54013e-06 8.64e-05 2.86e-05 2.69e-05 
36 1 1.69946e-06 6.41e-05 3.68e-05 2.95e-05 
42 1 1.77381e-06 7.06e-05 3.03e-05 3.24e-05 
25 1 1.70309e-06 6.64712e-05 3.04002e-05 3.28473e-05 
43 1 1.78443e-06 6.25e-05 5.32e-06 3.57e-05 
24 1 1.49765e-06 7.97e-05 1.43e-05 3.59e-05 
38 1 1.965e-06 7.98e-05 1.96e-05 4.07e-05 
50 1 1.67821e-06 5.54e-05 3.64e-05 4.11e-05 
28 1 1.71008e-06 7.88e-05 2.84e-05 4.28e-05 
20 1 1.73132e-06 8.93e-05 4.79e-05 4.63e-05 
53 1 1.50515e-06 6.70915e-05 3.17204e-05 3.21921e-05 
30 1 1.52951e-06 8.19e-05 9.85e-05 1.53e-06 
15 1 1.85878e-06 8.9e-05 5.12e-05 9.15e-06 
45 1 1.965e-06 7.83e-05 7e-05 1e-05 
6 1 1.88002e-06 9.51e-05 5.54e-05 1.75e-05 
19 1 1.59324e-06 7.55e-05 6.87e-05 2.04e-05 
1 1 1.70309e-06 7.97712e-05 8.63002e-05 2.12473e-05 
23 1 1.78443e-06 5.83e-05 8.26e-05 2.57e-05 
17 1 1.76319e-06 5.83e-05 7.12e-05 3.19e-05 
10 1 1.63573e-06 6.94e-05 6.35e-05 3.62e-05 
4 1 1.85878e-06 7.37e-05 5.78e-05 3.79e-05 
49 1 1.94375e-06 9.31e-05 5.05e-05 3.92e-05 
22 1 1.83754e-06 5.88e-05 8.81e-05 4.15e-05 
54 1 1.50515e-06 8.03915e-05 8.76204e-05 2.05921e-05 
ITEM: TIMESTEP
1000
ITEM: NUMBER OF ATOMS
59
ITEM: BOX BOUNDS ff ff ff
0.0000000000000000e+00 1.0000000000000000e-04
0.0000000000000000e+00 1.0000000000000000e-04
0.0000000000000000e+00 5.0000000000000002e-05
ITEM: ATOMS id type diameter x y z 
26 1 1.50771e-06 4.81e-05 6.25e-06 1.95e-06 
57 1 1.4994e-06 4.74923e-05 3.73221e-05 3.73122e-06 
3 1 1.86058e-06 4.79e-05 7.78e-06 4.34e-06 
5 1 1.69659e-06 4.68703e-05 3.59983e-05 4.38831e-06 
35 1 1.77504e-06 2.21e-05 4.15e-05 1.06e-05 
8 1 1.6788e-06 3.24e-05 4.85e-05 2.21e-05 
41 1 1.51841e-06 2.18e-05 3.77e-05 2.3e-05 
51 1 1.51526e-06 1.64915e-05 2.68204e-05 2.48921e-05 
7 1 1.65742e-06 1.03e-05 8.49e-06 2.53e-05 
48 1 1.71454e-06 1.58712e-05 2.55002e-05 2.55473e-05 
11 1 1.66811e-06 2.33e-05 1.11e-05 2.65e-05 
9 1 1.75365e-06 3.1e-05 3.74e-05 4.39e-05 
46 1 1.62534e-06 3.01e-05 5.89e-06 4.57e-05 
29 1 1.71088e-06 7.22e-06 2.24e-05 4.68e-05 
12 1 1.93543e-06 3.35e-05 7.94e-05 3.14e-06 
32 1 1.66811e-06 7.18e-06 7.99e-05 4.09e-06 
55 1 1.50733e-06 1.31919e-05 6.55212e-05 1.60916e-05 
27 1 1.70556e-06 1.25708e-05 6.41992e-05 1.67478e-05 
31 1 1.51841e-06 3.32e-05 7.86e-05 2.31e-05 
52 1 1.51526e-06 2.26915e-05 6.44204e-05 2.47921e-05 
16 1 1.71454e-06 2.20712e-05 6.31002e-05 2.54473e-05 
47 1 1.47564e-06 1.08e-05 5.38e-05 3.16e-05 
37 1 1.61464e-06 4.4e-05 6.55e-05 3.43e-05 
39 1 1.60395e-06 3.95e-05 6.24e-05 4.12e-05 
44 1 1.89266e-06 3.33e-05 6.63e-05 4.54e-05 
14 1 1.6788e-06 8.63e-06 9.67e-05 4.64e-05 
18 1 1.57187e-06 8.26e-05 4.49e-05 2.75e-06 
2 1 1.58257e-06 8.59e-05 4.59e-05 1.24e-05 
34 1 1.64672e-06 8.17e-05 2.37e-05 1.44e-05 
40 1 1.94613e-06 5.23e-05 3.85e-05 1.64e-05 
21 1 1.94613e-06 8.78e-05 1.16e-05 1.83e-05 
13 1 1.65385e-06 5.46439e-05 4.42862e-06 1.96194e-05 
56 1 1.56899e-06 5.49482e-05 4.09993e-06 2.1141e-05 
33 1 1.55049e-06 8.64e-05 2.86e-05 2.69e-05 
36 1 1.71088e-06 6.41e-05 3.68e-05 2.95e-05 
42 1 1.78573e-06 7.06e-05 3.03e-05 3.24e-05 
53 1 1.51526e-06 6.70915e-05 3.17204e-05 3.21921e-05 
25 1 1.71454e-06 6.64712e-05 3.04002e-05 3.28473e-05 
43 1 1.79643e-06 6.25e-05 5.32e-06 3.57e-05 
24 1 1.50771e-06 7.97e-05 1.43e-05 3.59e-05 
58 1 1.62698e-06 7.93187e-05 1.92377e-05 4.01554e-05 
38 1 1.50878e-06 8.02463e-05 1.9936e-05 4.1205e-05 
50 1 1.6895e-06 5.54e-05 3.64e-05 4.11e-05 
28 1 1.72157e-06 7.88e-05 2.84e-05 4.28e-05 
20 1 1.74296e-06 8.93e-05 4.79e-05 4.63e-05 
30 1 1.53979e-06 8.19e-05 9.85e-05 1.53e-06 
15 1 1.87128e-06 8.9e-05 5.12e-05 9.15e-06 
59 1 1.46766e-06 7.85842e-05 7.06048e-05 9.6998e-06 
45 1 1.66068e-06 7.79785e-05 6.93156e-05 1.03397e-05 
6 1 1.89266e-06 9.51e-05 5.54e-05 1.75e-05 
19 1 1.60395e-06 7.55e-05 6.87e-05 2.04e-05 
54 1 1.51526e-06 8.03915e-05 8.76204e-05 2.05921e-05 
1 1 1.71454e-06 7.97712e-05 8.63002e-05 2.12473e-05 
23 1 1.79643e-06 5.83e-05 8.26e-05 2.57e-05 
17 1 1.77504e-06 5.83e-05 7.12e-05 3.19e-05 
10 1 1.64672e-06 6.94e-05 6.35e-05 3.62e-05 
4 1 1.87128e-06 7.37e-05 5.78e-05 3.79e-05 
49 1 1.95682e-06 9.31e-05 5.05e-05 3.92e-05 
22 1 1.84989e-06 5.88e-05 8.81e-05 4.15e-05 
ITEM: TIMESTEP
1100
ITEM: NUMBER OF ATOMS
59
ITEM: BOX BOUNDS ff ff ff
0.0000000000000000e+00 1.0000000000000000e-04
0.0000000000000000e+00 1.0000000000000000e-04
0.0000000000000000e+00 5.0000000000000002e-05
ITEM: ATOMS id type diameter x y z 
26 1 1.51785e-06 4.81e-05 6.25e-06 1.95e-06 
57 1 1.50948e-06 4.74923e-05 3.73221e-05 3.73122e-06 
3 1 1.87309e-06 4.79e-05 7.78e-06 4.34e-06 
5 1 1.70799e-06 4.68703e-05 3.59983e-05 4.38831e-06 
35 1 1.78697e-06 2.21e-05 4.15e-05 1.06e-05 