LAMMPS (20 Nov 2019)
Reading data file ...
  orthogonal box = (0 0 0) to (0.0001 0.0001 0.0001)
  2 by 4 by 4 MPI processor grid
  reading atoms ...
  100 atoms
  4 nutrients
Lattice spacing in x,y,z = 100 100 100
100 atoms in group CYANO
0 atoms in group ECW
Model is defined as a closed system. 
Neighbor list info ...
  update every 1 steps, delay 0 steps, check yes
  max neighbors/atom: 5000, page size: 100000
  master list distance cutoff = 2.44e-06
  ghost atom cutoff = 2.44e-06
  binsize = 1.22e-06, bins = 82 82 82
  1 neighbor lists, perpetual/occasional/extra = 1 0 0
  (1) pair gran/hooke/history, perpetual
      attributes: half, newton off, size, history
      pair build: half/size/bin/newtoff
      stencil: half/bin/3d/newtoff
      bin: standard
Setting up Verlet run ...
  Unit style    : lj
  Current step  : 0
  Time step     : 10
Per MPI rank memory allocation (min/avg/max) = 5.856 | 9.057 | 10.91 Mbytes
Step CPU Atoms c_myNtypes[1] c_myNtypes[2] c_myMass[1] c_myMass[2] c_myCon[1] c_myCon[2] c_myCon[3] c_myCon[4] 
       0            0      100          100            0 9.2662195e-14            0          0.1        0.009     3.42e-20       0.0299 
number of iterations: 43880 
     100   0.53396034      100          100            0 9.4470148e-14            0          0.1 0.0090002623 1.4016862e-20  0.029899563 
number of iterations: 36393 
     200   0.94000759      100          100            0 9.6313377e-14            0          0.1 0.0090002674 1.0403077e-20  0.029899555 
number of iterations: 25692 
     300    1.2530914      101          101            0 9.819257e-14            0          0.1 0.0090002727 9.7084965e-21  0.029899546 
number of iterations: 24199 
     400    1.5497318      102          102            0 1.0010843e-13            0          0.1  0.009000278 1.0318686e-20  0.029899537 
number of iterations: 24581 
     500    1.8458888      105          105            0 1.0206167e-13            0          0.1 0.0090002832 9.6857939e-21  0.029899528 
number of iterations: 24556 
     600    2.1459283      108          108            0 1.0405301e-13            0          0.1 0.0090002887 1.0311904e-20  0.029899519 
number of iterations: 24479 
     700    2.4415038      108          108            0 1.0608322e-13            0          0.1 0.0090002944 9.6838345e-21   0.02989951 
number of iterations: 24599 
     800    2.7348334      113          113            0 1.0815303e-13            0          0.1 0.0090002999 1.0309073e-20  0.029899501 
number of iterations: 24451 
     900    3.0308294      114          114            0 1.1026323e-13            0          0.1 0.0090003058 9.6854841e-21  0.029899491 
number of iterations: 24574 
    1000    3.3358383      118          118            0 1.124146e-13            0          0.1 0.0090003117 1.0309557e-20  0.029899481 
number of iterations: 24458 
    1100    3.6352635      120          120            0 1.1460795e-13            0          0.1 0.0090003194 9.6855874e-21  0.029899468 
number of iterations: 24572 
    1200    3.9339932      122          122            0 1.1684409e-13            0          0.1 0.0090003256 1.0309624e-20  0.029899458 
number of iterations: 24459 
    1300     4.232309      123          123            0 1.1912386e-13            0          0.1  0.009000332 9.6856048e-21  0.029899447 
number of iterations: 24572 
    1400     4.535128      124          124            0 1.2144812e-13            0          0.1 0.0090003384 1.0309607e-20  0.029899437 
number of iterations: 24459 
    1500    4.8309146      128          128            0 1.2381772e-13            0          0.1 0.0090003445 9.6856222e-21  0.029899426 
number of iterations: 24572 
    1600    5.1305318      133          133            0 1.2623355e-13            0          0.1 0.0090003513 1.0309589e-20  0.029899415 
number of iterations: 24459 
    1700    5.4310736      134          134            0 1.2869653e-13            0          0.1 0.0090003581 9.6856397e-21  0.029899404 
number of iterations: 24571 
    1800    5.7592045      136          136            0 1.3120755e-13            0          0.1 0.0090003651 1.0309656e-20  0.029899392 
number of iterations: 24460 
    1900    6.0595731      139          139            0 1.3376757e-13            0          0.1 0.0090003722 9.6856568e-21   0.02989938 
number of iterations: 24571 
    2000    6.3640414      140          140            0 1.3637754e-13            0          0.1 0.0090003795 1.030964e-20  0.029899368 
number of iterations: 24460 
    2100    6.6671363      142          142            0 1.3903844e-13            0          0.1 0.0090003869 9.6856739e-21  0.029899356 
number of iterations: 24571 
    2200    6.9681784      146          146            0 1.4175125e-13            0          0.1 0.0090003944 1.0310862e-20  0.029899343 
number of iterations: 24478 
    2300    7.2697324      146          146            0 1.4451699e-13            0          0.1 0.0090004021 9.684743e-21   0.02989933 
number of iterations: 24585 
    2400    7.5712221      148          148            0 1.4733669e-13            0          0.1   0.00900041 1.0310603e-20  0.029899317 
number of iterations: 24474 
    2500    7.8714384      153          153            0 1.5021141e-13            0          0.1  0.009000418 9.6846653e-21  0.029899304 
number of iterations: 24586 
    2600    8.1739948      153          153            0 1.5314222e-13            0          0.1 0.0090004261 1.0310595e-20  0.029899291 
number of iterations: 24474 
    2700    8.5092516      155          155            0 1.5613022e-13            0          0.1 0.0090004344 9.6846729e-21  0.029899277 
number of iterations: 24586 
    2800    8.8157922      156          156            0 1.5917651e-13            0          0.1 0.0090004447 1.0284726e-20   0.02989926 
number of iterations: 24063 
    2900    9.1166015      159          159            0 1.6228224e-13            0          0.1 0.0090004534 9.7035529e-21  0.029899245 
number of iterations: 24292 
    3000    9.4224427      159          159            0 1.6544856e-13            0          0.1 0.0090004622 1.0290085e-20   0.02989923 
number of iterations: 24151 
    3100    9.7272793      160          160            0 1.6867667e-13            0          0.1 0.0090004712 9.7050717e-21  0.029899215 
number of iterations: 24268 
    3200    10.028516      162          162            0 1.7196776e-13            0          0.1 0.0090004804 1.0290488e-20    0.0298992 
number of iterations: 24158 
    3300    10.329042      162          162            0 1.7532306e-13            0          0.1 0.0090004898 9.7052211e-21  0.029899185 
number of iterations: 24265 
    3400    10.634064      163          163            0 1.7874383e-13            0          0.1 0.0090004994 1.0290577e-20  0.029899169 
number of iterations: 24159 
    3500    10.942685      169          169            0 1.8223134e-13            0          0.1 0.0090005099 9.7818937e-21  0.029899151 
number of iterations: 22833 
    3600    11.234793      172          172            0 1.857869e-13            0          0.1 0.0090005198 1.0238785e-20  0.029899135 
number of iterations: 23232 
    3700       11.528      174          174            0 1.8941183e-13            0          0.1   0.00900053 9.7662062e-21  0.029899118 
number of iterations: 23163 
    3800    11.821992      181          181            0 1.9310749e-13            0          0.1 0.0090005414 1.0217691e-20  0.029899099 
number of iterations: 22794 
    3900    12.113448      182          182            0 1.9687525e-13            0          0.1 0.0090005519 9.775108e-21  0.029899081 
number of iterations: 22978 
    4000    12.407182      186          186            0 2.0071653e-13            0          0.1 0.0090005627 1.0220634e-20  0.029899063 
number of iterations: 22858 
    4100    12.700092      195          195            0 2.0463275e-13            0          0.1 0.0090005763 9.7761198e-21  0.029899041 
number of iterations: 22957 
    4200    12.991764      197          197            0 2.0862539e-13            0          0.1 0.0090005875 1.0220943e-20  0.029899022 
number of iterations: 22864 
    4300    13.283717      201          201            0 2.1269593e-13            0          0.1  0.009000599 9.7761828e-21  0.029899003 
number of iterations: 22956 
    4400    13.578085      207          207            0 2.1684589e-13            0          0.1 0.0090006092 1.0220943e-20  0.029898986 
number of iterations: 22864 
    4500     13.86594      213          213            0 2.2107682e-13            0          0.1 0.0090006198 9.774873e-21  0.029898968 
number of iterations: 22983 
    4600    14.159806      213          213            0 2.253903e-13            0          0.1 0.0090006318 1.0221889e-20  0.029898948 
number of iterations: 22885 
    4700    14.458609      227          227            0 2.2978794e-13            0          0.1  0.009000648 9.7866632e-21  0.029898921 
number of iterations: 22614 
    4800    14.743005      232          232            0 2.3427138e-13            0          0.1 0.0090006595 1.018854e-20  0.029898902 
number of iterations: 22025 
    4900    15.028941      237          237            0 2.388423e-13            0          0.1  0.009000675 9.8101727e-21  0.029898876 
number of iterations: 22076 
    5000     15.31661      247          247            0 2.4350241e-13            0          0.1   0.00900069 1.0188457e-20  0.029898851 
number of iterations: 22023 
    5100    15.602563      250          250            0 2.4825344e-13            0          0.1 0.0090007034 9.8101511e-21  0.029898829 
number of iterations: 22076 
    5200    15.921832      253          253            0 2.5309717e-13            0          0.1 0.0090007171 1.0188479e-20  0.029898806 
number of iterations: 22023 
    5300    16.207593      258          258            0 2.5803541e-13            0          0.1 0.0090007301 9.8101294e-21  0.029898784 
number of iterations: 22077 
    5400      16.4965      267          267            0   2.6307e-13            0          0.1 0.0090007444 1.0188448e-20  0.029898761 
number of iterations: 22023 
    5500     16.78503      276          276            0 2.6820281e-13            0          0.1 0.0090007599 9.8101601e-21  0.029898735 
number of iterations: 22076 
    5600    17.074957      279          279            0 2.7343578e-13            0          0.1 0.0090007747 1.018847e-20   0.02989871 
number of iterations: 22023 
    5700    17.367218      285          285            0 2.7877085e-13            0          0.1 0.0090007903 9.8223509e-21  0.029898684 
number of iterations: 21770 
    5800    17.655536      289          289            0 2.8421001e-13            0          0.1 0.0090008058 1.0179438e-20  0.029898658 
number of iterations: 21797 
    5900    17.953632      294          294            0 2.8975529e-13            0          0.1 0.0090008213 9.8200834e-21  0.029898633 
number of iterations: 21828 
    6000    18.280074      299          299            0 2.9540878e-13            0          0.1 0.0090008373 1.0178877e-20  0.029898606 
number of iterations: 21783 
    6100     18.58187      303          303            0 3.0117256e-13            0          0.1 0.0090008537 9.8189091e-21  0.029898579 
number of iterations: 21858 
    6200    18.876118      306          306            0 3.0704881e-13            0          0.1 0.0090008703 1.0179642e-20  0.029898551 
number of iterations: 21802 
    6300    19.169264      306          306            0 3.1303971e-13            0          0.1 0.0090008873 9.8190694e-21  0.029898523 
number of iterations: 21854 
    6400     19.45796      311          311            0 3.191475e-13            0          0.1 0.0090009046 1.0179677e-20  0.029898494 
number of iterations: 21803 
    6500    19.749366      314          314            0 3.2537446e-13            0          0.1 0.0090009223 9.8190823e-21  0.029898464 
number of iterations: 21854 
    6600    20.041783      315          315            0 3.3172291e-13            0          0.1 0.0090009403 1.0179665e-20  0.029898434 
number of iterations: 21611 
    6700    20.330043      321          321            0 3.3819523e-13            0          0.1  0.009000957 9.8232664e-21  0.029898407 
number of iterations: 21551 
    6800    20.622753      329          329            0 3.4479383e-13            0          0.1 0.0090009757 1.0176746e-20  0.029898375 
number of iterations: 21536 
    6900    20.910397      334          334            0 3.5152118e-13            0          0.1  0.009000994 9.8225111e-21  0.029898345 
number of iterations: 21571 
    7000    21.200599      342          342            0 3.5837979e-13            0          0.1 0.0090010134 1.0176527e-20  0.029898313 
number of iterations: 21531 
    7100    21.489068      344          344            0 3.6537222e-13            0          0.1 0.0090010332 9.822487e-21   0.02989828 
number of iterations: 21571 
    7200    21.779418      350          350            0 3.7250108e-13            0          0.1 0.0090010533 1.0176551e-20  0.029898246 
number of iterations: 21531 
    7300    22.070929      356          356            0 3.7976904e-13            0          0.1 0.0090010739 9.8224629e-21  0.029898212 
number of iterations: 21572 
    7400     22.38441      366          366            0 3.8717879e-13            0          0.1  0.009001096 1.0176526e-20  0.029898175 
number of iterations: 21531 
    7500    22.678838      375          375            0 3.9473313e-13            0          0.1 0.0090011175 9.8224877e-21  0.029898139 
number of iterations: 21571 
    7600    22.971017      383          383            0 4.0243485e-13            0          0.1 0.0090011394 1.017655e-20  0.029898103 
number of iterations: 21531 
    7700    23.286486      392          392            0 4.1028685e-13            0          0.1 0.0090011603 9.8224636e-21  0.029898068 
number of iterations: 21572 
    7800    23.578242      404          404            0 4.1829205e-13            0          0.1  0.009001183 1.0176526e-20   0.02989803 
number of iterations: 21531 
    7900    23.871659      419          419            0 4.2645344e-13            0          0.1 0.0090012066 9.8224883e-21  0.029897991 
number of iterations: 21571 
    8000    24.165837      426          426            0 4.3477407e-13            0          0.1 0.0090012288 1.017655e-20  0.029897954 
number of iterations: 21531 
    8100    24.460021      435          435            0 4.4325704e-13            0          0.1 0.0090012529 9.8214301e-21  0.029897914 
number of iterations: 21599 
    8200    24.766962      441          441            0 4.5190553e-13            0          0.1 0.0090012765 1.0177187e-20  0.029897875 
number of iterations: 21548 
    8300    25.062927      451          451            0 4.6072276e-13            0          0.1 0.0090013015 9.8217172e-21  0.029897833 
number of iterations: 21591 
    8400    25.357753      461          461            0 4.6971202e-13            0          0.1 0.0090013268 1.0177289e-20  0.029897791 
number of iterations: 21550 
    8500    25.653924      475          475            0 4.7887668e-13            0          0.1 0.0090013526 9.8217113e-21  0.029897748 
number of iterations: 21591 
    8600    26.026781      492          492            0 4.8822015e-13            0          0.1 0.0090013778 1.0177295e-20  0.029897706 
number of iterations: 21550 
    8700    26.328042      499          499            0 4.9774592e-13            0          0.1 0.0090014063 9.8217054e-21  0.029897658 
Loop time of 26.3281 on 32 procs for 8700 steps with 499 atoms

Performance: 285505256.432 tau/day, 330.446 timesteps/s
98.6% CPU use with 32 MPI tasks x no OpenMP threads

MPI task timing breakdown:
Section |  min time  |  avg time  |  max time  |%varavg| %total
---------------------------------------------------------------
Pair    | 0.00040711 | 0.0025851  | 0.0055479  |   2.9 |  0.01
Neigh   | 0.00122    | 0.0022011  | 0.005082   |   1.8 |  0.01
Comm    | 0.010523   | 0.03023    | 0.051409   |   6.5 |  0.11
Output  | 0.8687     | 0.869      | 0.86987    |   0.0 |  3.30
Modify  | 25.369     | 25.375     | 25.381     |   0.1 | 96.38
Other   |            | 0.04895    |            |       |  0.19

Nlocal:    15.5938 ave 40 max 0 min
Histogram: 4 3 9 1 5 1 2 3 2 2
Nghost:    6 ave 16 max 0 min
Histogram: 7 4 2 5 2 6 2 1 0 3
Neighs:    18.375 ave 56 max 0 min
Histogram: 6 8 4 2 2 3 4 2 0 1

Total # of neighbors = 588
Ave neighs/atom = 1.17836
Neighbor list builds = 114
Dangerous builds = 0
Total wall time: 0:00:26
