 NUFEB Simulation

     100 atoms 
     2 atom types 
     4 nutrients 

  0.0e-4   1.00e-04  xlo xhi 
  0.0e-4   1.00e-04  ylo yhi 
  0.0e-4   1.00e-04  zlo zhi 

 Atoms 

     1 1 1.71e-06  370 7.43e-05 7.68e-05 2.90e-05 1.71e-06 
     2 1 1.79e-06  370 6.77e-05 9.37e-05 5.31e-05 1.79e-06 
     3 1 1.78e-06  370 7.44e-05 7.80e-05 6.81e-05 1.78e-06 
     4 1 1.52e-06  370 7.84e-05 3.74e-05 7.43e-05 1.52e-06 
     5 1 1.40e-06  370 3.35e-05 3.45e-05 1.45e-05 1.40e-06 
     6 1 1.67e-06  370 8.20e-05 8.91e-05 4.21e-05 1.67e-06 
     7 1 1.82e-06  370 6.31e-05 5.43e-05 1.61e-05 1.82e-06 
     8 1 1.91e-06  370 7.81e-05 1.18e-05 8.59e-05 1.91e-06 
     9 1 1.81e-06  370 9.30e-05 1.64e-05 8.07e-06 1.81e-06 
     10 1 1.58e-06  370 9.44e-05 3.99e-05 8.29e-05 1.58e-06 
     11 1 1.58e-06  370 3.79e-05 5.86e-05 6.91e-05 1.58e-06 
     12 1 1.73e-06  370 6.99e-06 6.59e-05 9.72e-05 1.73e-06 
     13 1 1.62e-06  370 1.73e-05 7.81e-05 6.80e-05 1.62e-06 
     14 1 1.83e-06  370 4.95e-05 8.43e-05 4.49e-05 1.83e-06 
     15 1 1.89e-06  370 6.03e-05 9.51e-05 4.09e-05 1.89e-06 
     16 1 1.49e-06  370 4.94e-05 3.16e-05 9.20e-05 1.49e-06 
     17 1 1.69e-06  370 9.07e-05 4.88e-05 3.63e-05 1.69e-06 
     18 1 1.56e-06  370 5.12e-05 3.54e-06 7.98e-05 1.56e-06 
     19 1 1.84e-06  370 7.47e-05 2.91e-05 5.51e-05 1.84e-06 
     20 1 1.90e-06  370 7.34e-05 7.16e-05 1.09e-05 1.90e-06 
     21 1 1.59e-06  370 8.25e-06 4.54e-05 9.82e-05 1.59e-06 
     22 1 1.89e-06  370 8.66e-05 4.36e-05 5.86e-05 1.89e-06 
     23 1 1.90e-06  370 9.25e-05 1.31e-05 7.49e-05 1.90e-06 
     24 1 1.71e-06  370 9.75e-05 1.10e-05 9.06e-05 1.71e-06 
     25 1 1.72e-06  370 5.91e-05 5.86e-05 8.89e-06 1.72e-06 
     26 1 1.80e-06  370 7.99e-05 4.61e-05 8.18e-05 1.80e-06 
     27 1 1.90e-06  370 6.65e-05 4.20e-05 5.24e-05 1.90e-06 
     28 1 1.82e-06  370 9.10e-05 2.09e-06 6.87e-05 1.82e-06 
     29 1 1.89e-06  370 6.20e-05 8.02e-05 6.04e-05 1.89e-06 
     30 1 1.41e-06  370 9.98e-06 3.02e-05 4.40e-05 1.41e-06 
     31 1 1.93e-06  370 5.32e-05 2.50e-05 4.71e-05 1.93e-06 
     32 1 1.72e-06  370 6.58e-05 7.74e-05 8.42e-05 1.72e-06 
     33 1 1.55e-06  370 1.07e-05 2.88e-05 4.36e-05 1.55e-06 
     34 1 1.81e-06  370 1.36e-05 9.14e-05 7.11e-05 1.81e-06 
     35 1 1.51e-06  370 6.99e-05 7.25e-05 8.25e-06 1.51e-06 
     36 1 1.50e-06  370 2.46e-05 5.35e-05 3.50e-05 1.50e-06 
     37 1 1.57e-06  370 7.24e-05 9.27e-05 4.93e-05 1.57e-06 
     38 1 1.68e-06  370 5.37e-05 3.15e-05 6.94e-05 1.68e-06 
     39 1 1.86e-06  370 2.86e-05 7.00e-05 1.85e-05 1.86e-06 
     40 1 1.73e-06  370 9.07e-05 3.48e-05 1.53e-05 1.73e-06 
     41 1 1.76e-06  370 8.46e-05 1.34e-05 8.96e-05 1.76e-06 
     42 1 1.38e-06  370 1.51e-05 3.07e-05 7.65e-05 1.38e-06 
     43 1 1.77e-06  370 6.30e-05 4.35e-05 9.30e-05 1.77e-06 
     44 1 1.73e-06  370 9.63e-05 7.38e-05 6.43e-05 1.73e-06 
     45 1 1.58e-06  370 7.87e-05 6.34e-05 3.87e-06 1.58e-06 
     46 1 1.91e-06  370 2.63e-05 7.47e-06 4.38e-05 1.91e-06 
     47 1 1.93e-06  370 6.86e-05 4.54e-05 2.47e-05 1.93e-06 
     48 1 1.50e-06  370 4.57e-05 3.83e-05 2.11e-05 1.50e-06 
     49 1 1.91e-06  370 6.41e-05 3.07e-05 8.60e-05 1.91e-06 
     50 1 1.92e-06  370 8.39e-05 8.38e-05 1.21e-05 1.92e-06 
     51 1 1.75e-06  370 7.51e-05 4.40e-05 7.05e-05 1.75e-06 
     52 1 1.42e-06  370 8.45e-05 1.40e-05 1.50e-05 1.42e-06 
     53 1 1.81e-06  370 4.44e-05 3.77e-05 3.84e-05 1.81e-06 
     54 1 1.46e-06  370 7.68e-05 9.51e-05 3.67e-05 1.46e-06 
     55 1 1.46e-06  370 1.67e-05 2.70e-05 3.84e-05 1.46e-06 
     56 1 1.82e-06  370 4.41e-05 6.13e-05 5.49e-05 1.82e-06 
     57 1 1.55e-06  370 4.51e-05 4.78e-05 6.87e-05 1.55e-06 
     58 1 1.79e-06  370 8.15e-05 4.85e-05 7.37e-05 1.79e-06 
     59 1 1.57e-06  370 1.20e-05 4.99e-05 3.94e-05 1.57e-06 
     60 1 1.38e-06  370 1.32e-05 8.44e-05 6.95e-06 1.38e-06 
     61 1 1.45e-06  370 3.87e-05 7.24e-05 4.91e-05 1.45e-06 
     62 1 1.63e-06  370 1.30e-05 9.67e-05 4.70e-06 1.63e-06 
     63 1 1.55e-06  370 2.07e-06 2.64e-05 9.03e-05 1.55e-06 
     64 1 1.45e-06  370 9.65e-06 5.40e-05 3.62e-05 1.45e-06 
     65 1 1.63e-06  370 9.28e-05 1.30e-05 8.77e-05 1.63e-06 
     66 1 1.54e-06  370 4.16e-05 5.45e-05 3.75e-05 1.54e-06 
     67 1 1.57e-06  370 4.56e-05 9.55e-05 3.11e-05 1.57e-06 
     68 1 1.38e-06  370 1.73e-05 6.82e-05 5.62e-05 1.38e-06 
     69 1 1.61e-06  370 9.41e-05 3.92e-05 5.80e-05 1.61e-06 
     70 1 1.55e-06  370 5.61e-05 6.01e-05 3.78e-05 1.55e-06 
     71 1 1.58e-06  370 2.40e-05 3.18e-05 6.41e-05 1.58e-06 
     72 1 1.70e-06  370 8.89e-05 7.56e-05 8.04e-05 1.70e-06 
     73 1 1.65e-06  370 9.73e-05 6.21e-05 3.60e-05 1.65e-06 
     74 1 1.77e-06  370 5.28e-05 4.48e-05 8.40e-05 1.77e-06 
     75 1 1.84e-06  370 6.59e-05 1.82e-05 9.01e-05 1.84e-06 
     76 1 1.69e-06  370 2.93e-06 3.96e-05 9.07e-05 1.69e-06 
     77 1 1.51e-06  370 4.87e-06 8.01e-05 2.80e-05 1.51e-06 
     78 1 1.71e-06  370 4.98e-06 7.66e-06 7.91e-05 1.71e-06 
     79 1 1.79e-06  370 1.18e-05 5.61e-05 2.54e-05 1.79e-06 
     80 1 1.67e-06  370 5.36e-05 4.26e-05 4.75e-05 1.67e-06 
     81 1 1.40e-06  370 5.92e-05 1.41e-05 5.59e-05 1.40e-06 
     82 1 1.43e-06  370 8.67e-05 7.15e-06 6.43e-05 1.43e-06 
     83 1 1.56e-06  370 4.17e-05 6.73e-05 7.13e-05 1.56e-06 
     84 1 1.46e-06  370 9.24e-05 9.27e-05 4.02e-05 1.46e-06 
     85 1 1.39e-06  370 4.92e-05 8.07e-05 1.65e-05 1.39e-06 
     86 1 1.45e-06  370 5.68e-05 3.15e-05 9.62e-06 1.45e-06 
     87 1 1.53e-06  370 6.36e-05 6.69e-05 2.73e-05 1.53e-06 
     88 1 1.86e-06  370 3.67e-05 6.39e-05 9.73e-05 1.86e-06 
     89 1 1.70e-06  370 7.45e-05 5.19e-05 6.10e-05 1.70e-06 
     90 1 1.76e-06  370 7.57e-06 5.93e-05 6.21e-05 1.76e-06 
     91 1 1.54e-06  370 5.61e-05 9.11e-05 2.40e-05 1.54e-06 
     92 1 1.40e-06  370 5.00e-05 8.00e-05 6.46e-05 1.40e-06 
     93 1 1.55e-06  370 7.07e-05 2.32e-06 9.85e-06 1.55e-06 
     94 1 1.48e-06  370 2.35e-05 8.86e-06 8.57e-05 1.48e-06 
     95 1 1.40e-06  370 6.13e-05 1.31e-05 4.49e-05 1.40e-06 
     96 1 1.74e-06  370 3.40e-05 6.04e-05 9.40e-05 1.74e-06 
     97 1 1.82e-06  370 2.13e-06 1.23e-05 6.51e-05 1.82e-06 
     98 1 1.81e-06  370 5.95e-05 9.40e-05 3.37e-05 1.81e-06 
     99 1 1.75e-06  370 5.63e-05 2.25e-05 3.65e-05 1.75e-06 
     100 1 1.45e-06  370 5.81e-05 8.17e-05 4.81e-05 1.45e-06 

 Nutrients 

     1 sub g nn nn nn 1.00e-01 1.00e-01 
     2 o2 l nn nn nd 9.00e-03 9.00e-03 
     3 suc l nn nn nn 3.42e-20 3.42e-20 
     4 co2 l nn nn nd 2.99e-02 2.99e-02 

 Type Name 

     1 cyano  
     2 ecw  

 Diffusion Coeffs 

     sub 0 
     o2 2.3e-09 
     suc 5.2e-10 
     co2 1.9e-09 

 Growth Rate 

     cyano 1.89e-05 
     ecw 6.71e-05 

 Ks 

     cyano 0.00035 0.0002 0.01 0.000138 
     ecw 0 0.001 3.6 0.05 

 Yield 

     cyano 0.55 
     ecw 0.43 

 Maintenance 

     cyano 0 
     ecw 9.5e-07 

 Decay 

     cyano 0 
     ecw 0 



