LAMMPS (20 Nov 2019)
Reading data file ...
  orthogonal box = (0 0 0) to (0.0001 0.0001 0.0001)
  2 by 4 by 4 MPI processor grid
  reading atoms ...
  100 atoms
  4 nutrients
Lattice spacing in x,y,z = 100 100 100
100 atoms in group CYANO
0 atoms in group ECW
Model is defined as a closed system. 
Neighbor list info ...
  update every 1 steps, delay 0 steps, check yes
  max neighbors/atom: 5000, page size: 100000
  master list distance cutoff = 2.43e-06
  ghost atom cutoff = 2.43e-06
  binsize = 1.215e-06, bins = 83 83 83
  1 neighbor lists, perpetual/occasional/extra = 1 0 0
  (1) pair gran/hooke/history, perpetual
      attributes: half, newton off, size, history
      pair build: half/size/bin/newtoff
      stencil: half/bin/3d/newtoff
      bin: standard
Setting up Verlet run ...
  Unit style    : lj
  Current step  : 0
  Time step     : 10
Per MPI rank memory allocation (min/avg/max) = 5.852 | 9.288 | 10.91 Mbytes
Step CPU Atoms c_myNtypes[1] c_myNtypes[2] c_myMass[1] c_myMass[2] c_myCon[1] c_myCon[2] c_myCon[3] c_myCon[4] 
       0            0      100          100            0 9.082804e-14            0          0.1        0.009     3.42e-20       0.0299 
number of iterations: 123089 
     100    1.3731926      100          100            0 9.2408992e-14            0          0.1 0.0090011606 1.5948254e-05  0.029898068 
number of iterations: 109214 
     200    2.5064648      100          100            0 9.4017462e-14            0          0.1 0.0090011808 4.0296466e-05  0.029898034 
number of iterations: 97787 
     300    3.5583686      100          100            0 9.5653929e-14            0          0.1 0.0090012014 7.7297532e-05     0.029898 
number of iterations: 87571 
     400    4.4852637      102          102            0 9.731888e-14            0          0.1 0.0090012223 0.00013335229  0.029897965 
number of iterations: 78030 
     500    5.3231655      103          103            0 9.9012811e-14            0          0.1 0.0090012436 0.00021812563  0.029897929 
number of iterations: 68870 
     600    6.0690394      106          106            0 1.0073623e-13            0          0.1 0.0090012652 0.00034635751  0.029897893 
number of iterations: 59886 
     700    6.7346114      109          109            0 1.0248964e-13            0          0.1 0.0090012872 0.00054100477  0.029897857 
number of iterations: 50623 
     800    7.2838859      112          112            0 1.0427357e-13            0          0.1 0.0090013001 0.00084013151  0.029897835 
number of iterations: 41106 
     900    7.7628351      112          112            0 1.0608856e-13            0          0.1 0.0090013227 0.0013137335  0.029897798 
number of iterations: 29559 
    1000    8.1373446      112          112            0 1.0793513e-13            0          0.1 0.0090013458 0.0021517449  0.029897759 
number of iterations: 22756 
    1100    8.4438514      114          114            0 1.0981385e-13            0          0.1 0.0090013692 0.0033507821   0.02989772 
number of iterations: 18011 
    1200    8.7065637      116          116            0 1.1172527e-13            0          0.1  0.009001393 0.0049166156  0.029897681 
number of iterations: 16905 
    1300    8.9488788      117          117            0 1.1366996e-13            0          0.1 0.0090014173 0.0068828803   0.02989764 
number of iterations: 16960 
    1400    9.1848503      121          121            0 1.156485e-13            0          0.1 0.0090014419 0.0092741783  0.029897599 
number of iterations: 19046 
    1500    9.4383506      125          125            0 1.1766147e-13            0          0.1 0.0090014747  0.012113057  0.029897545 
number of iterations: 17215 
    1600    9.6686633      126          126            0 1.1970949e-13            0          0.1 0.0090015008    0.0153864  0.029897501 
number of iterations: 17177 
    1700    9.8940187      129          129            0 1.2179315e-13            0          0.1  0.009001527  0.019107409  0.029897458 
number of iterations: 17232 
    1800    10.151859      130          130            0 1.2391308e-13            0          0.1 0.0090015535  0.023292259  0.029897413 
number of iterations: 17288 
    1900    10.384218      132          132            0 1.2606991e-13            0          0.1 0.0090015806  0.027977018  0.029897368 
number of iterations: 17343 
    2000    10.606794      134          134            0 1.2826428e-13            0          0.1 0.0090016081  0.033038757  0.029897322 
number of iterations: 17399 
    2100    10.827684      136          136            0 1.3049684e-13            0          0.1 0.0090016361  0.038373367  0.029897276 
number of iterations: 17454 
    2200    11.045889      137          137            0 1.3276827e-13            0          0.1 0.0090016646  0.043946071  0.029897228 
number of iterations: 17510 
    2300    11.266625      140          140            0 1.3507923e-13            0          0.1 0.0090016935   0.04974266   0.02989718 
number of iterations: 17566 
    2400    11.486509      142          142            0 1.3743042e-13            0          0.1  0.009001723  0.055761351  0.029897131 
number of iterations: 17621 
    2500    11.710351      145          145            0 1.3982253e-13            0          0.1  0.009001753  0.062000976  0.029897081 
number of iterations: 17677 
    2600     11.92995      147          147            0 1.4225628e-13            0          0.1 0.0090017835  0.068461406   0.02989703 
number of iterations: 17787 
    2700    12.150275      149          149            0 1.4473239e-13            0          0.1 0.0090018152  0.075143307  0.029896978 
number of iterations: 17789 
    2800      12.3712      150          150            0 1.472516e-13            0          0.1 0.0090018468  0.082046913  0.029896925 
number of iterations: 17844 
    2900    12.594844      152          152            0 1.4981466e-13            0          0.1  0.009001879  0.089172769  0.029896871 
number of iterations: 17900 
    3000    12.817956      152          152            0 1.5242233e-13            0          0.1 0.0090019117   0.09652365  0.029896817 
number of iterations: 17955 
    3100    13.039512      153          153            0 1.5507539e-13            0          0.1 0.0090019449   0.10410086  0.029896762 
number of iterations: 18011 
    3200     13.29015      153          153            0 1.5777463e-13            0          0.1 0.0090019788    0.1119062  0.029896705 
number of iterations: 18066 
    3300    13.515104      153          153            0 1.6052085e-13            0          0.1 0.0090020132   0.11994214  0.029896648 
number of iterations: 18122 
    3400    13.738454      155          155            0 1.6331488e-13            0          0.1 0.0090020483   0.12821076  0.029896589 
number of iterations: 18177 
    3500    13.961021      156          156            0 1.6615753e-13            0          0.1 0.0090020839   0.13671496   0.02989653 
number of iterations: 18233 
    3600    14.184787      157          157            0 1.6904967e-13            0          0.1 0.0090021202   0.14545739   0.02989647 
number of iterations: 18288 
    3700    14.408447      157          157            0 1.7199214e-13            0          0.1 0.0090021571   0.15444169  0.029896408 
number of iterations: 18344 
    3800    14.632144      160          160            0 1.7498584e-13            0          0.1 0.0090021947   0.16366998  0.029896346 
number of iterations: 18571 
    3900    14.859353      165          165            0 1.7803164e-13            0          0.1 0.0090022335   0.17314689  0.029896281 
number of iterations: 18458 
    4000    15.086421      168          168            0 1.8113045e-13            0          0.1 0.0090022724   0.18287402  0.029896216 
number of iterations: 18514 
    4100     15.31205      170          170            0 1.842832e-13            0          0.1 0.0090023119   0.19285721  0.029896151 
number of iterations: 16548 
    4200    15.516925      177          177            0 1.8749083e-13            0          0.1 0.0090023424   0.20309134    0.0298961 
number of iterations: 18599 
    4300    15.743914      180          180            0 1.907543e-13            0          0.1 0.0090023832   0.21358871  0.029896032 
number of iterations: 18655 
    4400    15.971304      185          185            0 1.9407456e-13            0          0.1 0.0090024246   0.22435338  0.029895963 
number of iterations: 18710 
    4500    16.199605      188          188            0 1.9745262e-13            0          0.1 0.0090024668   0.23538754  0.029895893 
number of iterations: 19309 
    4600    16.434275      192          192            0 2.0088948e-13            0          0.1 0.0090025128   0.24669683  0.029895816 
number of iterations: 18712 
    4700    16.661553      198          198            0 2.0438615e-13            0          0.1 0.0090025504   0.25828473  0.029895753 
number of iterations: 18885 
    4800    16.892543      206          206            0 2.0794369e-13            0          0.1 0.0090025948   0.27015518  0.029895679 
number of iterations: 18940 
    4900    17.122911      212          212            0 2.1156316e-13            0          0.1   0.00900264   0.28231561  0.029895604 
number of iterations: 18996 
    5000    17.355142      215          215            0 2.1524562e-13            0          0.1 0.0090026859   0.29476749  0.029895528 
number of iterations: 19052 
    5100    17.586917      215          215            0 2.1899218e-13            0          0.1 0.0090027327    0.3075183   0.02989545 
number of iterations: 19410 
    5200     17.82271      218          218            0 2.2280396e-13            0          0.1 0.0090027892   0.32057278  0.029895356 
number of iterations: 18439 
    5300    18.046501      228          228            0 2.2668208e-13            0          0.1  0.009002832   0.33393397  0.029895285 
number of iterations: 19212 
    5400    18.281234      235          235            0 2.306277e-13            0          0.1 0.0090028813   0.34760807  0.029895203 
number of iterations: 19268 
    5500    18.515132      238          238            0  2.34642e-13            0          0.1 0.0090029314   0.36160046  0.029895119 
number of iterations: 19191 
    5600    18.748274      242          242            0 2.3872617e-13            0          0.1 0.0090029797   0.37591646  0.029895039 
number of iterations: 19377 
    5700    18.983927      245          245            0 2.4288143e-13            0          0.1 0.0090030316   0.39051159  0.029894952 
number of iterations: 19432 
    5800    19.220846      253          253            0 2.4710902e-13            0          0.1 0.0090030844   0.40536076  0.029894864 
number of iterations: 19488 
    5900    19.456251      256          256            0 2.514102e-13            0          0.1 0.0090031381    0.4204684  0.029894775 
number of iterations: 20500 
    6000    19.708463      264          264            0 2.5578624e-13            0          0.1  0.009003203   0.43583899  0.029894667 
number of iterations: 19618 
    6100    19.947722      266          266            0 2.6023845e-13            0          0.1 0.0090032587   0.45147713  0.029894574 
number of iterations: 19674 
    6200    20.227358      270          270            0 2.6476815e-13            0          0.1 0.0090033155   0.46738746   0.02989448 
number of iterations: 19545 
    6300    20.465576      274          274            0 2.693767e-13            0          0.1 0.0090033671   0.48357472  0.029894394 
number of iterations: 19782 
    6400    20.708866      275          275            0 2.7406546e-13            0          0.1 0.0090034257   0.50004373  0.029894296 
number of iterations: 19803 
    6500    20.950732      280          280            0 2.7883584e-13            0          0.1 0.0090034827   0.51679941  0.029894201 
number of iterations: 19493 
    6600    21.187981      284          284            0 2.8368925e-13            0          0.1 0.0090035352   0.53384671  0.029894114 
number of iterations: 19941 
    6700    21.431829      286          286            0 2.8862713e-13            0          0.1 0.0090035968   0.55119371  0.029894011 
number of iterations: 19997 
    6800    21.674271      289          289            0 2.9365097e-13            0          0.1 0.0090036594   0.56884265  0.029893907 
number of iterations: 20052 
    6900    21.920111      296          296            0 2.9876225e-13            0          0.1 0.0090037231   0.58679879  0.029893801 
number of iterations: 20108 
    7000    22.166403      301          301            0 3.039625e-13            0          0.1 0.0090037879   0.60506748  0.029893693 
number of iterations: 20178 
    7100    22.412731      304          304            0 3.0925326e-13            0          0.1  0.009003855   0.62365415  0.029893581 
number of iterations: 20219 
    7200    22.661346      308          308            0 3.1463611e-13            0          0.1 0.0090039221   0.64256433  0.029893469 
number of iterations: 20406 
    7300    22.910498      311          311            0 3.2011266e-13            0          0.1 0.0090039913   0.66180367  0.029893354 
number of iterations: 20945 
    7400    23.191879      315          315            0 3.2568453e-13            0          0.1 0.0090040688   0.68137789  0.029893225 
number of iterations: 19645 
    7500    23.435738      317          317            0 3.3135339e-13            0          0.1 0.0090041314   0.70129281  0.029893121 
number of iterations: 21221 
    7600    23.698303      323          323            0 3.3712091e-13            0          0.1 0.0090042117   0.72155439  0.029892987 
number of iterations: 20514 
    7700    23.952172      330          330            0 3.4298883e-13            0          0.1  0.009004285   0.74216864  0.029892865 
number of iterations: 21179 
    7800    24.213831      334          334            0 3.4895888e-13            0          0.1 0.0090043682   0.76314171  0.029892727 
number of iterations: 20637 
    7900    24.464109      338          338            0 3.5503285e-13            0          0.1 0.0090044443   0.78447984    0.0298926 
number of iterations: 20693 
    8000    24.718309      344          344            0 3.6121254e-13            0          0.1 0.0090045216   0.80618938  0.029892471 
number of iterations: 20236 
    8100    24.965875      348          348            0 3.6749979e-13            0          0.1 0.0090045959   0.82827679  0.029892347 
number of iterations: 20796 
    8200    25.219997      358          358            0 3.7389648e-13            0          0.1 0.0090046763   0.85074867  0.029892213 
number of iterations: 20851 
    8300    25.474182      364          364            0 3.8040451e-13            0          0.1 0.0090047577   0.87361168  0.029892078 
number of iterations: 21027 
    8400    25.730054      373          373            0 3.8702582e-13            0          0.1 0.0090048402   0.89687265  0.029891941 
number of iterations: 20407 
    8500    25.976992      379          379            0 3.9376237e-13            0          0.1  0.009004919   0.92053849  0.029891809 
number of iterations: 21011 
    8600    26.236024      383          383            0 4.0061619e-13            0          0.1 0.0090050047   0.94461627  0.029891667 
number of iterations: 20966 
    8700     26.48909      396          396            0 4.075893e-13            0          0.1  0.009005091   0.96911313  0.029891523 
Loop time of 26.4891 on 32 procs for 8700 steps with 396 atoms

Performance: 283769484.861 tau/day, 328.437 timesteps/s
98.8% CPU use with 32 MPI tasks x no OpenMP threads

MPI task timing breakdown:
Section |  min time  |  avg time  |  max time  |%varavg| %total
---------------------------------------------------------------
Pair    | 0.0004058  | 0.0021472  | 0.0055058  |   3.0 |  0.01
Neigh   | 0.0010679  | 0.0019917  | 0.0045906  |   1.8 |  0.01
Comm    | 0.010458   | 0.026268   | 0.050981   |   7.3 |  0.10
Output  | 0.78164    | 0.78212    | 0.78322    |   0.0 |  2.95
Modify  | 25.621     | 25.625     | 25.631     |   0.0 | 96.74
Other   |            | 0.05137    |            |       |  0.19

Nlocal:    12.375 ave 40 max 0 min
Histogram: 8 4 4 7 2 1 1 2 2 1
Nghost:    4.4375 ave 16 max 0 min
Histogram: 12 7 3 0 2 0 4 1 2 1
Neighs:    12.125 ave 41 max 0 min
Histogram: 10 3 5 5 3 1 2 1 1 1

Total # of neighbors = 388
Ave neighs/atom = 0.979798
Neighbor list builds = 103
Dangerous builds = 0
Total wall time: 0:00:26
