LAMMPS (20 Nov 2019)
Reading data file ...
  orthogonal box = (0 0 0) to (0.001 0.001 0.0001)
  2 by 3 by 1 MPI processor grid
  reading atoms ...
  2 atoms
  4 nutrients
Lattice spacing in x,y,z = 100 100 100
1 atoms in group CYANO
1 atoms in group ECW
Model is defined as a closed system. 
Neighbor list info ...
  update every 1 steps, delay 0 steps, check yes
  max neighbors/atom: 5000, page size: 100000
  master list distance cutoff = 1.89e-06
  ghost atom cutoff = 1.89e-06
  binsize = 9.45e-07, bins = 1059 1059 106
  1 neighbor lists, perpetual/occasional/extra = 1 0 0
  (1) pair gran/hooke/history, perpetual
      attributes: half, newton off, size, history
      pair build: half/size/bin/newtoff
      stencil: half/bin/3d/newtoff
      bin: standard
Setting up Verlet run ...
  Unit style    : lj
  Current step  : 0
  Time step     : 10
Per MPI rank memory allocation (min/avg/max) = 84.25 | 92.35 | 108.5 Mbytes
Step CPU Atoms c_myNtypes[1] c_myNtypes[2] c_myMass[1] c_myMass[2] c_myCon[1] c_myCon[2] c_myCon[3] c_myCon[4] 
       0            0        2            1            1 5.2028912e-16 1.3941014e-16          0.1        0.009     3.42e-20       0.0299 
number of iterations: 578268 
     100    3.3745277        3            1            2 5.2906561e-16 1.3929094e-16          0.1 0.0090000007 2.9740299e-08  0.029899999 
number of iterations: 265337 
     200     4.868573        3            1            2 5.3799014e-16 1.3917185e-16          0.1 0.0090000007 1.2273938e-07  0.029899999 
number of iterations: 172174 
     300     5.920167        3            1            2 5.4706522e-16 1.3905286e-16          0.1 0.0090000007 2.6791851e-07  0.029899999 
number of iterations: 147091 
     400    6.8819866        3            1            2 5.5629337e-16 1.3893397e-16          0.1 0.0090000007 4.3528028e-07  0.029899999 
number of iterations: 128084 
     500    7.7121205        3            1            2 5.656772e-16 1.3881518e-16          0.1 0.0090000007 6.230081e-07  0.029899999 
number of iterations: 113083 
     600     8.478196        3            1            2 5.7521931e-16 1.3869649e-16          0.1 0.0090000008 8.2964786e-07  0.029899999 
number of iterations: 100863 
     700    9.1976561        3            1            2 5.8492239e-16 1.3857791e-16          0.1 0.0090000008 1.0540426e-06  0.029899999 
number of iterations: 90654 
     800    9.8020695        3            1            2 5.9478914e-16 1.3845943e-16          0.1 0.0090000008 1.2952732e-06  0.029899999 
number of iterations: 81957 
     900    10.364349        3            1            2 6.0482232e-16 1.3834105e-16          0.1 0.0090000008 1.5525968e-06  0.029899999 
number of iterations: 74424 
    1000    11.308339        3            1            2 6.1502476e-16 1.3822277e-16          0.1 0.0090000008 1.8254185e-06  0.029899999 
number of iterations: 67812 
    1100    11.771189        3            1            2 6.2539929e-16 1.3810459e-16          0.1 0.0090000008 2.1132555e-06  0.029899999 
number of iterations: 61944 
    1200    12.207336        3            1            2 6.3594882e-16 1.3798652e-16          0.1 0.0090000008 2.4157146e-06  0.029899999 
number of iterations: 56688 
    1300    12.616478        3            1            2 6.4667631e-16 1.3786855e-16          0.1 0.0090000009 2.7324744e-06  0.029899999 
number of iterations: 51939 
    1400    12.986821        3            1            2 6.5758476e-16 1.3775068e-16          0.1 0.0090000009 3.0632807e-06  0.029899999 
number of iterations: 47622 
    1500    13.348719        3            1            2 6.6867721e-16 1.3763291e-16          0.1 0.0090000009 3.407922e-06  0.029899999 
number of iterations: 43672 
    1600    13.694393        3            1            2 6.7995678e-16 1.3751524e-16          0.1 0.0090000009 3.7662336e-06  0.029899999 
number of iterations: 40039 
    1700    13.994424        3            1            2 6.9142662e-16 1.3739767e-16          0.1 0.0090000009 4.1380865e-06  0.029899999 
number of iterations: 36682 
    1800    14.302258        3            1            2 7.0308993e-16 1.3728021e-16          0.1 0.0090000009 4.5233829e-06  0.029899998 
number of iterations: 33567 
    1900    14.581235        3            1            2 7.1494999e-16 1.3716284e-16          0.1  0.009000001 4.9220524e-06  0.029899998 
number of iterations: 30666 
    2000    15.233782        3            1            2 7.2701011e-16 1.3704558e-16          0.1  0.009000001 5.3340481e-06  0.029899998 
number of iterations: 27955 
    2100    15.487668        3            1            2 7.3927366e-16 1.3692842e-16          0.1  0.009000001 5.7593448e-06  0.029899998 
number of iterations: 25414 
    2200    15.727937        3            1            2 7.5174408e-16 1.3681136e-16          0.1  0.009000001 6.1979361e-06  0.029899998 
number of iterations: 23026 
    2300    15.949917        3            1            2 7.6442486e-16 1.366944e-16          0.1  0.009000001 6.6498319e-06  0.029899998 
number of iterations: 20777 
    2400    16.174665        3            1            2 7.7731955e-16 1.3657754e-16          0.1  0.009000001 7.1150556e-06  0.029899998 
number of iterations: 18653 
    2500    16.374026        3            1            2 7.9043174e-16 1.3646078e-16          0.1 0.0090000011 7.5936473e-06  0.029899998 
number of iterations: 16643 
    2600    16.576731        3            1            2 8.0376512e-16 1.3634412e-16          0.1 0.0090000011 8.0856598e-06  0.029899998 
number of iterations: 14738 
    2700    16.787821        3            1            2 8.1732342e-16 1.3622757e-16          0.1 0.0090000011 8.5911553e-06  0.029899998 
number of iterations: 12927 
    2800    16.967061        3            1            2 8.3111042e-16 1.3611111e-16          0.1 0.0090000011 9.1102138e-06  0.029899998 
number of iterations: 11205 
    2900    17.148689        3            1            2 8.4512999e-16 1.3599476e-16          0.1 0.0090000011 9.6429181e-06  0.029899998 
number of iterations: 9565 
    3000    17.760361        3            1            2 8.5938605e-16 1.3587851e-16          0.1 0.0090000012 1.0189361e-05  0.029899998 
number of iterations: 7999 
    3100    17.925718        3            1            2 8.7388258e-16 1.3576235e-16          0.1 0.0090000012 1.0749651e-05  0.029899998 
number of iterations: 7626 
    3200    18.093842        3            1            2 8.8862365e-16 1.356463e-16          0.1 0.0090000012 1.1323897e-05  0.029899998 
number of iterations: 7710 
    3300    18.237971        3            1            2 9.0361338e-16 1.3553035e-16          0.1 0.0090000012 1.191222e-05  0.029899998 
number of iterations: 7794 
    3400    18.372642        3            1            2 9.1885596e-16 1.354145e-16          0.1 0.0090000012 1.2514749e-05  0.029899998 
number of iterations: 7879 
    3500    18.506955        3            1            2 9.3435567e-16 1.3529875e-16          0.1 0.0090000013 1.3131621e-05  0.029899998 
number of iterations: 7965 
    3600    18.642361        3            1            2 9.5011682e-16 1.351831e-16          0.1 0.0090000013 1.3762981e-05  0.029899998 
number of iterations: 8051 
    3700    18.786135        3            1            2 9.6614385e-16 1.3506755e-16          0.1 0.0090000013 1.4408703e-05  0.029899998 
number of iterations: 8138 
    3800    18.917551        3            1            2 9.8244123e-16 1.349521e-16          0.1 0.0090000013 1.5065317e-05  0.029899998 
number of iterations: 8225 
    3900    19.062126        3            1            2 9.9901352e-16 1.3483675e-16          0.1 0.0090000013 1.5733007e-05  0.029899998 
number of iterations: 8313 
    4000    19.598244        3            1            2 1.0158654e-15 1.347215e-16          0.1 0.0090000014 1.641196e-05  0.029899998 
number of iterations: 8402 
    4100    19.734106        3            1            2 1.0330015e-15 1.3460635e-16          0.1 0.0090000014 1.7102366e-05  0.029899998 
number of iterations: 8491 
    4200    19.864138        3            1            2 1.0504266e-15 1.344913e-16          0.1 0.0090000014 1.7804418e-05  0.029899998 
number of iterations: 8580 
    4300    19.990298        3            1            2 1.0681457e-15 1.3437635e-16          0.1 0.0090000014 1.8518313e-05  0.029899998 
number of iterations: 8671 
    4400    20.131007        3            1            2 1.0861637e-15 1.342615e-16          0.1 0.0090000015 1.924425e-05  0.029899998 
number of iterations: 8762 
    4500    20.276984        3            1            2 1.1044856e-15 1.3414675e-16          0.1 0.0090000015 1.9982432e-05  0.029899998 
number of iterations: 8853 
    4600     20.40563        3            1            2 1.1231166e-15 1.340321e-16          0.1 0.0090000015 2.0733066e-05  0.029899998 
number of iterations: 8945 
    4700    20.564086        3            1            2 1.1420619e-15 1.3391754e-16          0.1 0.0090000015 2.1496363e-05  0.029899997 
number of iterations: 9037 
    4800    20.702937        3            1            2 1.1613267e-15 1.3380309e-16          0.1 0.0090000016 2.2272534e-05  0.029899997 
number of iterations: 9130 
    4900    20.842004        3            1            2 1.1809166e-15 1.3368874e-16          0.1 0.0090000016 2.3061799e-05  0.029899997 
number of iterations: 9224 
    5000    21.382142        3            1            2 1.2008368e-15 1.3357449e-16          0.1 0.0090000016 2.3864378e-05  0.029899997 
number of iterations: 9318 
    5100    21.522022        3            1            2 1.2210931e-15 1.3346034e-16          0.1 0.0090000016 2.4680494e-05  0.029899997 
number of iterations: 9413 
    5200     21.66523        3            1            2 1.2416911e-15 1.3334628e-16          0.1 0.0090000017 2.5510378e-05  0.029899997 
number of iterations: 9508 
    5300    21.811172        3            1            2 1.2626365e-15 1.3323233e-16          0.1 0.0090000017 2.635426e-05  0.029899997 
number of iterations: 9604 
    5400    21.960702        3            1            2 1.2839353e-15 1.3311847e-16          0.1 0.0090000017 2.7212377e-05  0.029899997 
number of iterations: 9700 
    5500    22.113214        3            1            2 1.3055933e-15 1.3300472e-16          0.1 0.0090000018 2.8084969e-05  0.029899997 
number of iterations: 9797 
    5600     22.24996        3            1            2 1.3276167e-15 1.3289106e-16          0.1 0.0090000018 2.8972285e-05  0.029899997 
number of iterations: 9895 
    5700    22.393417        3            1            2 1.3500116e-15 1.3277751e-16          0.1 0.0090000018 2.9874569e-05  0.029899997 
number of iterations: 9992 
    5800    22.563271        3            1            2 1.3727842e-15 1.3266405e-16          0.1 0.0090000019 3.0792073e-05  0.029899997 
number of iterations: 10091 
    5900    22.721493        3            1            2 1.395941e-15 1.3255069e-16          0.1 0.0090000019 3.1725053e-05  0.029899997 
number of iterations: 10190 
    6000    23.267735        3            1            2 1.4194884e-15 1.3243743e-16          0.1 0.0090000019 3.2673772e-05  0.029899997 
number of iterations: 10290 
    6100    23.405182        3            1            2 1.443433e-15 1.3232427e-16          0.1  0.009000002 3.3638494e-05  0.029899997 
number of iterations: 10390 
    6200    23.547909        3            1            2 1.4677815e-15 1.322112e-16          0.1  0.009000002 3.461949e-05  0.029899997 
number of iterations: 31378 
    6300    23.862099        4            2            2 1.4925408e-15 1.3209824e-16          0.1 0.0090000019 3.561703e-05  0.029899997 
number of iterations: 6411 
    6400    23.974468        4            2            2 1.5177177e-15 1.3198537e-16          0.1 0.0090000019 3.6631397e-05  0.029899997 
number of iterations: 7843 
    6500    24.107424        4            2            2 1.5433192e-15 1.3187261e-16          0.1 0.0090000019 3.7662875e-05  0.029899997 
number of iterations: 8200 
    6600    24.245656        4            2            2 1.5693527e-15 1.3175994e-16          0.1 0.0090000019 3.8711753e-05  0.029899997 
number of iterations: 8420 
    6700    24.370339        4            2            2 1.5958253e-15 1.3164737e-16          0.1  0.009000002 3.9778323e-05  0.029899997 
number of iterations: 8573 
    6800    24.503975        4            2            2 1.6227444e-15 1.315349e-16          0.1  0.009000002 4.0862885e-05  0.029899997 
number of iterations: 8696 
    6900    24.635015        4            2            2 1.6501177e-15 1.3142253e-16          0.1  0.009000002 4.1965742e-05  0.029899997 
number of iterations: 8803 
    7000    25.159983        4            2            2 1.6779526e-15 1.3131025e-16          0.1 0.0090000021 4.3087202e-05  0.029899997 
number of iterations: 8905 
    7100    25.298598        4            2            2 1.7062571e-15 1.3119808e-16          0.1 0.0090000021 4.422758e-05  0.029899997 
number of iterations: 9004 
    7200    25.433215        4            2            2 1.7350391e-15  1.31086e-16          0.1 0.0090000021 4.5387194e-05  0.029899997 
number of iterations: 9101 
    7300    25.571006        4            2            2 1.7643066e-15 1.3097402e-16          0.1 0.0090000022 4.6566369e-05  0.029899996 
number of iterations: 9198 
    7400    25.704506        4            2            2 1.7940677e-15 1.3086214e-16          0.1 0.0090000022 4.7765435e-05  0.029899996 
number of iterations: 9296 
    7500    25.865712        4            2            2 1.8243309e-15 1.3075036e-16          0.1 0.0090000022 4.8984727e-05  0.029899996 
number of iterations: 9393 
    7600    26.004507        4            2            2 1.8551046e-15 1.3063868e-16          0.1 0.0090000023 5.0224587e-05  0.029899996 
number of iterations: 9491 
    7700    26.146627        4            2            2 1.8863974e-15 1.3052709e-16          0.1 0.0090000023 5.1485361e-05  0.029899996 
number of iterations: 9590 
    7800    26.287997        4            2            2 1.9182181e-15 1.304156e-16          0.1 0.0090000024 5.2767403e-05  0.029899996 
number of iterations: 9689 
    7900    26.428761        4            2            2 1.9505755e-15 1.3030421e-16          0.1 0.0090000024 5.4071071e-05  0.029899996 
number of iterations: 9789 
    8000    26.982662        4            2            2 1.9834787e-15 1.3019292e-16          0.1 0.0090000024 5.5396729e-05  0.029899996 
number of iterations: 9889 
    8100    27.137908        4            2            2 2.016937e-15 1.3008173e-16          0.1 0.0090000025 5.674475e-05  0.029899996 
number of iterations: 9990 
    8200    27.280054        4            2            2 2.0509597e-15 1.2997063e-16          0.1 0.0090000025 5.8115509e-05  0.029899996 
number of iterations: 10092 
    8300    27.442427        4            2            2 2.0855562e-15 1.2985963e-16          0.1 0.0090000026 5.9509391e-05  0.029899996 
number of iterations: 10194 
    8400    27.589242        4            2            2 2.1207364e-15 1.2974873e-16          0.1 0.0090000026 6.0926786e-05  0.029899996 
number of iterations: 10297 
    8500    27.724953        4            2            2  2.15651e-15 1.2963793e-16          0.1 0.0090000027 6.236809e-05  0.029899996 
number of iterations: 10400 
    8600    27.873204        4            2            2 2.192887e-15 1.2952723e-16          0.1 0.0090000027 6.3833706e-05  0.029899996 
number of iterations: 10504 
    8700    28.027566        4            2            2 2.2298777e-15 1.2941662e-16          0.1 0.0090000028 6.5324046e-05  0.029899995 
number of iterations: 10608 
    8800    28.177833        4            2            2 2.2674923e-15 1.2930611e-16          0.1 0.0090000028 6.6839525e-05  0.029899995 
number of iterations: 10713 
    8900    28.328458        4            2            2 2.3057415e-15 1.291957e-16          0.1 0.0090000029 6.8380567e-05  0.029899995 
number of iterations: 10819 
    9000    28.868268        4            2            2 2.3446358e-15 1.2908538e-16          0.1 0.0090000029 6.9947605e-05  0.029899995 
number of iterations: 10925 
    9100    29.017102        4            2            2 2.3841863e-15 1.2897517e-16          0.1 0.0090000029 7.1541077e-05  0.029899995 
number of iterations: 11031 
    9200    29.181376        4            2            2 2.4244039e-15 1.2886505e-16          0.1  0.009000003 7.3161427e-05  0.029899995 
number of iterations: 11139 
    9300    29.341324        4            2            2 2.4652999e-15 1.2875503e-16          0.1 0.0090000031 7.4809111e-05  0.029899995 
number of iterations: 11246 
    9400    29.493286        4            2            2 2.5068857e-15 1.286451e-16          0.1 0.0090000031 7.6484588e-05  0.029899995 
number of iterations: 11355 
    9500    29.641571        4            2            2 2.5491731e-15 1.2853528e-16          0.1 0.0090000032 7.8188329e-05  0.029899995 
number of iterations: 11464 
    9600     29.80589        5            3            2 2.5921737e-15 1.2842555e-16          0.1 0.0090000032 7.9920808e-05  0.029899995 
number of iterations: 11573 
    9700    29.961697        5            3            2 2.6358998e-15 1.2831591e-16          0.1 0.0090000033 8.1682512e-05  0.029899995 
number of iterations: 11683 
    9800    30.118624        5            3            2 2.6803634e-15 1.2820638e-16          0.1 0.0090000033 8.3473934e-05  0.029899995 
number of iterations: 11794 
    9900    30.277061        5            3            2 2.725577e-15 1.2809694e-16          0.1 0.0090000034 8.5295573e-05  0.029899994 
number of iterations: 11905 
   10000    30.842992        5            3            2 2.7715534e-15 1.279876e-16          0.1 0.0090000034 8.7147942e-05  0.029899994 
number of iterations: 12016 
   10100    30.991058        5            3            2 2.8183053e-15 1.2787836e-16          0.1 0.0090000035 8.9031556e-05  0.029899994 
number of iterations: 12128 
   10200    31.149671        5            3            2 2.8658458e-15 1.2776922e-16          0.1 0.0090000036 9.0946945e-05  0.029899994 
number of iterations: 12241 
   10300    31.306857        5            3            2 2.9141882e-15 1.2766017e-16          0.1 0.0090000036 9.2894643e-05  0.029899994 
number of iterations: 12354 
   10400    31.474433        5            3            2 2.9633462e-15 1.2755122e-16          0.1 0.0090000037 9.4875195e-05  0.029899994 
number of iterations: 12468 
   10500    31.639563        5            3            2 3.0133333e-15 1.2744237e-16          0.1 0.0090000037 9.6889157e-05  0.029899994 
number of iterations: 12582 
   10600    31.816171        5            3            2 3.0641636e-15 1.2733361e-16          0.1 0.0090000038 9.8937091e-05  0.029899994 
number of iterations: 12697 
   10700    31.990861        5            3            2 3.1158514e-15 1.2722495e-16          0.1 0.0090000039 0.00010101957  0.029899994 
number of iterations: 12812 
   10800    32.157882        5            3            2 3.1684111e-15 1.2711639e-16          0.1 0.0090000039 0.00010313718  0.029899994 
number of iterations: 12928 
   10900    32.323744        5            3            2 3.2218574e-15 1.2700792e-16          0.1  0.009000004 0.00010529051  0.029899993 
number of iterations: 13044 
   11000    32.892103        5            3            2 3.2762052e-15 1.2689956e-16          0.1 0.0090000041 0.00010748016  0.029899993 
number of iterations: 13161 
   11100    33.077301        5            3            2 3.3314698e-15 1.2679129e-16          0.1 0.0090000041 0.00010970675  0.029899993 
number of iterations: 13278 
   11200    33.257759        5            3            2 3.3876666e-15 1.2668311e-16          0.1 0.0090000042 0.00011197089  0.029899993 
number of iterations: 13396 
   11300    33.430131        5            3            2 3.4448114e-15 1.2657504e-16          0.1 0.0090000043 0.00011427323  0.029899993 
number of iterations: 29487 
   11400     33.75063        6            4            2 3.5029201e-15 1.2646706e-16          0.1 0.0090000043 0.00011661441  0.029899993 
number of iterations: 13958 
   11500    33.928303        6            4            2 3.5620091e-15 1.2635918e-16          0.1 0.0090000043 0.00011899507  0.029899993 
number of iterations: 14668 
   11600     34.11533        6            4            2 3.6220947e-15 1.2625139e-16          0.1 0.0090000044 0.0001214159  0.029899993 
number of iterations: 14945 
   11700    34.307605        6            4            2 3.683194e-15 1.261437e-16          0.1 0.0090000044 0.00012387756  0.029899993 
number of iterations: 15109 
   11800    34.502191        6            4            2 3.7453238e-15 1.2603611e-16          0.1 0.0090000045 0.00012638074  0.029899993 
number of iterations: 15243 
   11900     34.68734        6            4            2 3.8085017e-15 1.2592862e-16          0.1 0.0090000046 0.00012892615  0.029899992 
number of iterations: 15367 
   12000    35.298005        6            4            2 3.8727454e-15 1.2582122e-16          0.1 0.0090000047 0.0001315145  0.029899992 
number of iterations: 15489 
   12100     35.49134        6            4            2 3.9380727e-15 1.2571392e-16          0.1 0.0090000047 0.00013414651  0.029899992 
number of iterations: 15611 
   12200    35.676908        6            4            2 4.004502e-15 1.2560672e-16          0.1 0.0090000048 0.00013682291  0.029899992 
number of iterations: 15733 
   12300     35.87874        6            4            2 4.0720518e-15 1.2549961e-16          0.1 0.0090000049 0.00013954447  0.029899992 
number of iterations: 15855 
   12400    36.057247        6            4            2 4.1407412e-15 1.2539261e-16          0.1  0.009000005 0.00014231193  0.029899992 
number of iterations: 15978 
   12500    36.251226        6            4            2 4.2105892e-15 1.2528569e-16          0.1 0.0090000051 0.00014512607  0.029899992 
number of iterations: 16101 
   12600    36.440912        6            4            2 4.2816154e-15 1.2517888e-16          0.1 0.0090000051 0.00014798769  0.029899991 
number of iterations: 16224 
   12700    36.631958        6            4            2 4.3538397e-15 1.2507216e-16          0.1 0.0090000052 0.00015089757  0.029899991 
number of iterations: 16348 
   12800    36.836832        6            4            2 4.4272824e-15 1.2496554e-16          0.1 0.0090000053 0.00015385654  0.029899991 
number of iterations: 16472 
   12900    37.042211        6            4            2 4.5019639e-15 1.2485902e-16          0.1 0.0090000054 0.00015686543  0.029899991 
number of iterations: 16596 
   13000     37.67056        6            4            2 4.5779052e-15 1.2475259e-16          0.1 0.0090000055 0.00015992507  0.029899991 
number of iterations: 16721 
   13100    37.877571        6            4            2 4.6551274e-15 1.2464627e-16          0.1 0.0090000056 0.00016303632  0.029899991 
number of iterations: 16846 
   13200    38.088681        6            4            2 4.7336524e-15 1.2454003e-16          0.1 0.0090000057 0.00016620005  0.029899991 
number of iterations: 16972 
   13300    38.286902        6            4            2 4.8135019e-15 1.244339e-16          0.1 0.0090000058 0.00016941715   0.02989999 
number of iterations: 17098 
   13400    38.475125        6            4            2 4.8946983e-15 1.2432786e-16          0.1 0.0090000059 0.00017268852   0.02989999 
number of iterations: 17224 
   13500     38.69958        7            5            2 4.9772644e-15 1.2422192e-16          0.1  0.009000006 0.00017601507   0.02989999 
number of iterations: 17351 
   13600    38.909475        7            5            2 5.0612233e-15 1.2411608e-16          0.1 0.0090000061 0.00017939773   0.02989999 
number of iterations: 17478 
   13700    39.123153        7            5            2 5.1465984e-15 1.2401033e-16          0.1 0.0090000062 0.00018283746   0.02989999 
number of iterations: 17605 
   13800     39.33661        7            5            2 5.2334137e-15 1.2390468e-16          0.1 0.0090000063 0.00018633521   0.02989999 
number of iterations: 17733 
   13900    39.541569        7            5            2 5.3216934e-15 1.2379913e-16          0.1 0.0090000064 0.00018989196  0.029899989 
number of iterations: 33841 
   14000    40.334807        8            6            2 5.4114623e-15 1.2369368e-16          0.1 0.0090000067 0.00019350871  0.029899989 
number of iterations: 15683 
   14100    40.523357        8            6            2 5.5027454e-15 1.2358832e-16          0.1 0.0090000068 0.00019718646  0.029899989 
number of iterations: 17361 
   14200    40.719225        8            6            2 5.5955684e-15 1.2348306e-16          0.1 0.0090000069 0.00020092626  0.029899989 
number of iterations: 17467 
   14300    40.939853        8            6            2 5.6899571e-15 1.233779e-16          0.1  0.009000007 0.00020472914  0.029899988 
number of iterations: 17591 
   14400    41.162472        8            6            2 5.785938e-15 1.2327284e-16          0.1 0.0090000071 0.00020859617  0.029899988 
number of iterations: 17720 
   14500    41.378568        8            6            2 5.883538e-15 1.2316787e-16          0.1 0.0090000073 0.00021252843  0.029899988 
number of iterations: 17852 
   14600    41.588876        8            6            2 5.9827843e-15  1.23063e-16          0.1 0.0090000074 0.00021652703  0.029899988 
number of iterations: 17984 
   14700    41.809732        8            6            2 6.0837048e-15 1.2295823e-16          0.1 0.0090000075 0.00022059307  0.029899988 
number of iterations: 18117 
   14800    42.027538        8            6            2 6.1863276e-15 1.2285355e-16          0.1 0.0090000076 0.0002247277  0.029899987 
number of iterations: 18250 
   14900    42.250954        8            6            2 6.2906815e-15 1.2274898e-16          0.1 0.0090000078 0.00022893208  0.029899987 
number of iterations: 18383 
   15000    42.865721        8            6            2 6.3967957e-15 1.226445e-16          0.1 0.0090000079 0.00023320737  0.029899987 
number of iterations: 18517 
   15100    43.085023        8            6            2 6.5046999e-15 1.2254012e-16          0.1  0.009000008 0.00023755479  0.029899987 
number of iterations: 18652 
   15200    43.302392        8            6            2 6.6144243e-15 1.2243583e-16          0.1 0.0090000082 0.00024197553  0.029899986 
number of iterations: 18786 
   15300    43.523377        8            6            2 6.7259996e-15 1.2233165e-16          0.1 0.0090000083 0.00024647085  0.029899986 
number of iterations: 18921 
   15400    43.737427        8            6            2 6.839457e-15 1.2222756e-16          0.1 0.0090000085  0.000251042  0.029899986 
number of iterations: 19057 
   15500    43.963246        8            6            2 6.9548282e-15 1.2212357e-16          0.1 0.0090000086 0.00025569026  0.029899986 
number of iterations: 19193 
   15600    44.172737       10            8            2 7.0721456e-15 1.2201968e-16          0.1 0.0090000087 0.00026041693  0.029899986 
number of iterations: 19329 
   15700    44.433822       10            8            2 7.1914419e-15 1.2191588e-16          0.1 0.0090000089 0.00026522333  0.029899985 
number of iterations: 19465 
   15800      44.6403       10            8            2 7.3127506e-15 1.2181219e-16          0.1  0.009000009 0.0002701108  0.029899985 
number of iterations: 19602 
   15900    44.881969       10            8            2 7.4361055e-15 1.2170859e-16          0.1 0.0090000092 0.00027508072  0.029899985 
number of iterations: 19740 
   16000    45.541836       10            8            2 7.5615413e-15 1.2160509e-16          0.1 0.0090000094 0.00028013447  0.029899985 
number of iterations: 19877 
   16100    45.757098       10            8            2 7.689093e-15 1.2150169e-16          0.1 0.0090000095 0.00028527348  0.029899984 
number of iterations: 20015 
   16200    45.978807       10            8            2 7.8187963e-15 1.2139839e-16          0.1 0.0090000097 0.00029049917  0.029899984 
number of iterations: 20153 
   16300    46.213878       10            8            2 7.9506875e-15 1.2129518e-16          0.1 0.0090000098 0.00029581301  0.029899984 
number of iterations: 20292 
   16400    46.450075       10            8            2 8.0848035e-15 1.2119208e-16          0.1   0.00900001 0.00030121648  0.029899983 
number of iterations: 20431 
   16500    46.682569       10            8            2 8.2211818e-15 1.2108907e-16          0.1 0.0090000102 0.00030671111  0.029899983 
number of iterations: 20570 
   16600    46.918093       10            8            2 8.3598606e-15 1.2098616e-16          0.1 0.0090000103 0.00031229842  0.029899983 
number of iterations: 20710 
   16700    47.158336       10            8            2 8.5008787e-15 1.2088335e-16          0.1 0.0090000105 0.00031797998  0.029899983 
number of iterations: 20850 
   16800    47.380269       10            8            2 8.6442756e-15 1.2078064e-16          0.1 0.0090000107 0.00032375738  0.029899982 
number of iterations: 20991 
   16900    47.615864       10            8            2 8.7900914e-15 1.2067803e-16          0.1 0.0090000109 0.00032963223  0.029899982 
number of iterations: 21131 
   17000    48.258793       10            8            2 8.9383668e-15 1.2057552e-16          0.1 0.0090000111 0.00033560619  0.029899982 
number of iterations: 21272 
   17100     48.51772       10            8            2 9.0891434e-15 1.2047311e-16          0.1 0.0090000112 0.00034168091  0.029899981 
number of iterations: 21414 
   17200    48.765786       11            9            2 9.2424635e-15 1.2037079e-16          0.1 0.0090000114 0.00034785811  0.029899981 
number of iterations: 21555 
   17300    49.059928       11            9            2 9.3983697e-15 1.2026858e-16          0.1 0.0090000116 0.00035413951  0.029899981 
number of iterations: 30258 
   17400    49.416859       12           10            2 9.5569059e-15 1.2016646e-16          0.1 0.0090000118 0.00036052686   0.02989998 
number of iterations: 21635 
   17500    49.656394       12           10            2 9.7181164e-15 1.2006445e-16          0.1 0.0090000119 0.00036702196   0.02989998 
number of iterations: 22220 
   17600    49.897086       12           10            2 9.8820462e-15 1.1996253e-16          0.1 0.0090000121 0.00037362662   0.02989998 
number of iterations: 22422 
   17700    50.148169       12           10            2 1.0048741e-14 1.1986072e-16          0.1 0.0090000123 0.00038034269   0.02989998 
number of iterations: 22574 
   17800    50.390413       12           10            2 1.0218248e-14  1.19759e-16          0.1 0.0090000125 0.00038717205  0.029899979 
number of iterations: 22718 
   17900    50.652887       12           10            2 1.0390614e-14 1.1965738e-16          0.1 0.0090000127 0.00039411661  0.029899979 
number of iterations: 22861 
   18000     51.30552       12           10            2 1.0565888e-14 1.1955587e-16          0.1 0.0090000129 0.00040117832  0.029899979 
number of iterations: 23004 
   18100    51.578194       13           11            2 1.0744119e-14 1.1945445e-16          0.1 0.0090000132 0.00040835914  0.029899978 
number of iterations: 23147 
   18200    51.884049       13           11            2 1.0925356e-14 1.1935314e-16          0.1 0.0090000134 0.0004156611  0.029899978 
number of iterations: 23291 
   18300     52.15041       13           11            2 1.110965e-14 1.1925192e-16          0.1 0.0090000136 0.00042308623  0.029899977 
number of iterations: 23435 
   18400    52.423168       13           11            2 1.1297053e-14 1.1915081e-16          0.1 0.0090000138 0.0004306366  0.029899977 
number of iterations: 23579 
   18500    52.692316       13           11            2 1.1487617e-14 1.1904979e-16          0.1 0.0090000141 0.00043831435  0.029899977 
number of iterations: 23724 
   18600    52.952856       13           11            2 1.1681395e-14 1.1894888e-16          0.1 0.0090000143 0.0004461216  0.029899976 
number of iterations: 23869 
   18700    53.218101       13           11            2 1.1878443e-14 1.1884807e-16          0.1 0.0090000146 0.00045406055  0.029899976 
number of iterations: 24014 
   18800     53.48338       13           11            2 1.2078814e-14 1.1874736e-16          0.1 0.0090000148 0.00046213342  0.029899975 
number of iterations: 24159 
   18900    53.755891       13           11            2 1.2282565e-14 1.1864675e-16          0.1 0.0090000151 0.00047034247  0.029899975 
number of iterations: 24305 
   19000    54.421246       14           12            2 1.2489753e-14 1.1854624e-16          0.1 0.0090000153 0.00047868998  0.029899975 
number of iterations: 24451 
   19100    54.691131       14           12            2 1.2700436e-14 1.1844584e-16          0.1 0.0090000156 0.00048717831  0.029899974 
number of iterations: 24598 
   19200    54.951258       14           12            2 1.2914673e-14 1.1834554e-16          0.1 0.0090000158 0.00049580983  0.029899974 
number of iterations: 24744 
   19300    55.234062       14           12            2 1.3132524e-14 1.1824533e-16          0.1 0.0090000161 0.00050458694  0.029899973 
number of iterations: 24891 
   19400    55.516312       15           13            2 1.335405e-14 1.1814524e-16          0.1 0.0090000164 0.00051351211  0.029899973 
number of iterations: 25039 
   19500    55.784655       15           13            2 1.3579312e-14 1.1804524e-16          0.1 0.0090000166 0.00052258784  0.029899972 
number of iterations: 25186 
   19600     56.04937       15           13            2 1.3808375e-14 1.1794534e-16          0.1 0.0090000169 0.00053181666  0.029899972 
number of iterations: 25334 
   19700    56.336981       16           14            2 1.4041301e-14 1.1784555e-16          0.1 0.0090000172 0.00054120115  0.029899971 
number of iterations: 25482 
   19800    56.657182       17           15            2 1.4278156e-14 1.1774587e-16          0.1 0.0090000175 0.00055074395  0.029899971 
number of iterations: 25630 
   19900    56.951861       17           15            2 1.4519007e-14 1.1764628e-16          0.1 0.0090000178 0.00056044772   0.02989997 
number of iterations: 25779 
   20000    57.643226       18           16            2 1.476392e-14 1.175468e-16          0.1 0.0090000181 0.00057031518   0.02989997 
number of iterations: 25928 
   20100    57.965332       18           16            2 1.5012965e-14 1.1744742e-16          0.1 0.0090000184 0.00058034909  0.029899969 
number of iterations: 26077 
   20200    58.233879       18           16            2 1.5266211e-14 1.1734815e-16          0.1 0.0090000187 0.00059055225  0.029899969 
number of iterations: 26227 
   20300    58.549963       18           16            2 1.5523729e-14 1.1724898e-16          0.1  0.009000019 0.00060092752  0.029899968 
number of iterations: 26377 
   20400     58.82894       18           16            2 1.578559e-14 1.1714991e-16          0.1 0.0090000194 0.00061147781  0.029899968 
number of iterations: 26527 
   20500    59.114802       18           16            2 1.6051869e-14 1.1705095e-16          0.1 0.0090000197 0.00062220607  0.029899967 
number of iterations: 26677 
   20600    59.411726       20           18            2 1.632264e-14 1.1695209e-16          0.1   0.00900002 0.0006331153  0.029899967 
number of iterations: 38589 
   20700    59.782652       20           18            2 1.6597978e-14 1.1685334e-16          0.1 0.0090000206 0.00064420855  0.029899966 
number of iterations: 26277 
   20800    60.076719       20           18            2 1.687796e-14 1.1675469e-16          0.1 0.0090000209 0.00065548893  0.029899965 
number of iterations: 26848 
   20900     60.37474       20           18            2 1.7162666e-14 1.1665615e-16          0.1 0.0090000213 0.00066695959  0.029899965 
number of iterations: 26996 
   21000    61.059624       20           18            2 1.7452174e-14 1.1655771e-16          0.1 0.0090000217 0.00067862375  0.029899964 
number of iterations: 27148 
   21100    61.338312       20           18            2 1.7746566e-14 1.1645938e-16          0.1  0.009000022 0.00069048466  0.029899963 
number of iterations: 27302 
   21200    61.615493       20           18            2 1.8045923e-14 1.1636116e-16          0.1 0.0090000224 0.00070254564  0.029899963 
number of iterations: 27456 
   21300     61.93312       20           18            2 1.835033e-14 1.1626304e-16          0.1 0.0090000228 0.00071481008  0.029899962 
number of iterations: 27610 
   21400    62.246805       20           18            2 1.8659872e-14 1.1616503e-16          0.1 0.0090000232 0.0007272814  0.029899962 
number of iterations: 27765 
   21500    62.537723       20           18            2 1.8974636e-14 1.1606713e-16          0.1 0.0090000235 0.00073996309  0.029899961 
number of iterations: 27920 
   21600    62.827781       20           18            2 1.9294709e-14 1.1596933e-16          0.1 0.0090000239 0.0007528587   0.02989996 
number of iterations: 28075 
   21700     63.12884       20           18            2 1.9620181e-14 1.1587164e-16          0.1 0.0090000244 0.00076597184   0.02989996 
number of iterations: 28230 
   21800    63.440983       20           18            2 1.9951144e-14 1.1577406e-16          0.1 0.0090000248 0.00077930618  0.029899959 
number of iterations: 28386 
   21900    63.746434       20           18            2 2.0287689e-14 1.1567658e-16          0.1 0.0090000252 0.00079286545  0.029899958 
number of iterations: 28542 
   22000    64.435046       20           18            2 2.0629912e-14 1.1557922e-16          0.1 0.0090000256 0.00080665344  0.029899957 
number of iterations: 28698 
   22100    64.733943       21           19            2 2.0977907e-14 1.1548196e-16          0.1  0.009000026 0.00082067402  0.029899957 
number of iterations: 28854 
   22200    65.047174       22           20            2 2.1331772e-14 1.1538482e-16          0.1 0.0090000265 0.0008349311  0.029899956 
number of iterations: 29011 
   22300    65.371884       22           20            2 2.1691607e-14 1.1528778e-16          0.1 0.0090000269 0.00084942868  0.029899955 
number of iterations: 29168 
   22400    65.705263       22           20            2 2.2057511e-14 1.1519085e-16          0.1 0.0090000274 0.00086417081  0.029899955 
number of iterations: 29325 
   22500    66.068656       24           22            2 2.2429587e-14 1.1509403e-16          0.1 0.0090000278 0.00087916161  0.029899954 
number of iterations: 37748 
   22600    66.526635       25           23            2 2.280794e-14 1.1499732e-16          0.1 0.0090000285 0.0008944053  0.029899953 
number of iterations: 29772 
   22700    66.911383       26           24            2 2.3192675e-14 1.1490072e-16          0.1  0.009000029 0.00090990611  0.029899952 
number of iterations: 30022 
   22800    67.271465       26           24            2  2.35839e-14 1.1480424e-16          0.1 0.0090000295 0.00092566841  0.029899951 
number of iterations: 30196 
   22900    67.628005       27           25            2 2.3981725e-14 1.1470786e-16          0.1   0.00900003 0.00094169659   0.02989995 
number of iterations: 30369 
   23000    68.428119       28           26            2 2.438626e-14 1.146116e-16          0.1 0.0090000305 0.00095799514  0.029899949 
number of iterations: 30542 
   23100    68.764577       28           26            2 2.4797619e-14 1.1451545e-16          0.1  0.009000031 0.00097456862  0.029899949 
number of iterations: 30716 
   23200    69.108566       29           27            2 2.5215917e-14 1.1441941e-16          0.1 0.0090000315 0.00099142167  0.029899948 
number of iterations: 30890 
   23300    69.508746       29           27            2 2.5641271e-14 1.1432348e-16          0.1  0.009000032  0.001008559  0.029899947 
number of iterations: 31065 
   23400    69.851418       29           27            2  2.60738e-14 1.1422767e-16          0.1 0.0090000326 0.0010259854  0.029899946 
number of iterations: 31240 
   23500    70.196138       29           27            2 2.6513625e-14 1.1413197e-16          0.1 0.0090000331 0.0010437058  0.029899945 
number of iterations: 31414 
   23600    70.548959       29           27            2 2.696087e-14 1.1403638e-16          0.1 0.0090000337 0.0010617251  0.029899944 
number of iterations: 31590 
   23700    70.890803       29           27            2 2.7415658e-14 1.1394091e-16          0.1 0.0090000343 0.0010800483  0.029899943 
number of iterations: 31765 
   23800    71.231942       30           28            2 2.7878119e-14 1.1384556e-16          0.1 0.0090000348 0.0010986807  0.029899942 
number of iterations: 31941 
   23900    71.571216       30           28            2 2.834838e-14 1.1375032e-16          0.1 0.0090000354 0.0011176273  0.029899941 
number of iterations: 32117 
   24000    72.352059       31           29            2 2.8826574e-14 1.1365519e-16          0.1  0.009000036 0.0011368935   0.02989994 
number of iterations: 32293 
   24100    72.733603       32           30            2 2.9312834e-14 1.1356018e-16          0.1 0.0090000366 0.0011564848  0.029899939 
number of iterations: 32470 
   24200    73.063921       32           30            2 2.9807297e-14 1.1346529e-16          0.1 0.0090000372 0.0011764065  0.029899938 
number of iterations: 32647 
   24300    73.412686       32           30            2 3.0310101e-14 1.1337052e-16          0.1 0.0090000379 0.0011966642  0.029899937 
number of iterations: 32824 
   24400    73.769745       32           30            2 3.0821386e-14 1.1327586e-16          0.1 0.0090000385 0.0012172637  0.029899936 
number of iterations: 33001 
   24500    74.109913       33           31            2 3.1341295e-14 1.1318132e-16          0.1 0.0090000392 0.0012382106  0.029899935 
number of iterations: 33179 
   24600    74.468339       33           31            2 3.1869975e-14 1.130869e-16          0.1 0.0090000398 0.0012595109  0.029899934 
number of iterations: 33357 
   24700    74.822832       33           31            2 3.2407573e-14 1.129926e-16          0.1 0.0090000405 0.0012811705  0.029899933 
number of iterations: 33535 
   24800    75.147824       33           31            2 3.2954239e-14 1.1289842e-16          0.1 0.0090000412 0.0013031954  0.029899932 
number of iterations: 33714 
   24900    75.495751       33           31            2 3.3510127e-14 1.1280436e-16          0.1 0.0090000419 0.0013255919   0.02989993 
number of iterations: 33892 
   25000      76.2972       34           32            2 3.4075391e-14 1.1271042e-16          0.1 0.0090000426 0.0013483662  0.029899929 
number of iterations: 34071 
   25100    76.641299       35           33            2 3.4650191e-14 1.126166e-16          0.1 0.0090000433 0.0013715246  0.029899928 
number of iterations: 34251 
   25200    77.038811       35           33            2 3.5234687e-14 1.125229e-16          0.1  0.009000044 0.0013950737  0.029899927 
number of iterations: 36441 
   25300    77.438463       36           34            2 3.5829042e-14 1.1242933e-16          0.1 0.0090000447 0.0014190201  0.029899926 
number of iterations: 34170 
   25400    77.801147       38           36            2 3.6433424e-14 1.1233588e-16          0.1 0.0090000454 0.0014433703  0.029899925 
number of iterations: 40656 
   25500    78.269767       38           36            2   3.7048e-14 1.1224255e-16          0.1 0.0090000463 0.0014681313  0.029899923 
number of iterations: 34962 
   25600    78.666266       38           36            2 3.7672943e-14 1.1214934e-16          0.1 0.0090000471   0.00149331  0.029899922 
number of iterations: 39902 
   25700    79.076355       39           37            2 3.8308428e-14 1.1205626e-16          0.1 0.0090000481 0.0015189135   0.02989992 
number of iterations: 35433 
   25800    79.458589       40           38            2 3.8954632e-14 1.1196331e-16          0.1 0.0090000489 0.0015449488  0.029899919 
number of iterations: 35644 
   25900    79.824596       40           38            2 3.9611737e-14 1.1187048e-16          0.1 0.0090000497 0.0015714233  0.029899917 
number of iterations: 35825 
   26000    80.593924       40           38            2 4.0279927e-14 1.1177778e-16          0.1 0.0090000505 0.0015983444  0.029899916 
number of iterations: 36006 
   26100     80.97044       40           38            2 4.0959388e-14 1.1168521e-16          0.1 0.0090000514 0.0016257196  0.029899915 
number of iterations: 36188 
   26200    81.359636       41           39            2 4.165031e-14 1.1159276e-16          0.1 0.0090000523 0.0016535565  0.029899913 
number of iterations: 36370 
   26300    81.756978       41           39            2 4.2352887e-14 1.1150044e-16          0.1 0.0090000531 0.0016818631  0.029899912 
number of iterations: 36551 
   26400    82.158785       41           39            2 4.3067315e-14 1.1140825e-16          0.1  0.009000054 0.0017106471   0.02989991 
number of iterations: 40526 
   26500    82.562516       43           41            2 4.3793795e-14 1.1131619e-16          0.1 0.0090000551 0.0017399167  0.029899908 
number of iterations: 36972 
   26600      82.9467       45           43            2 4.4532529e-14 1.1122427e-16          0.1  0.009000056   0.00176968  0.029899907 
number of iterations: 37177 
   26700    83.329384       47           45            2 4.5283725e-14 1.1113247e-16          0.1 0.0090000569 0.0017999453  0.029899905 
number of iterations: 37360 
   26800    83.708596       48           46            2 4.6047592e-14 1.1104081e-16          0.1 0.0090000579 0.0018307212  0.029899904 
number of iterations: 37543 
   26900    84.069185       49           47            2 4.6824345e-14 1.1094927e-16          0.1 0.0090000589 0.0018620163  0.029899902 
number of iterations: 37726 
   27000    84.857064       49           47            2  4.76142e-14 1.1085788e-16          0.1 0.0090000599 0.0018938392    0.0298999 
number of iterations: 37909 
   27100    85.268848       49           47            2 4.8417378e-14 1.1076661e-16          0.1 0.0090000609  0.001926199  0.029899899 
number of iterations: 38093 
   27200    85.663746       53           51            2 4.9234105e-14 1.1067548e-16          0.1 0.0090000619 0.0019591046  0.029899897 
number of iterations: 38277 
   27300    86.088583       54           52            2 5.0064609e-14 1.1058449e-16          0.1  0.009000063 0.0019925652  0.029899895 
number of iterations: 38461 
   27400    86.456509       55           53            2 5.0909123e-14 1.1049364e-16          0.1  0.009000064 0.0020265903  0.029899894 
number of iterations: 38645 
   27500    86.846637       57           55            2 5.1767882e-14 1.1040292e-16          0.1 0.0090000651 0.0020611894  0.029899892 
number of iterations: 38830 
   27600    87.324128       57           55            2 5.2641126e-14 1.1031234e-16          0.1 0.0090000662  0.002096372   0.02989989 
number of iterations: 39015 
   27700    87.716071       57           55            2 5.3529102e-14 1.102219e-16          0.1 0.0090000673 0.0021321482  0.029899888 
number of iterations: 39200 
   27800    88.157683       58           56            2 5.4432056e-14 1.101316e-16          0.1 0.0090000685 0.0021685279  0.029899886 
number of iterations: 39385 
   27900    88.602561       58           56            2 5.5350241e-14 1.1004144e-16          0.1 0.0090000696 0.0022055212  0.029899884 
number of iterations: 39570 
   28000    89.411733       58           56            2 5.6283915e-14 1.0995142e-16          0.1 0.0090000708 0.0022431385  0.029899882 
number of iterations: 39756 
   28100     89.80164       59           57            2 5.7233338e-14 1.0986155e-16          0.1  0.009000072 0.0022813904   0.02989988 
number of iterations: 39942 
   28200    90.246924       59           57            2 5.8198777e-14 1.0977182e-16          0.1 0.0090000732 0.0023202875  0.029899878 
number of iterations: 40128 
   28300    90.667401       61           59            2 5.9180501e-14 1.0968224e-16          0.1 0.0090000744 0.0023598408  0.029899876 
number of iterations: 40315 
   28400    91.109017       61           59            2 6.0178785e-14 1.095928e-16          0.1 0.0090000757 0.0024000613  0.029899874 
number of iterations: 40501 
   28500    91.523801       62           60            2 6.1193909e-14 1.095035e-16          0.1  0.009000077 0.0024409602  0.029899872 
number of iterations: 40688 
   28600    91.994488       63           61            2 6.2226157e-14 1.0941436e-16          0.1 0.0090000783  0.002482549   0.02989987 
number of iterations: 40875 
   28700    92.430257       65           63            2 6.3275816e-14 1.0932536e-16          0.1 0.0090000796 0.0025248394  0.029899868 
number of iterations: 45800 
   28800    92.939435       66           64            2 6.4343182e-14 1.0923652e-16          0.1 0.0090000812 0.0025678431  0.029899865 
number of iterations: 41341 
   28900    93.374334       66           64            2 6.5428553e-14 1.0914782e-16          0.1 0.0090000826 0.0026115723  0.029899863 
number of iterations: 41218 
   29000     94.17071       69           67            2 6.6532233e-14 1.0905928e-16          0.1 0.0090000838 0.0026560391  0.029899861 
number of iterations: 41566 
   29100    94.644189       70           68            2 6.7654529e-14 1.0897089e-16          0.1 0.0090000852  0.002701256  0.029899858 
number of iterations: 41849 
   29200    95.087551       71           69            2 6.8795757e-14 1.0888265e-16          0.1 0.0090000866 0.0027472356  0.029899856 
number of iterations: 42039 
   29300    95.499162       71           69            2 6.9956236e-14 1.0879457e-16          0.1 0.0090000881 0.0027939908  0.029899853 
number of iterations: 42227 
   29400    95.931731       71           69            2 7.1136291e-14 1.0870665e-16          0.1 0.0090000896 0.0028415347  0.029899851 
number of iterations: 42416 
   29500    96.358852       72           70            2 7.2336251e-14 1.0861888e-16          0.1 0.0090000911 0.0028898806  0.029899848 
number of iterations: 42605 
   29600    96.797006       73           71            2 7.3556452e-14 1.0853127e-16          0.1 0.0090000926  0.002939042  0.029899846 
number of iterations: 41709 
   29700    97.283941       73           71            2 7.4797236e-14 1.0844383e-16          0.1 0.0090000941 0.0029890327  0.029899843 
number of iterations: 42942 
   29800    97.707669       73           71            2 7.6058951e-14 1.0835654e-16          0.1 0.0090000957 0.0030398667  0.029899841 
number of iterations: 43144 
   29900     98.14729       74           72            2 7.7341949e-14 1.0826942e-16          0.1 0.0090000973 0.0030915582  0.029899838 
number of iterations: 45777 
   30000    98.999893       77           75            2 7.8646588e-14 1.0818246e-16          0.1 0.0090000991 0.0031441216  0.029899835 
number of iterations: 43565 
   30100    99.448947       77           75            2 7.9973235e-14 1.0809566e-16          0.1 0.0090001008 0.0031975716  0.029899832 
number of iterations: 43761 
   30200    99.892021       79           77            2 8.1322261e-14 1.0800903e-16          0.1 0.0090001025 0.0032519233  0.029899829 
number of iterations: 43952 
   30300    100.32793       82           80            2 8.2694043e-14 1.0792257e-16          0.1 0.0090001042 0.0033071919  0.029899827 
number of iterations: 49192 
   30400    100.82466       84           82            2 8.4088964e-14 1.0783628e-16          0.1 0.0090001063 0.0033633927  0.029899823 
number of iterations: 44204 
   30500    101.25426       85           83            2 8.5507415e-14 1.0775016e-16          0.1 0.0090001078 0.0034205415  0.029899821 
number of iterations: 44892 
   30600    101.72753       88           86            2 8.6949794e-14 1.0766421e-16          0.1 0.0090001096 0.0034786544  0.029899818 
number of iterations: 43662 
   30700    102.19153       88           86            2 8.8416503e-14 1.0757843e-16          0.1 0.0090001113 0.0035377475  0.029899815 
number of iterations: 44833 
   30800    102.62814       89           87            2 8.9907954e-14 1.0749283e-16          0.1 0.0090001132 0.0035978374  0.029899812 
number of iterations: 44380 
   30900    103.14347       91           89            2 9.1424562e-14 1.074074e-16          0.1 0.0090001149  0.003658941  0.029899809 
number of iterations: 45102 
   31000    104.03686       92           90            2 9.2966754e-14 1.0732216e-16          0.1 0.0090001168 0.0037210753  0.029899806 
number of iterations: 45374 
   31100    104.48147       94           92            2 9.453496e-14 1.0723709e-16          0.1 0.0090001188 0.0037842577  0.029899802 
number of iterations: 47581 
   31200    105.00187       98           96            2 9.6129619e-14 1.071522e-16          0.1 0.0090001209 0.0038485058  0.029899799 
number of iterations: 45794 
   31300    105.52916       99           97            2 9.7751178e-14 1.070675e-16          0.1 0.0090001229 0.0039138378  0.029899795 
number of iterations: 45990 
   31400    105.97612      101           99            2 9.940009e-14 1.0698298e-16          0.1  0.009000125 0.0039802718  0.029899792 
number of iterations: 46183 
   31500    106.48012      103          101            2 1.0107682e-13 1.0689864e-16          0.1 0.0090001271 0.0040478264  0.029899788 
number of iterations: 46377 
   31600    106.94912      104          102            2 1.0278183e-13 1.0681449e-16          0.1 0.0090001293 0.0041165205  0.029899785 
number of iterations: 46570 
   31700    107.47411      105          103            2 1.045156e-13 1.0673053e-16          0.1 0.0090001314 0.0041863735  0.029899781 
number of iterations: 46763 
   31800    107.98334      108          106            2 1.0627861e-13 1.0664677e-16          0.1 0.0090001337 0.0042574047  0.029899778 
number of iterations: 45712 
   31900    108.50775      110          108            2 1.0807137e-13 1.0656319e-16          0.1 0.0090001357 0.0043296341  0.029899774 
number of iterations: 49323 
   32000    109.44636      113          111            2 1.0989437e-13 1.0647981e-16          0.1 0.0090001382  0.004403082   0.02989977 
number of iterations: 47338 
   32100    109.95188      114          112            2 1.1174812e-13 1.0639662e-16          0.1 0.0090001405 0.0044777687  0.029899766 
number of iterations: 47536 
   32200    110.46561      117          115            2 1.1363313e-13 1.0631364e-16          0.1 0.0090001429 0.0045537154  0.029899762 
number of iterations: 47730 
   32300    110.97893      119          117            2 1.1554995e-13 1.0623085e-16          0.1 0.0090001453 0.0046309431  0.029899758 
number of iterations: 51427 
   32400    111.51243      120          118            2 1.174991e-13 1.0614826e-16          0.1 0.0090001481 0.0047094735  0.029899754 
number of iterations: 48187 
   32500     112.0196      121          119            2 1.1948113e-13 1.0606588e-16          0.1 0.0090001506 0.0047893287  0.029899749 
number of iterations: 48385 
   32600    112.53519      123          121            2 1.2149659e-13 1.0598371e-16          0.1 0.0090001531 0.0048705308  0.029899745 
number of iterations: 48580 
   32700    113.05132      125          123            2 1.2354605e-13 1.0590174e-16          0.1 0.0090001557 0.0049531027  0.029899741 
number of iterations: 48775 
   32800    113.58665      127          125            2 1.2563008e-13 1.0581998e-16          0.1 0.0090001584 0.0050370675  0.029899736 
number of iterations: 48971 
   32900    114.15824      128          126            2 1.2774927e-13 1.0573843e-16          0.1  0.009000161 0.0051224486  0.029899732 
number of iterations: 49167 
   33000     115.0187      131          129            2 1.299042e-13 1.056571e-16          0.1 0.0090001637   0.00520927  0.029899728 
number of iterations: 49363 
   33100    115.55223      132          130            2 1.3209548e-13 1.0557598e-16          0.1 0.0090001665 0.0052975559  0.029899723 
number of iterations: 49559 
   33200    116.05055      135          133            2 1.3432373e-13 1.0549508e-16          0.1 0.0090001693  0.005387331  0.029899718 
number of iterations: 47937 
   33300     116.5728      135          133            2 1.3658956e-13 1.054144e-16          0.1  0.009000172 0.0054786206  0.029899714 
number of iterations: 49922 
   33400    117.07983      135          133            2 1.3889362e-13 1.0533395e-16          0.1 0.0090001749   0.00557145  0.029899709 
number of iterations: 51779 
   33500    117.61179      137          135            2 1.4123654e-13 1.0525372e-16          0.1  0.009000178 0.0056658453  0.029899704 
number of iterations: 48459 
   33600    118.12265      139          137            2 1.4361898e-13 1.0517371e-16          0.1 0.0090001809 0.0057618329  0.029899699 
number of iterations: 48644 
   33700    118.65264      143          141            2 1.4604161e-13 1.0509394e-16          0.1 0.0090001837 0.0058594397  0.029899694 
number of iterations: 51158 
   33800    119.19337      146          144            2 1.485051e-13 1.0501439e-16          0.1 0.0090001869 0.0059586929  0.029899689 
number of iterations: 52495 
   33900    119.75387      147          145            2 1.5101015e-13 1.0493509e-16          0.1 0.0090001902 0.0060596204  0.029899683 
number of iterations: 51113 
   34000    120.72887      148          146            2 1.5355746e-13 1.0485602e-16          0.1 0.0090001934 0.0061622504  0.029899678 
number of iterations: 51311 
   34100    121.23645      150          148            2 1.5614774e-13 1.0477719e-16          0.1 0.0090001967 0.0062666116  0.029899673 
number of iterations: 51509 
   34200    121.79595      152          150            2 1.5878171e-13 1.046986e-16          0.1    0.0090002 0.0063727332  0.029899667 
number of iterations: 51708 
   34300    122.35688      156          154            2 1.6146011e-13 1.0462025e-16          0.1 0.0090002034 0.0064806449  0.029899661 
number of iterations: 51906 
   34400    122.92146      162          160            2 1.6418369e-13 1.0454215e-16          0.1 0.0090002068 0.0065903769  0.029899656 
number of iterations: 50202 
   34500    123.47506      166          164            2 1.6695321e-13 1.0446431e-16          0.1 0.0090002101 0.0067019599   0.02989965 
number of iterations: 53416 
   34600    124.02228      169          167            2 1.6976945e-13 1.0438671e-16          0.1 0.0090002138 0.0068154251  0.029899644 
number of iterations: 52636 
   34700      124.594      172          170            2 1.726332e-13 1.0430937e-16          0.1 0.0090002174 0.0069308043  0.029899638 
number of iterations: 54577 
   34800    125.20514      175          173            2 1.7554525e-13 1.0423229e-16          0.1 0.0090002213 0.0070481298  0.029899632 
number of iterations: 52983 
   34900    125.79598      176          174            2 1.7850643e-13 1.0415547e-16          0.1  0.009000225 0.0071674344  0.029899625 
number of iterations: 53170 
   35000    126.77381      181          179            2 1.8151755e-13 1.0407892e-16          0.1 0.0090002288 0.0072887514  0.029899619 
Loop time of 126.774 on 6 procs for 35000 steps with 181 atoms

Performance: 238534976.013 tau/day, 276.082 timesteps/s
94.3% CPU use with 6 MPI tasks x no OpenMP threads

MPI task timing breakdown:
Section |  min time  |  avg time  |  max time  |%varavg| %total
---------------------------------------------------------------
Pair    | 0.023366   | 0.030058   | 0.061249   |   8.1 |  0.02
Neigh   | 13.851     | 14.747     | 16.362     |  28.9 | 11.63
Comm    | 14.332     | 14.333     | 14.336     |   0.0 | 11.31
Output  | 10.484     | 10.485     | 10.486     |   0.0 |  8.27
Modify  | 85.29      | 86.699     | 87.5       |  10.5 | 68.39
Other   |            | 0.4799     |            |       |  0.38

Nlocal:    30.1667 ave 179 max 0 min
Histogram: 5 0 0 0 0 0 0 0 0 1
Nghost:    1.5 ave 9 max 0 min
Histogram: 5 0 0 0 0 0 0 0 0 1
Neighs:    96.1667 ave 577 max 0 min
Histogram: 5 0 0 0 0 0 0 0 0 1

Total # of neighbors = 577
Ave neighs/atom = 3.18785
Neighbor list builds = 398
Dangerous builds = 0
Total wall time: 0:02:07
