 NUFEB Simulation

     100 atoms 
     2 atom types 
     4 nutrients 

  0.0e-4   1.00e-04  xlo xhi 
  0.0e-4   1.00e-04  ylo yhi 
  0.0e-4   1.00e-05  zlo zhi 

 Atoms 

     1 1 1.59e-06  370 4.32e-05 5.45e-06 1.81e-06 1.59e-06 
     2 1 1.92e-06  370 9.28e-05 8.82e-05 3.20e-06 1.92e-06 
     3 1 1.61e-06  370 1.26e-05 9.67e-05 2.62e-06 1.61e-06 
     4 1 1.71e-06  370 6.24e-06 1.04e-05 4.77e-06 1.71e-06 
     5 1 1.38e-06  370 8.65e-05 7.54e-05 8.52e-06 1.38e-06 
     6 1 1.39e-06  370 9.41e-05 6.41e-05 8.33e-06 1.39e-06 
     7 1 1.68e-06  370 1.98e-05 2.07e-05 7.34e-06 1.68e-06 
     8 1 1.80e-06  370 3.89e-05 3.37e-05 4.33e-06 1.80e-06 
     9 1 1.90e-06  370 9.49e-05 3.46e-05 4.82e-06 1.90e-06 
     10 1 1.44e-06  370 6.98e-05 6.08e-05 4.32e-06 1.44e-06 
     11 1 1.73e-06  370 1.74e-05 3.81e-05 7.64e-06 1.73e-06 
     12 1 1.81e-06  370 6.82e-05 3.11e-05 5.78e-06 1.81e-06 
     13 1 1.64e-06  370 6.90e-05 1.91e-05 5.52e-06 1.64e-06 
     14 1 1.73e-06  370 6.34e-05 9.36e-06 2.74e-06 1.73e-06 
     15 1 1.70e-06  370 4.54e-05 4.87e-05 7.51e-06 1.70e-06 
     16 1 1.43e-06  370 5.67e-05 8.71e-05 2.58e-06 1.43e-06 
     17 1 1.62e-06  370 9.55e-05 7.24e-05 3.43e-06 1.62e-06 
     18 1 1.43e-06  370 3.91e-06 1.06e-05 4.24e-06 1.43e-06 
     19 1 1.87e-06  370 6.80e-05 5.27e-06 2.34e-06 1.87e-06 
     20 1 1.92e-06  370 5.19e-06 4.99e-05 3.04e-06 1.92e-06 
     21 1 1.85e-06  370 4.49e-06 2.76e-05 5.19e-06 1.85e-06 
     22 1 1.54e-06  370 7.70e-05 3.72e-05 4.11e-06 1.54e-06 
     23 1 1.60e-06  370 3.74e-05 8.37e-06 7.31e-06 1.60e-06 
     24 1 1.64e-06  370 1.72e-05 6.38e-05 7.42e-06 1.64e-06 
     25 1 1.68e-06  370 5.04e-06 7.76e-05 2.77e-06 1.68e-06 
     26 1 1.42e-06  370 9.38e-06 3.31e-05 5.73e-06 1.42e-06 
     27 1 1.62e-06  370 6.17e-05 5.77e-05 6.32e-06 1.62e-06 
     28 1 1.60e-06  370 8.36e-06 9.57e-05 5.23e-06 1.60e-06 
     29 1 1.54e-06  370 5.39e-05 2.29e-05 8.04e-06 1.54e-06 
     30 1 1.65e-06  370 5.58e-05 9.79e-05 4.75e-06 1.65e-06 
     31 1 1.61e-06  370 4.77e-05 6.12e-05 8.16e-06 1.61e-06 
     32 1 1.88e-06  370 3.58e-06 6.50e-05 5.24e-06 1.88e-06 
     33 1 1.44e-06  370 2.96e-05 1.16e-05 1.51e-06 1.44e-06 
     34 1 1.57e-06  370 5.01e-05 4.81e-05 3.04e-06 1.57e-06 
     35 1 1.89e-06  370 3.94e-05 2.32e-05 2.92e-06 1.89e-06 
     36 1 1.92e-06  370 9.22e-05 3.30e-05 2.87e-06 1.92e-06 
     37 1 1.93e-06  370 8.93e-05 5.06e-05 5.94e-06 1.93e-06 
     38 1 1.45e-06  370 8.76e-06 3.19e-05 2.59e-06 1.45e-06 
     39 1 1.37e-06  370 8.05e-05 4.31e-05 5.38e-06 1.37e-06 
     40 1 1.72e-06  370 6.72e-05 7.92e-05 3.08e-06 1.72e-06 
     41 1 1.49e-06  370 5.83e-05 2.61e-05 4.68e-06 1.49e-06 
     42 1 1.70e-06  370 5.19e-05 5.24e-05 6.91e-06 1.70e-06 
     43 1 1.41e-06  370 5.13e-05 3.05e-05 2.14e-06 1.41e-06 
     44 1 1.91e-06  370 6.31e-05 2.61e-05 6.66e-06 1.91e-06 
     45 1 1.46e-06  370 2.83e-05 1.32e-05 1.54e-06 1.46e-06 
     46 1 1.85e-06  370 5.53e-05 7.87e-05 7.82e-06 1.85e-06 
     47 1 1.63e-06  370 7.78e-05 4.10e-05 5.37e-06 1.63e-06 
     48 1 1.90e-06  370 9.42e-06 7.89e-05 7.90e-06 1.90e-06 
     49 1 1.61e-06  370 8.57e-05 5.70e-06 4.11e-06 1.61e-06 
     50 1 1.41e-06  370 7.52e-05 8.02e-05 4.35e-06 1.41e-06 
     51 2 1.16e-06  230 6.15e-05 4.65e-05 1.32e-06 1.16e-06 
     52 2 9.11e-07  230 1.29e-05 9.83e-05 4.08e-06 9.11e-07 
     53 2 1.10e-06  230 5.62e-06 7.70e-05 3.75e-06 1.10e-06 
     54 2 1.34e-06  230 4.04e-05 8.59e-05 4.60e-06 1.34e-06 
     55 2 1.05e-06  230 1.11e-05 5.15e-06 7.85e-06 1.05e-06 
     56 2 1.16e-06  230 2.72e-05 6.52e-06 5.27e-06 1.16e-06 
     57 2 1.32e-06  230 3.14e-05 8.61e-05 5.39e-06 1.32e-06 
     58 2 1.16e-06  230 5.53e-05 2.16e-05 1.75e-06 1.16e-06 
     59 2 1.26e-06  230 5.23e-05 8.55e-05 3.78e-06 1.26e-06 
     60 2 1.17e-06  230 1.84e-05 4.49e-05 4.97e-06 1.17e-06 
     61 2 1.06e-06  230 5.24e-05 5.81e-05 6.51e-06 1.06e-06 
     62 2 1.15e-06  230 4.37e-05 7.53e-05 7.03e-06 1.15e-06 
     63 2 1.36e-06  230 6.06e-05 5.09e-05 7.38e-06 1.36e-06 
     64 2 9.23e-07  230 1.79e-06 8.02e-05 7.46e-06 9.23e-07 
     65 2 9.45e-07  230 6.12e-05 1.11e-05 8.42e-06 9.45e-07 
     66 2 1.00e-06  230 6.37e-05 9.14e-05 1.81e-06 1.00e-06 
     67 2 1.30e-06  230 1.40e-05 6.96e-05 2.82e-06 1.30e-06 
     68 2 1.00e-06  230 5.52e-05 1.67e-05 2.61e-06 1.00e-06 
     69 2 1.14e-06  230 8.38e-05 4.21e-05 5.15e-06 1.14e-06 
     70 2 1.37e-06  230 7.62e-05 7.33e-05 6.80e-06 1.37e-06 
     71 2 9.40e-07  230 9.49e-05 5.03e-05 5.72e-06 9.40e-07 
     72 2 1.30e-06  230 9.84e-05 7.59e-05 5.66e-06 1.30e-06 
     73 2 1.23e-06  230 5.54e-05 4.93e-05 2.90e-06 1.23e-06 
     74 2 1.35e-06  230 2.37e-05 7.40e-05 8.45e-06 1.35e-06 
     75 2 1.31e-06  230 6.92e-05 4.16e-05 3.88e-06 1.31e-06 
     76 2 1.11e-06  230 1.18e-05 1.63e-05 8.74e-06 1.11e-06 
     77 2 9.17e-07  230 2.93e-05 3.61e-05 6.53e-06 9.17e-07 
     78 2 8.88e-07  230 1.75e-05 9.90e-05 2.54e-06 8.88e-07 
     79 2 1.06e-06  230 1.54e-05 9.06e-05 1.26e-06 1.06e-06 
     80 2 1.20e-06  230 8.73e-05 3.38e-05 4.74e-06 1.20e-06 
     81 2 9.74e-07  230 4.10e-05 1.28e-05 4.67e-06 9.74e-07 
     82 2 1.09e-06  230 3.56e-05 3.80e-05 7.29e-06 1.09e-06 
     83 2 1.24e-06  230 8.37e-05 3.07e-05 1.60e-06 1.24e-06 
     84 2 1.36e-06  230 4.50e-05 3.19e-05 6.41e-06 1.36e-06 
     85 2 9.32e-07  230 5.56e-05 2.32e-05 4.11e-06 9.32e-07 
     86 2 1.20e-06  230 6.88e-05 4.35e-06 5.81e-06 1.20e-06 
     87 2 1.05e-06  230 8.16e-05 6.08e-05 1.24e-06 1.05e-06 
     88 2 1.35e-06  230 1.56e-05 2.19e-05 1.99e-06 1.35e-06 
     89 2 8.96e-07  230 6.58e-05 1.09e-05 3.80e-06 8.96e-07 
     90 2 1.39e-06  230 6.57e-05 2.77e-05 6.09e-06 1.39e-06 
     91 2 1.33e-06  230 2.60e-05 6.13e-05 3.00e-06 1.33e-06 
     92 2 1.38e-06  230 3.74e-05 4.29e-05 4.26e-06 1.38e-06 
     93 2 1.27e-06  230 6.35e-05 9.73e-05 7.30e-06 1.27e-06 
     94 2 1.16e-06  230 2.84e-05 7.38e-05 5.75e-06 1.16e-06 
     95 2 1.08e-06  230 4.94e-05 1.21e-05 1.39e-06 1.08e-06 
     96 2 1.14e-06  230 6.99e-06 3.92e-05 1.24e-06 1.14e-06 
     97 2 1.28e-06  230 1.49e-05 8.32e-05 2.69e-06 1.28e-06 
     98 2 1.07e-06  230 8.99e-05 9.21e-05 6.63e-06 1.07e-06 
     99 2 9.28e-07  230 3.61e-05 7.40e-05 8.26e-06 9.28e-07 
     100 2 1.31e-06  230 3.29e-05 8.37e-05 7.49e-06 1.31e-06 

 Nutrients 

     1 sub g nn nn nn 1.00e-01 1.00e-01 
     2 o2 l nn nn nd 9.00e-03 9.00e-03 
     3 suc l nn nn nn 3.42e-20 3.42e-20 
     4 co2 l nn nn nd 2.99e-02 2.99e-02 

 Type Name 

     1 cyano  
     2 ecw  

 Diffusion Coeffs 

     sub 0 
     o2 2.3e-09 
     suc 5.2e-10 
     co2 1.9e-09 

 Growth Rate 

     cyano 1.67e-05 
     ecw 7e-06 

 Ks 

     cyano 0.00035 0.0002 0.01 0.000138 
     ecw 0 0.001 3.6 0.05 

 Yield 

     cyano 0.55 
     ecw 0.43 

 Maintenance 

     cyano 0 
     ecw 9.5e-07 

 Decay 

     cyano 0 
     ecw 0 



