LAMMPS (20 Nov 2019)
Reading data file ...
  orthogonal box = (0 0 0) to (0.0001 0.0001 1e-05)
  8 by 4 by 1 MPI processor grid
  reading atoms ...
  100 atoms
  4 nutrients
Lattice spacing in x,y,z = 100 100 100
50 atoms in group CYANO
50 atoms in group ECW
Model is defined as a closed system. 
Neighbor list info ...
  update every 1 steps, delay 0 steps, check yes
  max neighbors/atom: 5000, page size: 100000
  master list distance cutoff = 2.43e-06
  ghost atom cutoff = 2.43e-06
  binsize = 1.215e-06, bins = 83 83 9
  1 neighbor lists, perpetual/occasional/extra = 1 0 0
  (1) pair gran/hooke/history, perpetual
      attributes: half, newton off, size, history
      pair build: half/size/bin/newtoff
      stencil: half/bin/3d/newtoff
      bin: standard
Setting up Verlet run ...
  Unit style    : lj
  Current step  : 0
  Time step     : 10
Per MPI rank memory allocation (min/avg/max) = 5.795 | 10.81 | 12.11 Mbytes
Step CPU Atoms c_myNtypes[1] c_myNtypes[2] c_myMass[1] c_myMass[2] c_myCon[1] c_myCon[2] c_myCon[3] c_myCon[4] 
       0            0      100           50           50 4.5123896e-14 9.7064897e-15          0.1        0.009     3.42e-20       0.0299 
number of iterations: 323433 
     100    15.502086      138           50           88 4.5721887e-14 9.6988002e-15          0.1 0.0090007868  0.036252081  0.029898689 
number of iterations: 4114 
     200    15.830306      157           50          107 4.6327804e-14 9.6916963e-15          0.1 0.0090007972  0.071834674  0.029898672 
number of iterations: 2459 
     300    16.066473      157           50          107 4.694175e-14  9.68518e-15          0.1 0.0090008077     0.107869  0.029898654 
number of iterations: 1924 
     400    16.311868      157           50          107 4.7563832e-14 9.6792456e-15          0.1 0.0090008184   0.14436542  0.029898637 
number of iterations: 1596 
     500    16.532658      158           51          107 4.8194158e-14 9.6738881e-15          0.1 0.0090008246   0.18133109  0.029898626 
number of iterations: 1399 
     600    16.732905      161           54          107 4.8832837e-14 9.6691029e-15          0.1 0.0090008355   0.21877298  0.029898608 
number of iterations: 1544 
     700    16.941562      162           55          107 4.9479981e-14 9.6648848e-15          0.1 0.0090008503   0.25669792  0.029898583 
number of iterations: 1396 
     800    17.134936      162           55          107  5.01357e-14 9.6612292e-15          0.1 0.0090008616   0.29511297  0.029898565 
number of iterations: 1570 
     900    17.319479      164           57          107 5.0800109e-14 9.6581317e-15          0.1 0.0090008668   0.33402497  0.029898556 
number of iterations: 1402 
    1000    17.585281      165           58          107 5.1473323e-14 9.6555877e-15          0.1 0.0090008783   0.37344084  0.029898537 
number of iterations: 1405 
    1100    17.784216      166           59          107 5.2155459e-14 9.6535929e-15          0.1 0.0090008899   0.41336759  0.029898517 
number of iterations: 1548 
    1200    17.992817      167           60          107 5.2846634e-14 9.6521425e-15          0.1 0.0090009029   0.45381228  0.029898496 
number of iterations: 1411 
    1300    18.204602      167           60          107 5.3546969e-14 9.6512327e-15          0.1 0.0090009148   0.49478208  0.029898476 
number of iterations: 1414 
    1400    18.397279      167           60          107 5.4256585e-14 9.6508596e-15          0.1 0.0090009269   0.53628421  0.029898456 
number of iterations: 1415 
    1500    18.582963      169           62          107 5.4975605e-14 9.651019e-15          0.1 0.0090009331   0.57832599  0.029898445 
number of iterations: 1436 
    1600    18.767285      169           62          107 5.5704153e-14 9.6517069e-15          0.1 0.0090009454   0.62091484  0.029898425 
number of iterations: 1422 
    1700    18.940511      169           62          107 5.6442357e-14 9.6529196e-15          0.1 0.0090009579   0.66405826  0.029898404 
number of iterations: 1425 
    1800    19.137937      169           62          107 5.7190343e-14 9.6546535e-15          0.1 0.0090009706   0.70776386  0.029898383 
number of iterations: 1428 
    1900    19.316961      169           62          107 5.7948242e-14 9.6569049e-15          0.1 0.0090009834   0.75203933  0.029898361 
number of iterations: 1420 
    2000    19.506854      170           63          107 5.8716184e-14 9.6596706e-15          0.1 0.0090009919   0.79689248  0.029898347 
number of iterations: 1496 
    2100    19.676244      171           64          107 5.9494304e-14 9.6629467e-15          0.1 0.0090010023   0.84233118   0.02989833 
number of iterations: 1436 
    2200    19.872288      171           64          107 6.0282735e-14 9.6667299e-15          0.1 0.0090010156   0.88836344  0.029898308 
number of iterations: 1439 
    2300    20.043787      171           64          107 6.1081614e-14 9.6710169e-15          0.1  0.009001029   0.93499736  0.029898285 
number of iterations: 1442 
    2400    20.223543      171           64          107 6.1891081e-14 9.6758046e-15          0.1 0.0090010427   0.98224112  0.029898263 
number of iterations: 1461 
    2500    20.403542      171           64          107 6.2711275e-14 9.6810895e-15          0.1 0.0090010565    1.0301031   0.02989824 
number of iterations: 1447 
    2600    20.564752      171           64          107 6.3542338e-14 9.6868689e-15          0.1 0.0090010705    1.0785916  0.029898216 
number of iterations: 1593 
    2700    20.741309      171           64          107 6.4384414e-14 9.6931398e-15          0.1 0.0090010806    1.1277152  0.029898199 
number of iterations: 1453 
    2800    20.927876      171           64          107 6.523765e-14 9.6998992e-15          0.1 0.0090010949    1.1774825  0.029898175 
number of iterations: 1456 
    2900    21.090062      171           64          107 6.6102194e-14 9.7071442e-15          0.1 0.0090011094    1.2279023  0.029898151 
number of iterations: 1442 
    3000    21.269413      173           66          107 6.6978194e-14 9.7148718e-15          0.1  0.009001118    1.2789835  0.029898137 
number of iterations: 1461 
    3100     21.47607      174           67          107 6.7865803e-14 9.7230795e-15          0.1 0.0090011328    1.3307349  0.029898112 
number of iterations: 1464 
    3200    21.673955      174           67          107 6.8765175e-14 9.7317647e-15          0.1 0.0090011478    1.3831658  0.029898087 
number of iterations: 1490 
    3300    21.857293      175           68          107 6.9676466e-14 9.7409243e-15          0.1  0.009001163     1.436285  0.029898062 
number of iterations: 1445 
    3400    22.056375      178           70          108 7.0599833e-14 9.7505577e-15          0.1 0.0090011724    1.4901022  0.029898046 
number of iterations: 1472 
    3500    22.232809      179           70          109 7.1535437e-14 9.7606618e-15          0.1 0.0090011879    1.5446267   0.02989802 
number of iterations: 1474 
    3600    22.403525      179           70          109 7.2483439e-14 9.7712335e-15          0.1 0.0090012036    1.5998683  0.029897994 
number of iterations: 1522 
    3700    22.604164      181           72          109 7.3444005e-14 9.7822696e-15          0.1 0.0090012134    1.6558364  0.029897978 
number of iterations: 1479 
    3800    22.781783      181           72          109  7.44173e-14 9.7937687e-15          0.1 0.0090012295    1.7125411  0.029897951 
number of iterations: 1482 
    3900     22.96435      181           72          109 7.5403494e-14 9.8057286e-15          0.1 0.0090012458    1.7699921  0.029897924 
number of iterations: 1485 
    4000    23.175384      181           72          109 7.6402757e-14 9.8181472e-15          0.1 0.0090012623    1.8281997  0.029897896 
number of iterations: 1488 
    4100    23.352166      182           73          109 7.7415262e-14 9.8310233e-15          0.1  0.009001279    1.8871738  0.029897869 
number of iterations: 1457 
    4200    23.535456      184           75          109 7.8441186e-14 9.8443539e-15          0.1 0.0090012858     1.946925  0.029897857 
number of iterations: 1491 
    4300    23.707628      184           75          109 7.9480705e-14 9.8581371e-15          0.1 0.0090013028    2.0074637  0.029897829 
number of iterations: 1482 
    4400    23.880702      185           76          109 8.0533999e-14 9.8723708e-15          0.1 0.0090013154    2.0688006  0.029897808 
number of iterations: 1506 
    4500    24.052252      187           78          109 8.1601253e-14 9.8870521e-15          0.1 0.0090013338    2.1309463  0.029897777 
number of iterations: 1682 
    4600    24.259505      190           81          109 8.268265e-14 9.9021809e-15          0.1 0.0090013602    2.1939118  0.029897733 
number of iterations: 1503 
    4700    24.430982      190           81          109 8.3778377e-14 9.917755e-15          0.1 0.0090013782     2.257708  0.029897703 
number of iterations: 1556 
    4800    24.620544      193           83          110 8.4888626e-14 9.9337725e-15          0.1 0.0090013925    2.3223463  0.029897679 
number of iterations: 1477 
    4900    24.793258      194           84          110 8.6013588e-14 9.9502319e-15          0.1 0.0090014096    2.3878379  0.029897651 
number of iterations: 1510 
    5000    24.992726      195           84          111 8.7153457e-14 9.9671316e-15          0.1 0.0090014282    2.4541944   0.02989762 
number of iterations: 1513 
    5100    25.163113      196           85          111 8.8308433e-14 9.9844702e-15          0.1 0.0090014472    2.5214273  0.029897588 
number of iterations: 1616 
    5200    25.359664      200           89          111 8.9478715e-14 1.0002245e-14          0.1 0.0090014636    2.5895486  0.029897561 
number of iterations: 1630 
    5300    25.536741      201           90          111 9.0664505e-14 1.0020455e-14          0.1 0.0090014839    2.6585698  0.029897527 
number of iterations: 1520 
    5400    25.703692      202           91          111 9.186601e-14  1.00391e-14          0.1 0.0090015035    2.7285037  0.029897494 
number of iterations: 1715 
    5500    25.897024      203           92          111 9.3083438e-14 1.005818e-14          0.1 0.0090015279     2.799362  0.029897454 
number of iterations: 1675 
    5600    26.070813      206           95          111 9.4316999e-14 1.0077691e-14          0.1 0.0090015546    2.8711573  0.029897409 
number of iterations: 1705 
    5700     26.28129      207           96          111 9.5566907e-14 1.0097633e-14          0.1 0.0090015841    2.9439024   0.02989736 
number of iterations: 1501 
    5800    26.468545      208           97          111 9.683338e-14 1.0118005e-14          0.1 0.0090015982    3.0176098  0.029897336 
number of iterations: 1731 
    5900    26.670295      209           97          112 9.8116636e-14 1.0138804e-14          0.1 0.0090016229    3.0922923  0.029897295 
number of iterations: 1590 
    6000    26.848305      213           98          115 9.9416897e-14 1.016003e-14          0.1 0.0090016502    3.1679631   0.02989725 
number of iterations: 1540 
    6100    27.042938      213           98          115 1.0073439e-13 1.0181682e-14          0.1 0.0090016638    3.2446354  0.029897227 
number of iterations: 1722 
    6200    27.240463      214           99          115 1.0206934e-13 1.0203758e-14          0.1 0.0090016909    3.3223225  0.029897182 
number of iterations: 1542 
    6300    27.431873      214           99          115 1.0342199e-13 1.0226257e-14          0.1 0.0090017133     3.401038  0.029897145 
number of iterations: 1572 
    6400    27.668138      215          100          115 1.0479256e-13 1.024918e-14          0.1  0.009001736    3.4807959  0.029897107 
number of iterations: 1552 
    6500    27.859402      216          101          115 1.0618129e-13 1.0272525e-14          0.1  0.009001759    3.5616101  0.029897069 
number of iterations: 1564 
    6600    28.054336      216          101          115 1.0758843e-13 1.029629e-14          0.1 0.0090017823    3.6434947   0.02989703 
number of iterations: 1622 
    6700    28.296559      222          107          115 1.0901421e-13 1.0320474e-14          0.1 0.0090018051    3.7264639  0.029896992 
number of iterations: 1541 
    6800    28.482055      225          108          117 1.1045889e-13 1.0345078e-14          0.1 0.0090018193    3.8105325  0.029896968 
number of iterations: 1539 
    6900    28.664179      227          110          117 1.1192271e-13 1.0370101e-14          0.1 0.0090018418    3.8957151   0.02989693 
number of iterations: 1576 
    7000    28.840663      229          112          117 1.1340593e-13 1.0395541e-14          0.1 0.0090018659     3.982027   0.02989689 
number of iterations: 1647 
    7100    29.048621      230          113          117 1.1490881e-13 1.0421399e-14          0.1 0.0090018939    4.0694829  0.029896844 
number of iterations: 1598 
    7200    29.230461      232          115          117 1.1643161e-13 1.0447673e-14          0.1 0.0090019201    4.1580981    0.0298968 
number of iterations: 1789 
    7300    29.423188      236          119          117 1.1797458e-13 1.0474363e-14          0.1 0.0090019514    4.2478884  0.029896748 
number of iterations: 1574 
    7400     29.59618      237          119          118 1.1953801e-13 1.0501468e-14          0.1 0.0090019773    4.3388692  0.029896705 
number of iterations: 1579 
    7500    29.796915      239          121          118 1.2112215e-13 1.0528988e-14          0.1 0.0090020038    4.4310568  0.029896661 
number of iterations: 1669 
    7600     29.98967      240          122          118 1.2272728e-13 1.0556922e-14          0.1 0.0090020356     4.524467  0.029896608 
number of iterations: 1642 
    7700    30.180026      244          126          118 1.2435369e-13 1.0585269e-14          0.1 0.0090020668    4.6191164  0.029896556 
number of iterations: 1652 
    7800    30.378343      246          128          118 1.2600165e-13 1.061403e-14          0.1 0.0090020944    4.7150214   0.02989651 
number of iterations: 1588 
    7900    30.562283      246          128          118 1.2767145e-13 1.0643203e-14          0.1 0.0090021222    4.8121986  0.029896463 
number of iterations: 1664 
    8000     30.73309      248          130          118 1.2936338e-13 1.0672788e-14          0.1 0.0090021531    4.9106655  0.029896412 
number of iterations: 1721 
    8100    30.929527      251          133          118 1.3107773e-13 1.0702785e-14          0.1 0.0090022001    5.0104388  0.029896333 
number of iterations: 1716 
    8200    31.125118      253          134          119 1.328148e-13 1.0733194e-14          0.1 0.0090022345    5.1115361  0.029896276 
number of iterations: 1597 
    8300    31.315402      254          135          119 1.3457489e-13 1.0764014e-14          0.1 0.0090022601     5.213975  0.029896234 
number of iterations: 1603 
    8400    31.536067      255          136          119 1.363583e-13 1.0795245e-14          0.1 0.0090022876    5.3177734  0.029896188 
number of iterations: 1606 
    8500    31.720751      255          136          119 1.3816535e-13 1.0826887e-14          0.1  0.009002318    5.4229495  0.029896137 
number of iterations: 1609 
    8600    31.902606      255          136          119 1.3999634e-13 1.0858939e-14          0.1 0.0090023487    5.5295217  0.029896086 
number of iterations: 1612 
    8700    32.097739      255          136          119 1.418516e-13 1.0891401e-14          0.1 0.0090023798    5.6375086  0.029896034 
number of iterations: 1670 
    8800    32.299036      259          139          120 1.4373145e-13 1.0924275e-14          0.1 0.0090024155    5.7469291  0.029895975 
number of iterations: 1683 
    8900    32.495877      262          140          122 1.456362e-13 1.0957558e-14          0.1 0.0090024525    5.8578023  0.029895913 
number of iterations: 1690 
    9000    32.791512      263          141          122 1.475662e-13 1.0991251e-14          0.1 0.0090024894    5.9701476  0.029895852 
number of iterations: 1624 
    9100    33.010707      263          141          122 1.4952178e-13 1.1025354e-14          0.1 0.0090025224    6.0839847  0.029895797 
number of iterations: 1703 
    9200    33.193984      271          149          122 1.5150327e-13 1.1059867e-14          0.1 0.0090025623    6.1993334   0.02989573 
number of iterations: 1627 
    9300    33.373027      272          150          122 1.5351102e-13 1.1094789e-14          0.1 0.0090025939    6.3162144  0.029895677 
number of iterations: 1618 
    9400    33.596288      274          152          122 1.5554538e-13 1.1130122e-14          0.1 0.0090026155    6.4346474  0.029895641 
number of iterations: 1748 
    9500    33.815895      277          155          122 1.576067e-13 1.1165864e-14          0.1 0.0090026614     6.554653  0.029895565 
number of iterations: 1666 
    9600    34.003413      279          156          123 1.5969533e-13 1.1202016e-14          0.1 0.0090026967    6.6762526  0.029895506 
number of iterations: 1740 
    9700    34.205698      281          158          123 1.6181165e-13 1.1238579e-14          0.1 0.0090027319    6.7994672  0.029895448 
number of iterations: 1746 
    9800    34.422526      285          161          124 1.6395601e-13 1.1275552e-14          0.1 0.0090027733    6.9243182  0.029895379 
number of iterations: 1665 
    9900    34.609126      288          164          124 1.6612878e-13 1.1312934e-14          0.1 0.0090028078    7.0508277  0.029895321 
number of iterations: 1724 
   10000    34.816442      289          165          124 1.6833036e-13 1.1350727e-14          0.1 0.0090028501     7.179018  0.029895251 
number of iterations: 1650 
   10100    35.003439      289          165          124 1.705611e-13 1.1388931e-14          0.1 0.0090028827    7.3089112  0.029895196 
number of iterations: 1656 
   10200    35.181586      293          169          124 1.7282141e-13 1.1427546e-14          0.1 0.0090029209    7.4405302  0.029895133 
number of iterations: 1814 
   10300    35.394265      298          174          124 1.7511167e-13 1.1466571e-14          0.1 0.0090029651    7.5738977  0.029895059 
number of iterations: 1677 
   10400    35.590574      301          177          124 1.7743229e-13 1.1506009e-14          0.1 0.0090030069    7.7090366  0.029894989 
number of iterations: 1662 
   10500     35.78067      303          179          124 1.7978366e-13 1.1545858e-14          0.1 0.0090030439    7.8459712  0.029894928 
number of iterations: 1753 
   10600    35.992079      305          181          124 1.8216618e-13 1.1586118e-14          0.1 0.0090030951    7.9847249  0.029894842 
number of iterations: 1635 
   10700    36.193563      311          187          124 1.8458028e-13 1.1626792e-14          0.1 0.0090031238    8.1253229  0.029894795 
number of iterations: 1671 
   10800    36.400792      312          187          125 1.8702638e-13 1.1667878e-14          0.1 0.0090031652    8.2677893  0.029894726 
number of iterations: 1681 
   10900    36.595287      314          189          125 1.8950489e-13 1.1709378e-14          0.1 0.0090032072    8.4121487  0.029894656 
number of iterations: 1677 
   11000     36.79856      317          191          126 1.9201624e-13 1.1751291e-14          0.1 0.0090032473    8.5584266  0.029894589 
number of iterations: 1670 
   11100    37.013616      320          194          126 1.9456088e-13 1.1793619e-14          0.1 0.0090032848    8.7066483  0.029894527 
number of iterations: 1741 
   11200    37.195891      322          196          126 1.9713924e-13 1.1836361e-14          0.1 0.0090033333    8.8568402  0.029894446 
number of iterations: 1689 
   11300    37.393616      325          198          127 1.9975176e-13 1.1879519e-14          0.1 0.0090033708    9.0090279  0.029894383 
number of iterations: 1698 
   11400    37.716465      329          202          127 2.0239891e-13 1.1923092e-14          0.1 0.0090034142    9.1632378  0.029894311 
number of iterations: 1675 
   11500    37.930938      332          205          127 2.0508114e-13 1.1967081e-14          0.1 0.0090034553     9.319497  0.029894242 
number of iterations: 1757 
   11600    38.135576      336          209          127 2.0779891e-13 1.2011486e-14          0.1 0.0090035039    9.4778332  0.029894162 
number of iterations: 1735 
   11700    38.380686      339          212          127 2.105527e-13 1.205631e-14          0.1 0.0090035554     9.638274  0.029894076 
number of iterations: 1701 
   11800     38.58373      339          212          127 2.1334299e-13 1.2101551e-14          0.1 0.0090036026    9.8008465  0.029893997 
number of iterations: 1737 
   11900    38.789167      341          214          127 2.1617025e-13 1.2147211e-14          0.1 0.0090036466    9.9655799  0.029893924 
number of iterations: 1670 
   12000    38.963709      344          216          128 2.1903498e-13 1.2193289e-14          0.1 0.0090036908    10.132503   0.02989385 
number of iterations: 1717 
   12100     39.17848      348          219          129 2.2193767e-13 1.2239787e-14          0.1 0.0090037412    10.301645  0.029893766 
number of iterations: 1757 
   12200    39.371467      353          224          129 2.2487883e-13 1.2286705e-14          0.1 0.0090037932    10.473034   0.02989368 
number of iterations: 1717 
   12300    39.557793      355          226          129 2.2785897e-13 1.2334045e-14          0.1 0.0090038435      10.6467  0.029893596 
number of iterations: 1785 
   12400     39.75148      359          230          129 2.3087859e-13 1.2381807e-14          0.1 0.0090039046    10.822676  0.029893494 
number of iterations: 1709 
   12500    39.958662      363          231          132 2.3393824e-13 1.2429991e-14          0.1 0.0090039482     11.00099  0.029893421 
number of iterations: 1777 
   12600    40.164175      367          234          133 2.3703843e-13 1.2478599e-14          0.1 0.0090040049    11.181674  0.029893327 
number of iterations: 1771 
   12700    40.340851      368          235          133 2.4017971e-13 1.2527631e-14          0.1 0.0090040597    11.364761  0.029893236 
number of iterations: 1754 
   12800    40.536689      369          236          133 2.4336262e-13 1.2577089e-14          0.1 0.0090041135    11.550281  0.029893146 
number of iterations: 1739 
   12900    40.740838      373          240          133 2.465877e-13 1.2626972e-14          0.1 0.0090041681    11.738267  0.029893055 
number of iterations: 1762 
   13000     40.93502      378          245          133 2.4985553e-13 1.2677283e-14          0.1 0.0090042222    11.928753  0.029892965 
number of iterations: 1826 
   13100    41.144119      378          245          133 2.5316666e-13 1.2728021e-14          0.1 0.0090042842     12.12177  0.029892862 
number of iterations: 1787 
   13200    41.353847      385          251          134 2.5652167e-13 1.2779188e-14          0.1 0.0090043393    12.317353   0.02989277 
number of iterations: 1752 
   13300    41.572081      390          256          134 2.5992114e-13 1.2830785e-14          0.1 0.0090043935    12.515535   0.02989268 
number of iterations: 1821 
   13400    41.756927      394          260          134 2.6336566e-13 1.2882812e-14          0.1 0.0090044605     12.71635  0.029892568 
number of iterations: 1744 
   13500    41.962591      404          268          136 2.6685583e-13 1.293527e-14          0.1 0.0090045112    12.919836  0.029892484 
number of iterations: 1804 
   13600    42.163475      405          268          137 2.7039225e-13 1.2988161e-14          0.1 0.0090045787    13.126026  0.029892371 
number of iterations: 1778 
   13700    42.391903      408          271          137 2.7397554e-13 1.3041486e-14          0.1 0.0090046381    13.334957  0.029892272 
number of iterations: 1834 
   13800    42.607742      413          276          137 2.7760631e-13 1.3095245e-14          0.1 0.0090046988    13.546665  0.029892171 
number of iterations: 1821 
   13900     42.81648      418          280          138 2.812852e-13 1.3149441e-14          0.1 0.0090047801    13.761187  0.029892036 
number of iterations: 1769 
   14000    43.023704      421          282          139 2.8501284e-13 1.3204073e-14          0.1 0.0090048466    13.978561  0.029891925 
number of iterations: 1762 
   14100    43.230398      423          284          139 2.8878988e-13 1.3259143e-14          0.1 0.0090049027    14.198824  0.029891832 
number of iterations: 1767 
   14200    43.430798      428          289          139 2.9261697e-13 1.3314652e-14          0.1 0.0090049669    14.422016  0.029891725 
number of iterations: 1784 
   14300    43.617342      432          292          140 2.9649479e-13 1.3370601e-14          0.1 0.0090050269    14.648174  0.029891625 
number of iterations: 1805 
   14400    43.813718      434          294          140 3.0042399e-13 1.3426992e-14          0.1 0.0090050858     14.87734  0.029891527 
number of iterations: 1798 
   14500     44.00737      435          294          141 3.0440526e-13 1.3483825e-14          0.1 0.0090051587    15.109551  0.029891405 
number of iterations: 1834 
   14600    44.218709      442          300          142 3.0843929e-13 1.3541102e-14          0.1 0.0090052252    15.344849  0.029891294 
number of iterations: 1797 
   14700    44.408811      444          302          142 3.1252678e-13 1.3598823e-14          0.1 0.0090052946    15.583275  0.029891179 
number of iterations: 1832 
   14800    44.622175      448          305          143 3.1666844e-13 1.3656991e-14          0.1 0.0090053675    15.824871  0.029891057 
number of iterations: 1808 
   14900    44.832111      450          307          143 3.2086498e-13 1.3715606e-14          0.1 0.0090054375    16.069679  0.029890941 
number of iterations: 1845 
   15000    45.024048      461          317          144 3.2511714e-13 1.3774669e-14          0.1 0.0090055054     16.31774  0.029890828 
number of iterations: 1826 
   15100    45.237869      467          320          147 3.2942565e-13 1.3834183e-14          0.1 0.0090055785    16.569099  0.029890706 
number of iterations: 1852 
   15200    45.454015      475          326          149 3.3379126e-13 1.3894148e-14          0.1 0.0090056564      16.8238  0.029890576 
number of iterations: 1820 
   15300    45.631386      478          329          149 3.3821471e-13 1.3954566e-14          0.1 0.0090057328    17.081886  0.029890449 
number of iterations: 1745 
   15400    45.828796      490          338          152 3.4269679e-13 1.4015438e-14          0.1 0.0090057827    17.343403  0.029890366 
number of iterations: 1882 
   15500    46.023982      492          340          152 3.4723827e-13 1.4076764e-14          0.1 0.0090058645    17.608395   0.02989023 
number of iterations: 1796 
   15600    46.219564      494          342          152 3.5183993e-13 1.4138548e-14          0.1 0.0090059367    17.876911  0.029890109 
number of iterations: 1825 
   15700    46.451477      503          351          152 3.5650257e-13 1.420079e-14          0.1 0.0090060127    18.148995  0.029889983 
number of iterations: 1808 
   15800    46.647319      510          357          153  3.61227e-13 1.4263491e-14          0.1 0.0090060875    18.424696  0.029889858 
number of iterations: 1797 
   15900    46.838608      513          359          154 3.6601404e-13 1.4326653e-14          0.1 0.0090061595    18.704061  0.029889738 
number of iterations: 1789 
   16000    47.032175      520          364          156 3.7086452e-13 1.4390278e-14          0.1 0.0090062283    18.987141  0.029889624 
number of iterations: 1881 
   16100     47.27129      529          372          157 3.7577928e-13 1.4454367e-14          0.1 0.0090063103    19.273983  0.029889487 
number of iterations: 1877 
   16200    47.470083      534          376          158 3.8075917e-13 1.4518921e-14          0.1 0.0090064068    19.564638  0.029889326 
number of iterations: 1949 
   16300     47.69893      537          379          158 3.8580505e-13 1.4583941e-14          0.1 0.0090064992    19.859155  0.029889172 
number of iterations: 1888 
   16400    47.916039      542          384          158 3.909178e-13 1.464943e-14          0.1 0.0090065852    20.157588  0.029889029 
number of iterations: 1818 
   16500    48.157428      551          392          159 3.9609831e-13 1.4715389e-14          0.1 0.0090066516    20.459987  0.029888919 
number of iterations: 1838 
   16600    48.361772      559          400          159 4.0134747e-13 1.478182e-14          0.1 0.0090067406    20.766405   0.02988877 
number of iterations: 1876 
   16700    48.568893      567          406          161 4.0666619e-13 1.4848723e-14          0.1 0.0090068419    21.076897  0.029888602 
number of iterations: 1862 
   16800    48.778697      574          413          161 4.120554e-13 1.4916102e-14          0.1 0.0090069423    21.391515  0.029888434 
number of iterations: 1889 
   16900     48.97853      578          417          161 4.1751602e-13 1.4983957e-14          0.1 0.0090070526    21.710314  0.029888251 
number of iterations: 1889 
   17000     49.17197      584          423          161 4.2304901e-13 1.505229e-14          0.1 0.0090071537    22.033351  0.029888082 
number of iterations: 1866 
   17100     49.43841      590          427          163 4.2865532e-13 1.5121103e-14          0.1 0.0090072516    22.360681  0.029887919 
number of iterations: 1874 
   17200    49.654612      596          432          164 4.3433593e-13 1.5190397e-14          0.1 0.0090073361    22.692362  0.029887779 
number of iterations: 1871 
   17300    49.869858      600          436          164 4.4009182e-13 1.5260173e-14          0.1 0.0090074336     23.02845  0.029887616 
number of iterations: 1869 
   17400    50.058361      602          438          164 4.4592399e-13 1.5330435e-14          0.1 0.0090075322    23.369004  0.029887452 
number of iterations: 1877 
   17500    50.255451      610          446          164 4.5183344e-13 1.5401184e-14          0.1 0.0090076256    23.714084  0.029887296 
number of iterations: 1897 
   17600     50.47884      616          451          165 4.5782121e-13 1.547242e-14          0.1 0.0090077416     24.06375  0.029887103 
number of iterations: 1907 
   17700    50.679176      622          456          166 4.6388833e-13 1.5544147e-14          0.1 0.0090078462    24.418062  0.029886929 
number of iterations: 1903 
   17800    50.885965      628          462          166 4.7003585e-13 1.5616366e-14          0.1 0.0090079556    24.777083  0.029886747 
number of iterations: 1882 
   17900    51.097071      633          466          167 4.7626483e-13 1.5689078e-14          0.1 0.0090080537    25.140875  0.029886583 
number of iterations: 1871 
   18000    51.308976      636          469          167 4.8257637e-13 1.5762286e-14          0.1 0.0090081553      25.5095  0.029886414 
number of iterations: 1876 
   18100    51.529628      643          476          167 4.8897154e-13 1.583599e-14          0.1 0.0090082578    25.883025  0.029886244 
number of iterations: 1889 
   18200    51.728679      651          484          167 4.9545147e-13 1.5910195e-14          0.1 0.0090083671    26.261512  0.029886061 
number of iterations: 1936 
   18300    51.928456      661          494          167 5.0201726e-13  1.59849e-14          0.1  0.009008471     26.64503  0.029885888 
number of iterations: 1935 
   18400    52.132223      669          501          168 5.0867007e-13 1.6060108e-14          0.1 0.0090086021    27.033644   0.02988567 
number of iterations: 1849 
   18500    52.335279      681          512          169 5.1541104e-13 1.6135822e-14          0.1 0.0090086997    27.427422  0.029885508 
number of iterations: 1903 
   18600    52.570054      690          521          169 5.2224135e-13 1.6212042e-14          0.1 0.0090088088    27.826434  0.029885326 
number of iterations: 1892 
   18700     52.83301      697          527          170 5.2916217e-13 1.6288771e-14          0.1 0.0090089161    28.230746  0.029885147 
number of iterations: 1916 
   18800    53.050885      708          538          170 5.361747e-13 1.6366011e-14          0.1 0.0090090352    28.640431  0.029884949 
number of iterations: 1930 
   18900    53.272134      715          543          172 5.4328017e-13 1.6443764e-14          0.1 0.0090091615    29.055559  0.029884738 
number of iterations: 1914 
   19000    53.494327      720          546          174 5.5047979e-13 1.6522031e-14          0.1 0.0090092816    29.476204  0.029884538 
number of iterations: 1912 
   19100    53.718974      726          550          176 5.5777483e-13 1.6600815e-14          0.1 0.0090094078    29.902438  0.029884328 
number of iterations: 1935 
   19200     53.92425      735          558          177 5.6516654e-13 1.6680118e-14          0.1 0.0090095429    30.334335  0.029884103 
number of iterations: 1935 
   19300    54.153279      746          568          178 5.7265621e-13 1.6759943e-14          0.1 0.0090096738    30.771971  0.029883885 
number of iterations: 1925 
   19400    54.362022      754          573          181 5.8024513e-13 1.684029e-14          0.1 0.0090098036    31.215422  0.029883669 
number of iterations: 1922 
   19500    54.550936      762          581          181 5.8793462e-13 1.6921162e-14          0.1 0.0090099371    31.664764  0.029883447 
number of iterations: 1927 
   19600    54.747618      765          584          181 5.9572601e-13 1.7002561e-14          0.1 0.0090100671    32.120077   0.02988323 
number of iterations: 1920 
   19700    54.952598      777          594          183 6.0362066e-13 1.708449e-14          0.1 0.0090101925    32.581439  0.029883021 
number of iterations: 1936 
   19800    55.152121      785          600          185 6.1161992e-13 1.716695e-14          0.1 0.0090103238     33.04893  0.029882803 
number of iterations: 1990 
   19900    55.367628      796          610          186 6.1972519e-13 1.7249944e-14          0.1 0.0090104628    33.522633  0.029882571 
number of iterations: 1924 
   20000    55.578097      804          616          188 6.2793787e-13 1.7333474e-14          0.1  0.009010591    34.002629  0.029882358 
number of iterations: 1949 
   20100    55.822288      812          624          188 6.3625939e-13 1.7417542e-14          0.1 0.0090107265    34.489003  0.029882132 
number of iterations: 1943 
   20200    56.040055      824          633          191 6.4469118e-13 1.7502151e-14          0.1 0.0090108666    34.981839  0.029881899 
number of iterations: 1970 
   20300    56.240742      829          637          192 6.5323472e-13 1.7587302e-14          0.1  0.009011003    35.481221  0.029881672 
number of iterations: 1922 
   20400    56.444939      841          648          193 6.6189147e-13 1.7672998e-14          0.1 0.0090111321    35.987236  0.029881457 
number of iterations: 2008 
   20500    56.657408      854          658          196 6.7066294e-13 1.7759241e-14          0.1 0.0090113017    36.499974  0.029881174 
number of iterations: 1973 
   20600    56.869143      864          666          198 6.7955065e-13 1.7846034e-14          0.1 0.0090114466    37.019524  0.029880933 
number of iterations: 1981 
   20700    57.079159      872          674          198 6.8855614e-13 1.7933379e-14          0.1 0.0090115994    37.545974  0.029880678 
number of iterations: 1988 
   20800    57.290614      881          682          199 6.9651698e-13 1.8021277e-14          0.1 0.0090117295    38.078525  0.029880462 
number of iterations: 1958 
   20900    57.511638      891          691          200 7.0574731e-13 1.8109732e-14          0.1 0.0090118786    38.618151  0.029880213 
number of iterations: 1969 
   21000    57.863801      903          702          201 7.1509997e-13 1.8198745e-14          0.1 0.0090120329    39.164945  0.029879956 
number of iterations: 1976 
   21100    58.093484      916          715          201 7.2457656e-13 1.8288319e-14          0.1  0.009012197    39.719002  0.029879683 
number of iterations: 1961 
   21200    58.385303      925          722          203 7.3417874e-13 1.8378457e-14          0.1 0.0090123538    40.280419  0.029879422 
number of iterations: 1974 
   21300     58.61641      934          731          203 7.4390817e-13 1.846916e-14          0.1 0.0090124983    40.849292  0.029879181 
number of iterations: 1963 
   21400    58.834592      938          734          204 7.5376653e-13 1.8560432e-14          0.1 0.0090126568    41.425722  0.029878917 
number of iterations: 2020 
   21500    59.050833      952          746          206 7.6375553e-13 1.8652276e-14          0.1 0.0090128288    42.009808  0.029878631 
number of iterations: 1993 
   21600    59.277796      966          760          206 7.7387691e-13 1.8744692e-14          0.1 0.0090130163    42.601653  0.029878319 
number of iterations: 1979 
   21700    59.485627      982          774          208 7.8413242e-13 1.8837685e-14          0.1 0.0090131964    43.201358  0.029878019 
number of iterations: 1971 
   21800    59.683814      996          786          210 7.9452384e-13 1.8931257e-14          0.1 0.0090133646    43.809028  0.029877739 
number of iterations: 1991 
   21900    59.926603     1009          799          210 8.0505296e-13 1.9025409e-14          0.1 0.0090135391    44.424769  0.029877448 
number of iterations: 2012 
   22000    60.152465     1018          807          211 8.1572161e-13 1.9120145e-14          0.1 0.0090137211    45.048689  0.029877145 
number of iterations: 1986 
   22100    60.360637     1031          820          211 8.2653165e-13 1.9215468e-14          0.1 0.0090138845    45.680896  0.029876873 
number of iterations: 2006 
   22200    60.575741     1048          836          212 8.3748494e-13 1.9311379e-14          0.1 0.0090140685    46.321499  0.029876566 
number of iterations: 2013 
   22300    60.792945     1061          847          214 8.4858338e-13 1.9407882e-14          0.1 0.0090142659     46.97061  0.029876238 
number of iterations: 1993 
   22400    61.020456     1066          852          214 8.598289e-13 1.9504979e-14          0.1 0.0090144299    47.628341  0.029875964 
number of iterations: 2026 
   22500    61.245413     1071          857          214 8.7122345e-13 1.9602673e-14          0.1 0.0090146289    48.294808  0.029875633 
number of iterations: 2016 
   22600    61.480999     1084          870          214  8.82769e-13 1.9700966e-14          0.1 0.0090148125    48.970127  0.029875327 
number of iterations: 1990 
   22700    61.683617     1098          884          214 8.9446755e-13 1.9799862e-14          0.1 0.0090149792    49.654415   0.02987505 
number of iterations: 2046 
   22800    61.922188     1107          891          216 9.0632113e-13 1.9899363e-14          0.1 0.0090151916    50.347791  0.029874696 
number of iterations: 2025 
   22900    62.132863     1123          907          216 9.1833179e-13 1.9999472e-14          0.1 0.0090154012    51.050376  0.029874347 
number of iterations: 2023 
   23000    62.364715     1137          920          217 9.3050162e-13 2.0100192e-14          0.1 0.0090155957    51.762294  0.029874023 
number of iterations: 2045 
   23100    62.592499     1149          931          218 9.4283272e-13 2.0201525e-14          0.1  0.009015811    52.483665  0.029873665 
number of iterations: 2064 
   23200    62.871061     1164          944          220 9.5532723e-13 2.0303474e-14          0.1  0.009016038    53.214615  0.029873286 
number of iterations: 2008 
   23300    63.077334     1183          961          222 9.6798732e-13 2.0406043e-14          0.1 0.0090162223    53.955274  0.029872979 
number of iterations: 2031 
   23400    63.300522     1202          978          224 9.8081519e-13 2.0509233e-14          0.1 0.0090164395    54.705769  0.029872618 
number of iterations: 2082 
   23500      63.5034     1210          985          225 9.9381304e-13 2.0613048e-14          0.1 0.0090166659    55.466231  0.029872241 
number of iterations: 2041 
   23600      63.7047     1220          995          225 1.0069831e-12 2.0717491e-14          0.1 0.0090168862    56.236791  0.029871874 
number of iterations: 2059 
   23700    64.016584     1230         1004          226 1.0203278e-12 2.0822564e-14          0.1 0.0090171176    57.017583  0.029871489 
number of iterations: 2044 
   23800    64.231117     1239         1013          226 1.0338493e-12 2.0928271e-14          0.1 0.0090173681    57.808743  0.029871071 
number of iterations: 2064 
   23900    64.460522     1255         1028          227 1.0475499e-12 2.1034615e-14          0.1 0.0090175978    58.610409  0.029870689 
number of iterations: 2051 
   24000    64.675596     1266         1039          227 1.0614321e-12 2.1141598e-14          0.1 0.0090178182    59.422719  0.029870322 
number of iterations: 2085 
   24100     64.88371     1277         1049          228 1.0754983e-12 2.1249223e-14          0.1 0.0090180679    60.245817  0.029869906 
number of iterations: 2069 
   24200    65.094607     1296         1066          230 1.0897509e-12 2.1357495e-14          0.1 0.0090183107    61.079844  0.029869502 
number of iterations: 2071 
   24300    65.301915     1313         1080          233 1.1041924e-12 2.1466414e-14          0.1 0.0090185564    61.924945  0.029869092 
number of iterations: 2043 
   24400    65.519915     1326         1093          233 1.1188253e-12 2.1575986e-14          0.1 0.0090187868    62.781269  0.029868709 
number of iterations: 2064 
   24500    65.755141     1346         1112          234 1.133652e-12 2.1686212e-14          0.1 0.0090190329    63.648962  0.029868299 
number of iterations: 2018 
   24600    66.017647     1365         1130          235 1.1486753e-12 2.1797096e-14          0.1 0.0090192594    64.528176  0.029867922 
number of iterations: 2080 
   24700    66.230473     1384         1146          238 1.1638976e-12 2.1908641e-14          0.1 0.0090195071    65.419063  0.029867509 
number of iterations: 2094 
   24800    66.453872     1404         1166          238 1.1793217e-12 2.2020851e-14          0.1 0.0090197642    66.321779  0.029867081 
number of iterations: 2066 
   24900    66.690945     1421         1183          238 1.1949501e-12 2.2133727e-14          0.1 0.0090200095    67.236479  0.029866673 
number of iterations: 2075 
   25000     66.90661     1440         1201          239 1.2107857e-12 2.2247274e-14          0.1  0.009020266    68.163324  0.029866245 
number of iterations: 2080 
   25100     67.12103     1454         1215          239 1.2268311e-12 2.2361495e-14          0.1  0.009020542    69.102475  0.029865786 
number of iterations: 2096 
   25200    67.342212     1464         1224          240 1.2430892e-12 2.2476393e-14          0.1 0.0090208223    70.054095  0.029865319 
number of iterations: 2105 
   25300    67.568606     1476         1236          240 1.2595627e-12 2.2591971e-14          0.1 0.0090210853    71.018348  0.029864881 
number of iterations: 2100 
   25400    67.805731     1492         1252          240 1.2762545e-12 2.2708232e-14          0.1 0.0090213565    71.995404  0.029864429 
number of iterations: 2086 
   25500    68.043876     1506         1264          242 1.2931675e-12 2.282518e-14          0.1 0.0090216339    72.985432  0.029863967 
number of iterations: 2097 
   25600    68.320532     1530         1287          243 1.3103046e-12 2.2942819e-14          0.1 0.0090219251    73.988603  0.029863482 
number of iterations: 2115 
   25700      68.5926     1551         1307          244 1.3276689e-12 2.3061151e-14          0.1  0.009022225    75.005092  0.029862983 
number of iterations: 2086 
   25800    68.835537     1569         1325          244 1.3452632e-12 2.318018e-14          0.1 0.0090225041    76.035076  0.029862518 
number of iterations: 2108 
   25900    69.095703     1586         1340          246 1.3630907e-12 2.3299909e-14          0.1 0.0090227985    77.078733  0.029862028 
number of iterations: 2128 
   26000    69.323251     1611         1362          249 1.3811545e-12 2.3420341e-14          0.1  0.009023098    78.136244  0.029861529 
number of iterations: 2094 
   26100    69.556828     1637         1386          251 1.3994576e-12 2.3541481e-14          0.1 0.0090233841    79.207795  0.029861053 
number of iterations: 2135 
   26200    69.784101     1657         1405          252 1.4180033e-12 2.3663331e-14          0.1 0.0090236875     80.29357  0.029860548 
number of iterations: 2148 
   26300    70.013506     1675         1422          253 1.4367948e-12 2.3785896e-14          0.1 0.0090240139    81.393757  0.029860004 
number of iterations: 2150 
   26400    70.273576     1693         1437          256 1.4558352e-12 2.3909178e-14          0.1 0.0090243333    82.508545  0.029859472 
number of iterations: 2083 
   26500    70.506568     1713         1454          259 1.475128e-12 2.403318e-14          0.1 0.0090246263    83.638131  0.029858984 
number of iterations: 2126 
   26600    70.745796     1729         1469          260 1.4946765e-12 2.4157908e-14          0.1  0.009024943     84.78271  0.029858457 
number of iterations: 2151 
   26700    70.970893     1756         1496          260 1.514484e-12 2.4283363e-14          0.1 0.0090252573    85.942485  0.029857933 
number of iterations: 2139 
   26800    71.204898     1778         1514          264 1.534554e-12 2.440955e-14          0.1 0.0090256095    87.117652  0.029857347 
number of iterations: 2149 
   26900    71.534538     1802         1535          267  1.55489e-12 2.4536472e-14          0.1 0.0090259924    88.308416  0.029856709 
number of iterations: 2143 
   27000     71.76617     1824         1555          269 1.5754955e-12 2.4664133e-14          0.1 0.0090263421    89.514986  0.029856127 
number of iterations: 2152 
   27100    71.997951     1849         1579          270 1.596374e-12 2.4792537e-14          0.1 0.0090266831     90.73757  0.029855559 
number of iterations: 2144 
   27200    72.232291     1873         1601          272 1.6175292e-12 2.4921688e-14          0.1 0.0090270552    91.976384  0.029854939 
number of iterations: 2168 
   27300    72.479932     1902         1627          275 1.6389647e-12 2.5051588e-14          0.1  0.009027416    93.231641  0.029854339 
number of iterations: 2160 
   27400    72.720893     1921         1646          275 1.6606843e-12 2.5182242e-14          0.1 0.0090277294    94.503557  0.029853817 
number of iterations: 2145 
   27500    72.947868     1944         1668          276 1.6826918e-12 2.5313653e-14          0.1 0.0090281034    95.792355  0.029853194 
number of iterations: 2138 
   27600    73.217734     1963         1686          277 1.7049909e-12 2.5445826e-14          0.1 0.0090284459     97.09826  0.029852624 
number of iterations: 2168 
   27700    73.460935     1986         1707          279 1.7275854e-12 2.5578764e-14          0.1 0.0090288271    98.421496  0.029851989 
number of iterations: 2138 
   27800    73.696097     2007         1728          279 1.7504795e-12 2.571247e-14          0.1 0.0090291881    99.762294  0.029851388 
number of iterations: 2175 
   27900    73.924558     2029         1749          280 1.7736768e-12 2.584695e-14          0.1 0.0090295626    101.12089  0.029850764 
number of iterations: 2178 
   28000    74.150813     2048         1766          282 1.7971816e-12 2.5982206e-14          0.1 0.0090299739    102.49751  0.029850079 
number of iterations: 2193 
   28100    74.396135     2072         1788          284 1.8209979e-12 2.6118243e-14          0.1 0.0090303932    103.89241  0.029849381 
number of iterations: 2170 
   28200    74.656086     2100         1816          284 1.8451298e-12 2.6255064e-14          0.1 0.0090308026    105.30582  0.029848699 
number of iterations: 2166 
   28300    74.875915     2125         1839          286 1.8695815e-12 2.6392674e-14          0.1 0.0090311914    106.73798  0.029848052 
number of iterations: 2176 
   28400    75.124315     2152         1866          286 1.8943572e-12 2.6531076e-14          0.1 0.0090316138    108.18916  0.029847348 
number of iterations: 2171 
   28500    75.367973     2175         1889          286 1.9194613e-12 2.6670275e-14          0.1 0.0090320105    109.65959  0.029846688 
number of iterations: 2167 
   28600      75.6029     2208         1922          286 1.944898e-12 2.6810274e-14          0.1 0.0090324244    111.14953  0.029845998 
number of iterations: 2188 
   28700    75.830916     2235         1949          286 1.9706718e-12 2.6951077e-14          0.1  0.009032854    112.65925  0.029845283 
number of iterations: 2192 
   28800    76.062891     2258         1969          289 1.9967871e-12 2.7092689e-14          0.1  0.009033294      114.189   0.02984455 
number of iterations: 2194 
   28900    76.300656     2286         1996          290 2.0232485e-12 2.7235113e-14          0.1 0.0090337197    115.73905  0.029843841 
number of iterations: 2195 
   29000    76.559985     2310         2019          291 2.0500606e-12 2.7378354e-14          0.1 0.0090341769    117.30968   0.02984308 
number of iterations: 2204 
   29100    76.798387     2331         2039          292 2.0765169e-12 2.7522416e-14          0.1 0.0090346197     118.9006  0.029842343 
number of iterations: 2195 
   29200    77.026168     2357         2065          292 2.1040349e-12 2.7667303e-14          0.1 0.0090350715    120.51263   0.02984159 
number of iterations: 2214 
   29300    77.261712     2388         2096          292 2.1319176e-12 2.7813019e-14          0.1 0.0090355256    122.14606  0.029840834 
number of iterations: 2195 
   29400    77.514618     2426         2133          293 2.1601697e-12 2.7959569e-14          0.1 0.0090359815    123.80115  0.029840075 
number of iterations: 2192 
   29500    77.773017     2455         2160          295 2.1887963e-12 2.8106956e-14          0.1 0.0090364379    125.47822  0.029839315 
number of iterations: 2215 
   29600    78.011008     2490         2192          298 2.2178021e-12 2.8255186e-14          0.1 0.0090369458    127.17754  0.029838469 
number of iterations: 2210 
   29700      78.3108     2521         2222          299 2.2471924e-12 2.8404261e-14          0.1 0.0090374591    128.89941  0.029837614 
number of iterations: 2244 
   29800    78.562831     2541         2241          300 2.2769722e-12 2.8554188e-14          0.1 0.0090379421    130.64413   0.02983681 
number of iterations: 2212 
   29900    78.841277     2566         2265          301 2.3071465e-12 2.8704969e-14          0.1 0.0090384315      132.412  0.029835995 
number of iterations: 2197 
   30000    79.070113     2596         2289          307 2.3377208e-12 2.885661e-14          0.1 0.0090388924    134.20332  0.029835227 
number of iterations: 2207 
   30100    79.324725     2619         2312          307 2.3687002e-12 2.9009114e-14          0.1 0.0090393894    136.01842    0.0298344 
number of iterations: 2242 
   30200    79.600253     2657         2347          310 2.4000901e-12 2.9162487e-14          0.1 0.0090399129     137.8576  0.029833528 
number of iterations: 2235 
   30300    79.855956     2697         2384          313 2.431896e-12 2.9316732e-14          0.1 0.0090404507    139.72119  0.029832632 
number of iterations: 2203 
   30400    80.096674     2732         2417          315 2.4641234e-12 2.9471854e-14          0.1 0.0090409503     141.6095    0.0298318 
number of iterations: 2253 
   30500    80.341249     2771         2456          315 2.4967779e-12 2.9627858e-14          0.1 0.0090415206    143.52287  0.029830851 
number of iterations: 2251 
   30600    80.593481     2808         2492          316 2.5298651e-12 2.9784748e-14          0.1 0.0090420668    145.46163  0.029829941 
number of iterations: 2248 
   30700    80.859585     2848         2529          319 2.5624355e-12 2.9942529e-14          0.1 0.0090426198    147.42539   0.02982902 
number of iterations: 2235 
   30800     81.11002     2889         2568          321 2.5963927e-12 3.0101205e-14          0.1 0.0090431912    149.41521  0.029828069 
number of iterations: 2203 
   30900     81.37053     2921         2599          322   2.6308e-12 3.0260781e-14          0.1 0.0090436565    151.43142  0.029827294 
number of iterations: 2290 
   31000    81.640141     2958         2635          323 2.6656632e-12 3.0421262e-14          0.1 0.0090442657    153.47439   0.02982628 
number of iterations: 2267 
   31100    81.913762     3000         2676          324 2.7009884e-12 3.0582652e-14          0.1 0.0090448608    155.54446  0.029825289 
number of iterations: 2255 
   31200    82.182894     3039         2714          325 2.7367818e-12 3.0744956e-14          0.1 0.0090454394      157.642  0.029824325 
number of iterations: 2283 
   31300    82.451811     3071         2745          326 2.7730494e-12 3.0908179e-14          0.1 0.0090460431    159.76737   0.02982332 
number of iterations: 2248 
   31400    82.695763     3108         2779          329 2.8097977e-12 3.1072326e-14          0.1 0.0090466233    161.92094  0.029822354 
number of iterations: 2274 
   31500    82.963986     3135         2806          329 2.8458065e-12  3.12374e-14          0.1 0.0090472316    164.10214  0.029821341 
number of iterations: 2246 
   31600    83.236108     3168         2836          332 2.8821184e-12 3.1403408e-14          0.1 0.0090477946    166.31122  0.029820403 
number of iterations: 2267 
   31700    83.487513     3210         2878          332 2.920312e-12 3.1570353e-14          0.1 0.0090484259     168.5496  0.029819352 
number of iterations: 2268 
   31800    83.734808     3243         2910          333 2.958098e-12 3.1738241e-14          0.1 0.0090490393    170.81698   0.02981833 
number of iterations: 2266 
   31900    84.001088     3286         2950          336 2.9972985e-12 3.1907077e-14          0.1 0.0090496642    173.11444   0.02981729 
number of iterations: 2272 
   32000    84.287879     3322         2985          337 3.0370185e-12 3.2076866e-14          0.1 0.0090503545    175.44239   0.02981614 
number of iterations: 2270 
   32100    84.545253     3367         3028          339 3.0772647e-12 3.2247613e-14          0.1 0.0090509973    177.80122   0.02981507 
number of iterations: 2261 
   32200    84.793308     3407         3065          342 3.1180444e-12 3.2419322e-14          0.1 0.0090516646    180.19134  0.029813959 
number of iterations: 2295 
   32300    85.064055     3454         3112          342 3.1593644e-12 3.2591999e-14          0.1 0.0090523093    182.61317  0.029812885 
number of iterations: 2289 
   32400    85.308249     3503         3157          346 3.200138e-12 3.2765649e-14          0.1 0.0090530278     185.0663  0.029811689 
number of iterations: 2293 
   32500    85.572251     3537         3189          348 3.2425459e-12 3.2940276e-14          0.1 0.0090536936    187.55198   0.02981058 
number of iterations: 2327 
   32600    85.841864     3572         3222          350 3.2842003e-12 3.3115887e-14          0.1 0.0090544358    190.06962  0.029809344 
number of iterations: 2291 
   32700    86.111736     3625         3271          354 3.3277222e-12 3.3292485e-14          0.1 0.0090550769    192.62066  0.029808277 
number of iterations: 2293 
   32800    86.395676     3678         3323          355 3.3718208e-12 3.3470076e-14          0.1 0.0090558037    195.20556  0.029807066 
number of iterations: 2306 
   32900    86.663626     3723         3366          357 3.4165038e-12 3.3648666e-14          0.1 0.0090564975    197.82474  0.029805911 
number of iterations: 2279 
   33000    86.946029     3777         3418          359 3.4617789e-12 3.3828259e-14          0.1 0.0090572033    200.47868  0.029804736 
number of iterations: 2333 
   33100    87.222693     3822         3460          362 3.507654e-12 3.4008861e-14          0.1 0.0090580034    203.16782  0.029803403 
number of iterations: 2305 
   33200    87.494696     3875         3507          368 3.5541369e-12 3.4190478e-14          0.1 0.0090587678    205.89264   0.02980213 
number of iterations: 2309 
   33300    87.797365     3910         3542          368 3.6003681e-12 3.4373114e-14          0.1 0.0090595111    208.65295  0.029800893 
number of iterations: 2282 
   33400    88.044384     3962         3591          371 3.6480797e-12 3.4556776e-14          0.1 0.0090602122    211.44986  0.029799725 
number of iterations: 2324 
   33500    88.354503     4017         3643          374 3.6964235e-12 3.4741468e-14          0.1 0.0090609966    214.28388  0.029798419 
number of iterations: 2305 
   33600     88.64625     4073         3696          377 3.7431525e-12 3.4927196e-14          0.1 0.0090617663    217.15377  0.029797137 
number of iterations: 2295 
   33700    88.918947     4124         3745          379 3.7904536e-12 3.5113965e-14          0.1  0.009062519    220.05997  0.029795884 
number of iterations: 2332 
   33800    89.299556     4182         3801          381 3.8395688e-12 3.530178e-14          0.1 0.0090632866    223.00388  0.029794606 
number of iterations: 2340 
   33900      89.5636     4236         3850          386 3.889025e-12 3.5490648e-14          0.1  0.009064116    225.98575  0.029793225 
number of iterations: 2307 
   34000    89.835247     4278         3891          387 3.9405618e-12 3.5680574e-14          0.1  0.009064906    229.00719  0.029791909 
number of iterations: 2335 
   34100    90.087704     4334         3945          389 3.9915766e-12 3.5871563e-14          0.1 0.0090657455    232.06777  0.029790511 
number of iterations: 2324 
   34200    90.372335     4389         3998          391 4.0430096e-12 3.606362e-14          0.1 0.0090665699    235.16785  0.029789138 
number of iterations: 2353 
   34300    90.643888     4446         4052          394 4.0952221e-12 3.6256752e-14          0.1 0.0090673922      238.308  0.029787769 
number of iterations: 2326 
   34400     90.91083     4500         4105          395 4.1494913e-12 3.6450963e-14          0.1  0.009068255    241.48981  0.029786332 
number of iterations: 2365 
   34500    91.230831     4540         4143          397 4.2044796e-12 3.6646261e-14          0.1 0.0090691917    244.71383  0.029784773 
number of iterations: 2339 
   34600    91.552599     4594         4196          398 4.2592054e-12 3.684265e-14          0.1 0.0090701074    247.97987  0.029783248 
number of iterations: 2350 
   34700    91.831795     4664         4263          401 4.3156476e-12 3.7040138e-14          0.1 0.0090710435    251.28923  0.029781689 
number of iterations: 2346 
   34800    92.088529     4718         4316          402 4.3701585e-12 3.7238729e-14          0.1 0.0090719657    254.64044  0.029780153 
number of iterations: 2366 
   34900    92.350883     4764         4361          403 4.428071e-12 3.743843e-14          0.1 0.0090728986     258.0361    0.0297786 
number of iterations: 2371 
   35000     92.60991     4823         4418          405 4.4855835e-12 3.7639245e-14          0.1 0.0090738945    261.47593  0.029776941 
Loop time of 92.6099 on 32 procs for 35000 steps with 4823 atoms

Performance: 326530791.022 tau/day, 377.929 timesteps/s
91.9% CPU use with 32 MPI tasks x no OpenMP threads

MPI task timing breakdown:
Section |  min time  |  avg time  |  max time  |%varavg| %total
---------------------------------------------------------------
Pair    | 0.011556   | 0.069732   | 0.17135    |  17.0 |  0.08
Neigh   | 0.0046854  | 0.020479   | 0.045121   |   8.3 |  0.02
Comm    | 0.074235   | 0.17467    | 0.27227    |  12.4 |  0.19
Output  | 22.485     | 22.486     | 22.494     |   0.0 | 24.28
Modify  | 69.431     | 69.472     | 69.527     |   0.4 | 75.02
Other   |            | 0.387      |            |       |  0.42

Nlocal:    150.719 ave 321 max 16 min
Histogram: 7 1 4 4 2 3 5 1 2 3
Nghost:    79.7188 ave 198 max 18 min
Histogram: 6 3 6 5 5 2 2 1 1 1
Neighs:    526.656 ave 1242 max 26 min
Histogram: 7 1 5 3 3 6 2 0 2 3

Total # of neighbors = 16853
Ave neighs/atom = 3.4943
Neighbor list builds = 697
Dangerous builds = 0
Total wall time: 0:01:32
