LAMMPS (20 Nov 2019)
# NUFEB simulation

atom_style	bio
atom_modify	map array sort 1000 5.0e-7
boundary	ff ff ff
newton		off
processors  * * *

comm_modify	vel yes
#variable reps loop 1
read_data_bio atom_50_50_100_1_2021-08-31.in
  orthogonal box = (0 0 0) to (0.0001 0.0001 1e-05)
  8 by 4 by 1 MPI processor grid
  reading atoms ...
  100 atoms
  4 nutrients
#shell mkdir Run_50_50_100_1
#shell cd Run_50_50_100_1
##############Define initial particle distribution##############

lattice sc 1e-6 origin 0 0 0
Lattice spacing in x,y,z = 100 100 100
region reg block 0 1000 0 1000 0 100

group CYANO type 1
50 atoms in group CYANO
group ECW type 2
50 atoms in group ECW

neighbor	5e-7 bin
neigh_modify	delay 0 one 5000

##############Define DEM Variables&Commands##############

pair_style  gran/hooke/history 1.e-4 NULL 1.e-5 NULL 0.0 1
pair_coeff  * *

timestep 10

fix 1 all nve/limit 1e-8
fix fv all viscous 1e-5

fix zw all wall/gran hooke/history 2000 NULL 500.0 NULL 1.5 0 zplane  0.0  1e-05

variable kanc equal 50

variable ke equal 5e+10


##############Define IBm Variables##############

#variables used in fix eps_extract
variable EPSdens equal 30
variable EPSratio equal 1.3

#variables used in fix division
variable divDia1 equal 1.96e-6
variable divDia2 equal 1.04e-6

#variables used in fix kinetics
variable diffT equal 1e-4
variable tol equal 1e-11
variable etaHET equal 0.6
variable layer equal -1

#variables used in fix death
#variable deadDia equal 9e-7


##############Define IBm Commands##############

fix k1 all kinetics 100 50 50 5 v_diffT v_layer niter 1000000
fix kgm all kinetics/growth/monod sucexp 1.0
fix g1 all kinetics/diffusion v_tol
fix d1 CYANO divide 100 v_EPSdens v_divDia1 745388
fix d2 ECW divide 100 v_EPSdens v_divDia2 134186
#fix d2 all death 1 v_deadDia demflag 0


##############Define IBm Computes##############

compute myNtypes all ntypes
compute myMass all biomass
compute myCon all avg_con

##############Simulation exit condition##############
variable co2 equal c_myCon[4]
fix 10 all halt 100 v_co2 <= 1e-19

variable light equal c_myCon[1]
fix 11 all halt 100 v_light <= 1e-19

##############Simulation Output##############
dump    id all custom 100 output.lammmps id type diameter x y z
dump    du1 all vtk 100 atom_*.vtu id type diameter x y z
dump    du2 all grid 100 grid_%_*.vti con
dump    du3 all bio 100 ntypes biomass avg_con
dump    traj all bio/hdf5 100 trajectory.h5 id type radius x y z con
thermo_style    custom step cpu atoms c_myNtypes[*] c_myMass[*] c_myCon[*]
thermo		100
thermo_modify	lost ignore


run 35000
Model is defined as a closed system. 
Neighbor list info ...
  update every 1 steps, delay 0 steps, check yes
  max neighbors/atom: 5000, page size: 100000
  master list distance cutoff = 2.44e-06
  ghost atom cutoff = 2.44e-06
  binsize = 1.22e-06, bins = 82 82 9
  1 neighbor lists, perpetual/occasional/extra = 1 0 0
  (1) pair gran/hooke/history, perpetual
      attributes: half, newton off, size, history
      pair build: half/size/bin/newtoff
      stencil: half/bin/3d/newtoff
      bin: standard
Per MPI rank memory allocation (min/avg/max) = 6.792 | 10.8 | 12.11 Mbytes
Step CPU Atoms c_myNtypes[1] c_myNtypes[2] c_myMass[1] c_myMass[2] c_myCon[1] c_myCon[2] c_myCon[3] c_myCon[4] 
       0            0      100           50           50 4.8000227e-14 9.0816273e-15          0.1        0.009     3.42e-20       0.0299 
number of iterations: 321952 
     100    15.483918      135           50           85 4.8636337e-14 9.0751616e-15          0.1 0.0090008496  0.038556886  0.029898585 
number of iterations: 3917 
     200    15.806537      150           50          100 4.9280876e-14 9.0699192e-15          0.1 0.0090008608  0.076394441  0.029898566 
number of iterations: 2461 
     300    16.055328      150           50          100 4.9933957e-14 9.0659128e-15          0.1 0.0090008721   0.11469999  0.029898547 
number of iterations: 1984 
     400    16.314073      152           52          100 5.0595692e-14 9.063132e-15          0.1  0.009000886   0.15348372  0.029898524 
number of iterations: 1786 
     500    16.564335      152           52          100 5.1266197e-14 9.0615661e-15          0.1 0.0090008977   0.19275359  0.029898504 
number of iterations: 1640 
     600     16.78826      152           52          100 5.1945588e-14 9.0612042e-15          0.1 0.0090009095   0.23251681  0.029898485 
number of iterations: 1527 
     700    16.984379      152           52          100 5.2633982e-14 9.062036e-15          0.1 0.0090009215   0.27278065  0.029898465 
number of iterations: 1435 
     800    17.244193      152           52          100 5.3331499e-14 9.0640519e-15          0.1 0.0090009337   0.31355239  0.029898444 
number of iterations: 1404 
     900    17.429356      152           52          100 5.4038259e-14 9.0672426e-15          0.1  0.009000946   0.35483938  0.029898424 
number of iterations: 1474 
    1000    17.668499      153           53          100 5.4754386e-14 9.0715999e-15          0.1 0.0090009597   0.39664903  0.029898401 
number of iterations: 1401 
    1100    17.871646      154           54          100 5.5480003e-14 9.0771151e-15          0.1 0.0090009676   0.43898885  0.029898388 
number of iterations: 1412 
    1200    18.049849      154           54          100 5.6215235e-14 9.0837803e-15          0.1 0.0090009804    0.4818664  0.029898366 
number of iterations: 1456 
    1300     18.29811      158           57          101 5.6960212e-14 9.0915876e-15          0.1 0.0090009945   0.52528932  0.029898343 
number of iterations: 1418 
    1400    18.489662      158           57          101 5.7715061e-14 9.1005308e-15          0.1 0.0090010076   0.56926537  0.029898321 
number of iterations: 1511 
    1500    18.697269      161           60          101 5.8479913e-14 9.1106061e-15          0.1 0.0090010174   0.61380224  0.029898304 
number of iterations: 1422 
    1600    18.868286      161           60          101 5.9254901e-14 9.1218052e-15          0.1 0.0090010308   0.65890797  0.029898282 
number of iterations: 1425 
    1700    19.046648      161           60          101 6.004016e-14 9.1341225e-15          0.1 0.0090010444   0.70459058  0.029898259 
number of iterations: 1494 
    1800    19.254551      164           63          101 6.0835825e-14 9.1475525e-15          0.1 0.0090010488   0.75085822  0.029898252 
number of iterations: 1431 
    1900    19.442484      164           63          101 6.1642034e-14 9.1620908e-15          0.1 0.0090010626   0.79771903  0.029898229 
number of iterations: 1434 
    2000    19.647094      164           63          101 6.2458927e-14 9.1777331e-15          0.1 0.0090010767   0.84518132  0.029898205 
number of iterations: 1436 
    2100    19.861084      164           63          101 6.3286646e-14 9.1944755e-15          0.1 0.0090010909   0.89325348  0.029898182 
number of iterations: 1602 
    2200    20.093313      166           65          101 6.4125334e-14 9.2123148e-15          0.1 0.0090011089   0.94194386  0.029898151 
number of iterations: 1551 
    2300    20.287194      167           66          101 6.4975137e-14 9.2312474e-15          0.1  0.009001126    0.9912612  0.029898123 
number of iterations: 1448 
    2400    20.495871      167           66          101 6.5836201e-14 9.2512705e-15          0.1 0.0090011409    1.0412142  0.029898098 
number of iterations: 1569 
    2500    20.684359      168           67          101 6.6708677e-14 9.2723817e-15          0.1 0.0090011602    1.0918116  0.029898066 
number of iterations: 1510 
    2600    20.880135      171           70          101 6.7592714e-14 9.2945795e-15          0.1 0.0090011767    1.1430623  0.029898038 
number of iterations: 1459 
    2700    21.068905      172           70          102 6.8488467e-14 9.3178619e-15          0.1 0.0090011923    1.1949753  0.029898012 
number of iterations: 1462 
    2800    21.281816      172           70          102 6.9396091e-14 9.3422271e-15          0.1  0.009001208    1.2475599  0.029897986 
number of iterations: 1465 
    2900    21.509333      172           70          102 7.0315742e-14 9.3676739e-15          0.1  0.009001224    1.3008252  0.029897959 
number of iterations: 1505 
    3000    21.731656      174           72          102 7.1247581e-14 9.3942029e-15          0.1 0.0090012402    1.3547807  0.029897932 
number of iterations: 1487 
    3100    21.927356      177           75          102 7.2191769e-14 9.4218116e-15          0.1 0.0090012487    1.4094357  0.029897918 
number of iterations: 1470 
    3200    22.130413      177           75          102 7.314847e-14 9.4505007e-15          0.1 0.0090012652    1.4647999  0.029897891 
number of iterations: 1473 
    3300    22.349135      178           76          102 7.4117849e-14 9.4802704e-15          0.1  0.009001282    1.5208829  0.029897863 
number of iterations: 1480 
    3400    22.523518      179           77          102 7.5100074e-14 9.5111206e-15          0.1 0.0090012989    1.5776945  0.029897834 
number of iterations: 1473 
    3500    22.710602      180           78          102 7.6095316e-14 9.5430528e-15          0.1 0.0090013161    1.6352448  0.029897806 
number of iterations: 1481 
    3600     22.90039      180           78          102 7.7103747e-14 9.5760679e-15          0.1 0.0090013335     1.693544  0.029897777 
number of iterations: 1507 
    3700    23.075639      182           80          102 7.8125543e-14 9.6101682e-15          0.1 0.0090013511     1.752602  0.029897747 
number of iterations: 1593 
    3800    23.281131      183           81          102 7.9160879e-14 9.6453544e-15          0.1 0.0090013727    1.8124294  0.029897711 
number of iterations: 1489 
    3900    23.500485      183           81          102 8.0209935e-14 9.6816287e-15          0.1 0.0090013908    1.8730366  0.029897681 
number of iterations: 1492 
    4000    23.723051      184           81          103 8.1272894e-14 9.7189932e-15          0.1 0.0090014092    1.9344343   0.02989765 
number of iterations: 1495 
    4100     23.91081      185           81          104 8.2349939e-14 9.7574505e-15          0.1 0.0090014279    1.9966332  0.029897619 
number of iterations: 1506 
    4200     24.09029      186           82          104 8.3441258e-14 9.7970038e-15          0.1 0.0090014468    2.0596442  0.029897588 
number of iterations: 1501 
    4300    24.286451      188           82          106 8.4547039e-14 9.8376559e-15          0.1 0.0090014659    2.1234783  0.029897556 
number of iterations: 1483 
    4400    24.460815      191           84          107 8.5667474e-14 9.8794102e-15          0.1 0.0090014806    2.1881467  0.029897531 
number of iterations: 1680 
    4500    24.671829      193           86          107 8.6802757e-14 9.9222722e-15          0.1 0.0090015034    2.2536603  0.029897493 
number of iterations: 1509 
    4600    24.853227      193           86          107 8.7953085e-14 9.966244e-15          0.1 0.0090015233    2.3200309   0.02989746 
number of iterations: 1508 
    4700    25.027871      195           88          107 8.9118658e-14 1.001133e-14          0.1 0.0090015389    2.3872701  0.029897434 
number of iterations: 1515 
    4800    25.221552      195           88          107 9.0299677e-14 1.0057535e-14          0.1 0.0090015593    2.4553896    0.0298974 
number of iterations: 1517 
    4900     25.40353      195           88          107 9.1496347e-14 1.0104862e-14          0.1 0.0090015799    2.5244014  0.029897365 
number of iterations: 1520 
    5000    25.605343      195           88          107 9.2708876e-14 1.0153318e-14          0.1 0.0090016008    2.5943175   0.02989733 
number of iterations: 1523 
    5100     25.79744      195           88          107 9.3937473e-14 1.0202907e-14          0.1  0.009001622    2.6651501  0.029897295 
number of iterations: 1496 
    5200    25.975422      198           91          107 9.5182352e-14 1.0253634e-14          0.1 0.0090016346    2.7369115  0.029897274 
number of iterations: 1550 
    5300    26.157326      199           92          107 9.6443728e-14 1.0305506e-14          0.1 0.0090016562    2.8096143  0.029897238 
number of iterations: 1522 
    5400    26.351867      202           95          107 9.772182e-14 1.0358529e-14          0.1 0.0090016765    2.8832711  0.029897204 
number of iterations: 1533 
    5500     26.52781      203           95          108 9.901685e-14 1.0412708e-14          0.1 0.0090016987    2.9578948  0.029897167 
number of iterations: 1535 
    5600    26.720854      204           95          109 1.0032904e-13 1.046805e-14          0.1 0.0090017212    3.0334984  0.029897129 
number of iterations: 1511 
    5700    26.923842      207           97          110 1.0165862e-13 1.0524561e-14          0.1 0.0090017368    3.1100951  0.029897103 
number of iterations: 1670 
    5800    27.113164      211           99          112 1.0300582e-13 1.0582252e-14          0.1 0.0090017664    3.1876983  0.029897054 
number of iterations: 1544 
    5900    27.305542      213          100          113 1.0437088e-13 1.0641127e-14          0.1 0.0090017898    3.2663215  0.029897015 
number of iterations: 1547 
    6000    27.488177      216          101          115 1.0575402e-13 1.0701194e-14          0.1 0.0090018135    3.3459784  0.029896976 
number of iterations: 1549 
    6100    27.702484      218          102          116 1.071555e-13 1.076246e-14          0.1 0.0090018359    3.4266825  0.029896938 
number of iterations: 1548 
    6200    27.911314      225          108          117 1.0857554e-13 1.0824934e-14          0.1 0.0090018478    3.5084483  0.029896918 
number of iterations: 1555 
    6300    28.087974      225          108          117 1.1001441e-13 1.0888624e-14          0.1 0.0090018723    3.5912899  0.029896877 
number of iterations: 1551 
    6400    28.375394      227          109          118 1.1147234e-13 1.0953538e-14          0.1 0.0090018939    3.6752219  0.029896841 
number of iterations: 1614 
    6500    28.569855      230          111          119 1.129496e-13 1.1019686e-14          0.1  0.009001919    3.7602584  0.029896799 
number of iterations: 1572 
    6600    28.754581      232          111          121 1.1444643e-13 1.1087075e-14          0.1 0.0090019444    3.8464146  0.029896757 
number of iterations: 1612 
    6700    28.935019      238          116          122 1.1596309e-13 1.1155715e-14          0.1 0.0090019754    3.9337055  0.029896705 
number of iterations: 1569 
    6800    29.109557      238          116          122 1.1749986e-13 1.1225615e-14          0.1 0.0090020015    4.0221463  0.029896662 
number of iterations: 1573 
    6900    29.281452      239          117          122 1.1905699e-13 1.1296785e-14          0.1  0.009002028    4.1117524  0.029896618 
number of iterations: 1575 
    7000    29.468133      239          117          122 1.2063476e-13 1.1369234e-14          0.1 0.0090020549    4.2025393  0.029896573 
number of iterations: 1578 
    7100    29.663874      242          117          125 1.2223344e-13 1.1442974e-14          0.1 0.0090020821     4.294523  0.029896527 
number of iterations: 1607 
    7200    29.851807      245          118          127 1.238533e-13 1.1518015e-14          0.1 0.0090021111    4.3877194  0.029896479 
number of iterations: 1551 
    7300    30.011795      249          122          127 1.2549463e-13 1.1594366e-14          0.1 0.0090021325    4.4821449  0.029896443 
number of iterations: 1592 
    7400    30.181527      253          124          129 1.2715771e-13 1.167204e-14          0.1 0.0090021608    4.5778158  0.029896396 
number of iterations: 1605 
    7500    30.361361      258          127          131 1.2884283e-13 1.1751049e-14          0.1 0.0090021894    4.6747485  0.029896348 
number of iterations: 1590 
    7600    30.536221      258          127          131 1.3055028e-13 1.1831403e-14          0.1 0.0090022184      4.77296    0.0298963 
number of iterations: 1551 
    7700    30.717725      263          132          131 1.3228036e-13 1.1913113e-14          0.1  0.009002234    4.8724676  0.029896274 
number of iterations: 1636 
    7800    30.903043      267          136          131 1.3403336e-13 1.1996191e-14          0.1 0.0090022657    4.9732884  0.029896221 
number of iterations: 1594 
    7900    31.116904      267          136          131 1.358096e-13 1.2080649e-14          0.1 0.0090022898    5.0754399  0.029896181 
number of iterations: 1670 
    8000    31.323311      269          137          132 1.3760937e-13  1.21665e-14          0.1 0.0090023261    5.1789406   0.02989612 
number of iterations: 1602 
    8100    31.553942      272          139          133  1.39433e-13 1.2253757e-14          0.1 0.0090023521    5.2838078  0.029896077 
number of iterations: 1687 
    8200    31.741937      275          142          133 1.4128079e-13 1.2342432e-14          0.1 0.0090023861    5.3900597   0.02989602 
number of iterations: 1605 
    8300    31.931321      276          142          134 1.4315308e-13 1.2432541e-14          0.1 0.0090024115    5.4977148  0.029895978 
number of iterations: 1751 
    8400    32.130012      277          143          134 1.4505017e-13 1.2524095e-14          0.1 0.0090024542     5.606792  0.029895906 
number of iterations: 1616 
    8500    32.322617      280          145          135 1.469724e-13 1.2617107e-14          0.1 0.0090024833    5.7173103  0.029895858 
number of iterations: 1631 
    8600    32.506659      284          148          136 1.4892011e-13 1.2711592e-14          0.1 0.0090025166    5.8292891  0.029895802 
number of iterations: 1639 
    8700    32.683628      287          151          136 1.5089363e-13 1.2807563e-14          0.1 0.0090025517    5.9427473  0.029895744 
number of iterations: 1594 
    8800    32.869939      290          153          137 1.528933e-13 1.2905035e-14          0.1 0.0090025816     6.057705  0.029895694 
number of iterations: 1621 
    8900    33.050197      294          156          138 1.5491947e-13 1.3004023e-14          0.1 0.0090026158     6.174182  0.029895637 
number of iterations: 1594 
    9000    33.251525      297          159          138 1.569725e-13 1.3104541e-14          0.1 0.0090026457    6.2921991  0.029895587 
number of iterations: 1634 
    9100    33.438322      299          160          139 1.5905273e-13 1.3206604e-14          0.1 0.0090026777    6.4117763  0.029895534 
number of iterations: 1702 
    9200    33.628539      300          161          139 1.6116053e-13 1.3310229e-14          0.1 0.0090027164    6.5329347  0.029895469 
number of iterations: 1635 
    9300     33.82768      304          162          142 1.6329626e-13 1.3415431e-14          0.1 0.0090027524     6.655695  0.029895409 
number of iterations: 1683 
    9400    34.009685      307          164          143 1.6546029e-13 1.3522227e-14          0.1 0.0090027937    6.7800789   0.02989534 
number of iterations: 1762 
    9500    34.197284      315          171          144  1.67653e-13 1.3630633e-14          0.1 0.0090028501    6.9061077  0.029895246 
number of iterations: 1628 
    9600    34.391485      316          171          145 1.6987477e-13 1.3740665e-14          0.1 0.0090028878    7.0338034  0.029895183 
number of iterations: 1642 
    9700    34.577127      319          172          147 1.7212599e-13 1.385234e-14          0.1 0.0090029261    7.1631882  0.029895119 
number of iterations: 1650 
    9800    34.750869      320          172          148 1.7440703e-13 1.3965676e-14          0.1 0.0090029649    7.2942845  0.029895055 
number of iterations: 1651 
    9900    34.943416      323          174          149 1.7671831e-13 1.408069e-14          0.1 0.0090029965    7.4271151  0.029895002 
number of iterations: 1632 
   10000    35.114485      324          175          149 1.7906021e-13 1.4197399e-14          0.1 0.0090030305    7.5617032  0.029894945 
number of iterations: 1665 
   10100    35.334277      328          176          152 1.8143315e-13 1.4315822e-14          0.1 0.0090030707    7.6980721  0.029894878 
number of iterations: 1661 
   10200    35.526963      330          177          153 1.8383754e-13 1.4435977e-14          0.1 0.0090031114    7.8362456   0.02989481 
number of iterations: 1663 
   10300    35.706828      332          178          154 1.8627379e-13 1.4557883e-14          0.1 0.0090031526    7.9762476  0.029894741 
number of iterations: 1661 
   10400    35.887514      338          183          155 1.8874233e-13 1.4681558e-14          0.1 0.0090031914    8.1181028  0.029894677 
number of iterations: 1654 
   10500      36.0928      342          185          157 1.9124358e-13 1.4807022e-14          0.1 0.0090032295    8.2618357  0.029894613 
number of iterations: 1709 
   10600    36.283015      346          188          158 1.9377797e-13 1.4934294e-14          0.1 0.0090032767    8.4074714  0.029894535 
number of iterations: 1716 
   10700    36.491497      348          190          158 1.9634596e-13 1.5063395e-14          0.1 0.0090033249     8.555035  0.029894454 
number of iterations: 1661 
   10800    36.680286      353          193          160 1.9894797e-13 1.5194342e-14          0.1 0.0090033655    8.7045525  0.029894386 
number of iterations: 1709 
   10900    36.895589      358          196          162 2.0158447e-13 1.5327158e-14          0.1 0.0090034106    8.8560495  0.029894311 
number of iterations: 1673 
   11000    37.103193      364          199          165 2.042559e-13 1.5461865e-14          0.1 0.0090034525    9.0095523  0.029894241 
number of iterations: 1685 
   11100    37.314426      369          201          168 2.0696274e-13 1.5598482e-14          0.1 0.0090034956    9.1650874  0.029894169 
number of iterations: 1679 
   11200    37.510293      373          204          169 2.0970545e-13 1.573703e-14          0.1 0.0090035367    9.3226814  0.029894101 
number of iterations: 1687 
   11300    37.690991      376          205          171 2.124845e-13 1.5877531e-14          0.1 0.0090035767    9.4823622  0.029894034 
number of iterations: 1747 
   11400    37.883197      380          208          172 2.1530039e-13 1.6020008e-14          0.1 0.0090036301    9.6441577  0.029893945 
number of iterations: 1696 
   11500    38.067106      380          208          172 2.1815359e-13 1.6164481e-14          0.1 0.0090036782    9.8080958  0.029893865 
number of iterations: 1714 
   11600    38.288946      384          211          173 2.210446e-13 1.6310976e-14          0.1 0.0090037261    9.9742051  0.029893785 
number of iterations: 1758 
   11700    38.470044      389          214          175 2.2397393e-13 1.6459513e-14          0.1 0.0090037792    10.142515  0.029893696 
number of iterations: 1671 
   11800    38.651952      391          216          175 2.2694207e-13 1.6610118e-14          0.1 0.0090038192    10.313053   0.02989363 
number of iterations: 1694 
   11900    38.831621      392          217          175 2.2994955e-13 1.6762814e-14          0.1 0.0090038686    10.485851  0.029893547 
number of iterations: 1747 
   12000     39.02417      405          225          180 2.3299688e-13 1.6917624e-14          0.1 0.0090039218    10.660938  0.029893458 
number of iterations: 1723 
   12100    39.247379      411          230          181 2.360846e-13 1.7074572e-14          0.1 0.0090039773    10.838344  0.029893366 
number of iterations: 1757 
   12200    39.432868      415          233          182 2.3921324e-13 1.7233685e-14          0.1 0.0090040301      11.0181  0.029893278 
number of iterations: 1738 
   12300    39.623006      420          238          182 2.4238334e-13 1.7394984e-14          0.1 0.0090040824    11.200238  0.029893191 
number of iterations: 1667 
   12400    39.813146      423          241          182 2.4559544e-13 1.7558496e-14          0.1 0.0090041171    11.384789  0.029893133 
number of iterations: 1787 
   12500    40.007632      426          241          185 2.4885012e-13 1.7724247e-14          0.1 0.0090041761    11.571786  0.029893034 
number of iterations: 1820 
   12600    40.213388      436          246          190 2.5214793e-13 1.7892263e-14          0.1 0.0090042314     11.76126  0.029892942 
number of iterations: 1868 
   12700    40.413862      447          254          193 2.5548944e-13 1.806257e-14          0.1 0.0090043039    11.953244  0.029892821 
number of iterations: 1745 
   12800    40.613862      452          257          195 2.5887523e-13 1.8235198e-14          0.1 0.0090043579    12.147771  0.029892731 
number of iterations: 1800 
   12900    40.801249      458          261          197 2.6230589e-13 1.8410171e-14          0.1 0.0090044223    12.344876  0.029892624 
number of iterations: 1803 
   13000    41.011503      463          265          198 2.6578202e-13 1.8587519e-14          0.1 0.0090044932    12.544592  0.029892505 
number of iterations: 1753 
   13100     41.22069      470          270          200 2.6930421e-13 1.8767268e-14          0.1 0.0090045517    12.746955  0.029892408 
number of iterations: 1763 
   13200    41.480682      478          276          202 2.7287308e-13 1.8949447e-14          0.1 0.0090046055       12.952  0.029892318 
number of iterations: 1791 
   13300    41.697888      483          279          204 2.7648924e-13 1.9134084e-14          0.1 0.0090046712    13.159761  0.029892209 
number of iterations: 1741 
   13400    41.896225      493          282          211 2.8015332e-13 1.9321207e-14          0.1 0.0090047301    13.370277   0.02989211 
number of iterations: 1754 
   13500    42.081256      498          286          212 2.8386597e-13 1.9510848e-14          0.1 0.0090047859    13.583582  0.029892017 
number of iterations: 1851 
   13600    42.280285      505          292          213 2.8762781e-13 1.9703034e-14          0.1 0.0090048591    13.799715  0.029891895 
number of iterations: 1761 
   13700    42.491812      508          293          215 2.914395e-13 1.9897798e-14          0.1 0.0090049235    14.018713  0.029891788 
number of iterations: 1776 
   13800    42.685233      512          295          217 2.9530171e-13 2.009517e-14          0.1 0.0090049902    14.240613  0.029891676 
number of iterations: 1797 
   13900    42.907626      518          298          220 2.992151e-13 2.0295182e-14          0.1 0.0090050617    14.465455  0.029891557 
number of iterations: 1784 
   14000    43.102579      524          302          222 3.0318035e-13 2.0497864e-14          0.1 0.0090051308    14.693276  0.029891442 
number of iterations: 1761 
   14100    43.330093      530          306          224 3.0719815e-13 2.0703249e-14          0.1 0.0090051906    14.924116  0.029891342 
number of iterations: 1795 
   14200    43.531291      536          310          226 3.1126919e-13 2.091137e-14          0.1 0.0090052624    15.158017  0.029891222 
number of iterations: 1777 
   14300    43.724551      542          314          228 3.1539419e-13 2.112226e-14          0.1 0.0090053339    15.395018  0.029891103 
number of iterations: 1824 
   14400    43.911829      545          316          229 3.1957385e-13 2.1335953e-14          0.1 0.0090054073     15.63516  0.029890981 
number of iterations: 1822 
   14500     44.11005      548          318          230 3.2380889e-13 2.1552482e-14          0.1 0.0090054832    15.878486  0.029890854 
number of iterations: 1787 
   14600    44.310658      553          321          232 3.2810007e-13 2.1771882e-14          0.1 0.0090055498    16.125037  0.029890743 
number of iterations: 1830 
   14700    44.522883      561          327          234 3.324481e-13 2.1994187e-14          0.1 0.0090056307    16.374858  0.029890608 
number of iterations: 1791 
   14800    44.705509      571          333          238 3.3685376e-13 2.2219433e-14          0.1 0.0090057022     16.62799  0.029890489 
number of iterations: 1860 
   14900    44.895256      577          336          241 3.4131781e-13 2.2447653e-14          0.1 0.0090057841    16.884479  0.029890352 
number of iterations: 1852 
   15000    45.131575      584          340          244 3.4584101e-13 2.2678885e-14          0.1 0.0090058679    17.144367  0.029890213 
number of iterations: 1802 
   15100    45.328337      588          343          245 3.5042415e-13 2.2913166e-14          0.1 0.0090059391    17.407702  0.029890094 
number of iterations: 1812 
   15200    45.538512      593          345          248 3.5506803e-13 2.315053e-14          0.1 0.0090060193    17.674527   0.02988996 
number of iterations: 1840 
   15300    45.733561      595          346          249 3.5977345e-13 2.3391018e-14          0.1 0.0090061059     17.94489  0.029889816 
number of iterations: 1862 
   15400    45.937592      607          355          252 3.6454123e-13 2.3634667e-14          0.1 0.0090061966    18.218838  0.029889664 
number of iterations: 1786 
   15500    46.126275      610          357          253 3.6937219e-13 2.3881516e-14          0.1 0.0090062711    18.496418   0.02988954 
number of iterations: 1834 
   15600    46.336534      618          365          253 3.7426717e-13 2.4131602e-14          0.1 0.0090063602    18.777677  0.029889392 
number of iterations: 1761 
   15700    46.545984      631          372          259 3.7922702e-13 2.4384966e-14          0.1 0.0090064213    19.062666   0.02988929 
number of iterations: 1828 
   15800     46.74371      639          377          262 3.842526e-13 2.4641647e-14          0.1 0.0090065006    19.351434  0.029889157 
number of iterations: 1871 
   15900    46.955299      650          385          265 3.8934478e-13 2.4901692e-14          0.1 0.0090065898    19.644029  0.029889009 
number of iterations: 1816 
   16000    47.199856      655          389          266 3.9450444e-13 2.5165139e-14          0.1 0.0090066729    19.940503   0.02988887 
number of iterations: 1850 
   16100    47.411647      663          393          270 3.9973247e-13 2.5432028e-14          0.1 0.0090067644    20.240908  0.029888717 
number of iterations: 1833 
   16200    47.605441      669          396          273 4.0502979e-13  2.57024e-14          0.1 0.0090068512    20.545297  0.029888573 
number of iterations: 1871 
   16300    47.804383      676          401          275 4.1039731e-13 2.5976302e-14          0.1 0.0090069433    20.853721  0.029888419 
number of iterations: 1799 
   16400    48.000238      683          405          278 4.1583597e-13 2.6253775e-14          0.1 0.0090070255    21.166234  0.029888282 
number of iterations: 1890 
   16500    48.207858      696          411          285 4.2134669e-13 2.6534864e-14          0.1  0.009007128    21.482892  0.029888111 
number of iterations: 1867 
   16600    48.440718      703          416          287 4.2693044e-13 2.6819613e-14          0.1 0.0090072297    21.803748  0.029887941 
number of iterations: 1829 
   16700    48.635388      709          418          291 4.3258819e-13 2.7108068e-14          0.1 0.0090073195     22.12886  0.029887792 
number of iterations: 1933 
   16800     48.83894      719          428          291 4.3832092e-13 2.7400274e-14          0.1 0.0090074358    22.458282  0.029887598 
number of iterations: 1899 
   16900    49.057254      728          434          294 4.4412962e-13 2.7696275e-14          0.1 0.0090075282    22.792072  0.029887443 
number of iterations: 1918 
   17000    49.270052      737          442          295 4.5001529e-13 2.799612e-14          0.1  0.009007645     23.13029  0.029887249 
number of iterations: 1847 
   17100    49.471171      747          446          301 4.5597897e-13 2.8299857e-14          0.1 0.0090077505    23.472992  0.029887073 
number of iterations: 1843 
   17200    49.674368      752          450          302 4.6202167e-13 2.8607533e-14          0.1 0.0090078477    23.820238  0.029886911 
number of iterations: 1843 
   17300    49.873714      764          457          307 4.6814445e-13 2.8919198e-14          0.1 0.0090079412     24.17209  0.029886755 
number of iterations: 1842 
   17400    50.073635      772          463          309 4.7434837e-13  2.92349e-14          0.1 0.0090080312    24.528608  0.029886605 
number of iterations: 1876 
   17500    50.280574      786          471          315 4.8063451e-13 2.9554691e-14          0.1 0.0090081306    24.889855  0.029886439 
number of iterations: 1907 
   17600     50.48536      794          477          317 4.8700395e-13 2.987862e-14          0.1 0.0090082432    25.255893  0.029886251 
number of iterations: 1873 
   17700     50.70888      807          487          320 4.934578e-13 3.020674e-14          0.1 0.0090083435    25.626787  0.029886084 
number of iterations: 1861 
   17800    50.919645      815          491          324 4.9999718e-13 3.0539102e-14          0.1 0.0090084396    26.002598  0.029885923 
number of iterations: 1874 
   17900    51.155009      827          496          331 5.0662321e-13 3.0875759e-14          0.1 0.0090085382    26.383393  0.029885759 
number of iterations: 1892 
   18000    51.358177      839          506          333 5.1333706e-13 3.1216764e-14          0.1 0.0090086369    26.769238  0.029885594 
number of iterations: 1929 
   18100    51.646206      845          510          335 5.2013988e-13 3.1562171e-14          0.1 0.0090087646      27.1602  0.029885381 
number of iterations: 1919 
   18200    51.853528      855          518          337 5.2703285e-13 3.1912035e-14          0.1 0.0090088783    27.556348  0.029885192 
number of iterations: 1915 
   18300    52.068408      874          533          341 5.3401717e-13 3.2266413e-14          0.1   0.00900901     27.95775  0.029884972 
number of iterations: 1842 
   18400    52.265704      886          542          344 5.4109404e-13 3.2625359e-14          0.1 0.0090091029    28.364475  0.029884817 
number of iterations: 1909 
   18500    52.483269      894          546          348 5.482647e-13 3.2988932e-14          0.1 0.0090092152    28.776593   0.02988463 
number of iterations: 1884 
   18600    52.685517      906          554          352 5.5553038e-13 3.3357188e-14          0.1 0.0090093381    29.194177  0.029884425 
number of iterations: 1922 
   18700    52.897034      911          557          354 5.6289235e-13 3.3730185e-14          0.1 0.0090094556    29.617299  0.029884229 
number of iterations: 1914 
   18800    53.089177      919          558          361 5.7035188e-13 3.4107983e-14          0.1  0.009009584    30.046032  0.029884015 
number of iterations: 1959 
   18900    53.340969      935          571          364 5.7791026e-13 3.4490642e-14          0.1 0.0090097185    30.480452   0.02988379 
number of iterations: 1970 
   19000    53.555729      952          580          372 5.8556881e-13 3.4878222e-14          0.1 0.0090098535    30.920632  0.029883565 
number of iterations: 1923 
   19100    53.771414      968          589          379 5.9332885e-13 3.5270786e-14          0.1 0.0090099848     31.36665  0.029883346 
number of iterations: 1994 
   19200    53.980226      980          597          383 6.0119172e-13 3.5668393e-14          0.1 0.0090101135    31.818584  0.029883131 
number of iterations: 1941 
   19300    54.192825      994          605          389 6.091588e-13 3.607111e-14          0.1 0.0090102426    32.276512  0.029882916 
number of iterations: 1939 
   19400    54.399807     1004          611          393 6.1723145e-13 3.6478999e-14          0.1 0.0090103921    32.740514  0.029882667 
number of iterations: 1860 
   19500     54.61617     1013          615          398 6.2541109e-13 3.6892124e-14          0.1 0.0090105004     33.21067  0.029882486 
number of iterations: 1960 
   19600    54.833503     1020          621          399 6.3369912e-13 3.7310551e-14          0.1 0.0090106486    33.687062  0.029882239 
number of iterations: 1913 
   19700    55.061724     1033          632          401 6.4209699e-13 3.7734347e-14          0.1 0.0090107782    34.169772  0.029882023 
number of iterations: 1948 
   19800    55.299432     1054          646          408 6.5060614e-13 3.8163579e-14          0.1 0.0090109174    34.658884  0.029881791 
number of iterations: 1963 
   19900    55.498074     1066          656          410 6.5922806e-13 3.8598314e-14          0.1  0.009011072    35.154484  0.029881533 
number of iterations: 1963 
   20000    55.711665     1078          663          415 6.6796424e-13 3.9038622e-14          0.1  0.009011214    35.656657  0.029881296 
number of iterations: 1975 
   20100    55.923074     1087          669          418 6.7681619e-13 3.9484572e-14          0.1 0.0090113644     36.16549  0.029881045 
number of iterations: 1958 
   20200    56.149672     1100          675          425 6.8578544e-13 3.9936234e-14          0.1  0.009011513    36.681072  0.029880797 
number of iterations: 1985 
   20300     56.37109     1115          686          429 6.9487356e-13 4.0393682e-14          0.1 0.0090116828    37.203493  0.029880514 
number of iterations: 1946 
   20400    56.602516     1129          695          434 7.0408211e-13 4.0856988e-14          0.1 0.0090118318    37.732843  0.029880266 
number of iterations: 1953 
   20500    56.809673     1143          699          444 7.134127e-13 4.1326224e-14          0.1 0.0090119913    38.269212      0.02988 
number of iterations: 1973 
   20600    57.031851     1152          705          447 7.2286693e-13 4.1801464e-14          0.1 0.0090121586    38.812697  0.029879721 
number of iterations: 2004 
   20700    57.236013     1165          713          452 7.3244645e-13 4.2282786e-14          0.1 0.0090123352     39.36339  0.029879426 
number of iterations: 1949 
   20800    57.499165     1179          721          458 7.4215292e-13 4.2770263e-14          0.1 0.0090124837    39.921387  0.029879178 
number of iterations: 1987 
   20900    57.705945     1190          728          462 7.5198802e-13 4.3263975e-14          0.1 0.0090126662    40.486785  0.029878874 
number of iterations: 1954 
   21000    57.910966     1208          739          469 7.6195346e-13   4.3764e-14          0.1 0.0090128172    41.059684  0.029878622 
number of iterations: 1939 
   21100    58.119125     1233          756          477 7.7205095e-13 4.4270416e-14          0.1 0.0090129659    41.640181  0.029878374 
number of iterations: 1972 
   21200    58.351426     1243          764          479 7.8228227e-13 4.4783304e-14          0.1 0.0090131085    42.228377  0.029878136 
number of iterations: 1984 
   21300     58.59403     1257          772          485 7.9264916e-13 4.5302745e-14          0.1 0.0090132973    42.824375  0.029877821 
number of iterations: 1968 
   21400    58.803225     1273          785          488 8.0315344e-13 4.582882e-14          0.1 0.0090134528    43.428277  0.029877562 
number of iterations: 1983 
   21500    59.015544     1293          798          495 8.1379692e-13 4.6361615e-14          0.1 0.0090136392     44.04019  0.029877251 
number of iterations: 2002 
   21600     59.22726     1314          814          500 8.2458145e-13 4.6901212e-14          0.1 0.0090138202    44.660219  0.029876949 
number of iterations: 1973 
   21700    59.484227     1328          824          504 8.355089e-13 4.7447698e-14          0.1 0.0090139833    45.288472  0.029876677 
number of iterations: 1935 
   21800    59.687642     1344          837          507 8.4658115e-13 4.8001161e-14          0.1 0.0090141444    45.925058  0.029876408 
number of iterations: 2045 
   21900    59.905743     1356          842          514 8.5780014e-13 4.8561686e-14          0.1 0.0090143659    46.570087  0.029876039 
number of iterations: 2004 
   22000    60.112223     1373          851          522 8.691678e-13 4.9129363e-14          0.1 0.0090145501    47.223672  0.029875732 
number of iterations: 2039 
   22100    60.336291     1396          867          529 8.8068611e-13 4.9704283e-14          0.1 0.0090147657    47.885925  0.029875372 
number of iterations: 2007 
   22200    60.572539     1409          876          533 8.9235705e-13 5.0286536e-14          0.1 0.0090149584    48.556962  0.029875051 
number of iterations: 2006 
   22300    60.792041     1433          890          543 9.0418266e-13 5.0876215e-14          0.1 0.0090151568    49.236901   0.02987472 
number of iterations: 2004 
   22400    61.000259     1453          904          549 9.1616499e-13 5.1473413e-14          0.1  0.009015341    49.925859  0.029874413 
number of iterations: 1988 
   22500     61.22529     1467          914          553 9.283061e-13 5.2078224e-14          0.1 0.0090155386    50.623955  0.029874083 
number of iterations: 2015 
   22600    61.507174     1483          923          560 9.4060811e-13 5.2690743e-14          0.1 0.0090157292    51.331311  0.029873766 
number of iterations: 2014 
   22700    61.721827     1504          939          565 9.5307314e-13 5.3311071e-14          0.1 0.0090159405    52.048049  0.029873413 
number of iterations: 2047 
   22800    61.944219     1524          951          573 9.6570336e-13 5.3939304e-14          0.1 0.0090161626    52.774294  0.029873043 
number of iterations: 2010 
   22900    62.208218     1537          959          578 9.7850095e-13 5.4575541e-14          0.1 0.0090163645    53.510171  0.029872706 
number of iterations: 2026 
   23000    62.447628     1558          972          586 9.9146814e-13 5.5219883e-14          0.1 0.0090165872     54.25581  0.029872334 
number of iterations: 1996 
   23100    62.670114     1580          988          592 1.0046072e-12 5.5872433e-14          0.1 0.0090167883    55.011341  0.029871999 
number of iterations: 2045 
   23200    62.888337     1604         1005          599 1.0179203e-12 5.6533293e-14          0.1  0.009017024    55.776895  0.029871606 
number of iterations: 2078 
   23300    63.125189     1631         1022          609 1.0314099e-12 5.7202568e-14          0.1  0.009017265    56.552604  0.029871204 
number of iterations: 2045 
   23400    63.345399     1662         1042          620 1.0450782e-12 5.7880364e-14          0.1 0.0090174975    57.338602  0.029870816 
number of iterations: 2053 
   23500    63.562287     1677         1054          623 1.0589277e-12 5.856679e-14          0.1  0.009017733    58.135026  0.029870424 
number of iterations: 2048 
   23600    63.781208     1691         1064          627 1.0729607e-12 5.9261953e-14          0.1 0.0090179674    58.942012  0.029870033 
number of iterations: 2024 
   23700    63.992025     1714         1077          637 1.0871797e-12 5.9965963e-14          0.1  0.009018194    59.759704  0.029869655 
number of iterations: 2034 
   23800    64.200957     1738         1090          648 1.1015871e-12 6.0678934e-14          0.1 0.0090184344    60.588242  0.029869254 
number of iterations: 2081 
   23900    64.433661     1762         1107          655 1.1161854e-12 6.1400976e-14          0.1 0.0090186756    61.427769  0.029868851 
number of iterations: 2052 
   24000    64.649893     1781         1116          665 1.1309772e-12 6.2132207e-14          0.1   0.00901891    62.278433   0.02986846 
number of iterations: 2090 
   24100    64.896694     1802         1132          670 1.145965e-12 6.287274e-14          0.1 0.0090191919     63.14038   0.02986799 
number of iterations: 2059 
   24200    65.119391     1825         1147          678 1.1611514e-12 6.3622694e-14          0.1 0.0090194474     64.01376  0.029867564 
number of iterations: 2077 
   24300    65.332908     1843         1160          683 1.1765391e-12 6.4382187e-14          0.1 0.0090197076    64.898724   0.02986713 
number of iterations: 2066 
   24400    65.576361     1863         1173          690 1.1921306e-12 6.5151339e-14          0.1 0.0090199704    65.795428  0.029866692 
number of iterations: 2073 
   24500    65.806813     1887         1191          696 1.2079288e-12 6.5930273e-14          0.1 0.0090202297    66.704027   0.02986626 
number of iterations: 2074 
   24600    66.017879     1914         1211          703 1.2239364e-12 6.6719111e-14          0.1 0.0090204989    67.624679  0.029865811 
number of iterations: 2101 
   24700    66.249353     1940         1228          712 1.2401561e-12 6.751798e-14          0.1 0.0090207657    68.557542  0.029865366 
number of iterations: 2096 
   24800    66.484444     1962         1242          720 1.2565907e-12 6.8327005e-14          0.1 0.0090210421    69.502779  0.029864905 
number of iterations: 2056 
   24900    66.720135     1986         1255          731 1.2732431e-12 6.9146314e-14          0.1 0.0090213164    70.460554  0.029864447 
number of iterations: 2091 
   25000    66.956956     2003         1266          737 1.2901162e-12 6.9976039e-14          0.1 0.0090216173    71.431033  0.029863945 
number of iterations: 2115 
   25100    67.177808     2035         1286          749 1.3072129e-12 7.0816309e-14          0.1 0.0090219095    72.414384  0.029863458 
number of iterations: 2104 
   25200    67.449472     2052         1299          753 1.3245362e-12 7.1667257e-14          0.1 0.0090222011    73.410779  0.029862972 
number of iterations: 2091 
   25300    67.672582     2077         1316          761 1.342089e-12 7.2529019e-14          0.1 0.0090224894     74.42039  0.029862491 
number of iterations: 2110 
   25400    67.908374     2110         1336          774 1.3598745e-12 7.3401732e-14          0.1 0.0090227959    75.443391   0.02986198 
number of iterations: 2094 
   25500    68.138075     2137         1350          787 1.3778956e-12 7.4285533e-14          0.1 0.0090230826    76.479961  0.029861502 
number of iterations: 2074 
   25600    68.412139     2169         1371          798 1.3961555e-12 7.5180562e-14          0.1 0.0090233536     77.53028   0.02986105 
number of iterations: 2103 
   25700    68.648127     2204         1394          810 1.4146575e-12 7.6086961e-14          0.1 0.0090236561    78.594532  0.029860545 
number of iterations: 2100 
   25800    68.876247     2235         1416          819 1.4334046e-12 7.7004872e-14          0.1 0.0090239367    79.672901  0.029860077 
number of iterations: 2104 
   25900     69.10558     2254         1426          828 1.4524001e-12 7.7934442e-14          0.1 0.0090242418    80.765572  0.029859568 
number of iterations: 2108 
   26000    69.343523     2277         1441          836 1.4716474e-12 7.8875818e-14          0.1 0.0090245602    81.872738  0.029859037 
number of iterations: 2108 
   26100    69.603612     2314         1464          850 1.4911497e-12 7.982915e-14          0.1 0.0090248739    82.994589  0.029858514 
number of iterations: 2159 
   26200    69.848585     2338         1482          856 1.5109105e-12 8.079459e-14          0.1 0.0090252193    84.131321  0.029857938 
number of iterations: 2109 
   26300     70.07173     2365         1501          864 1.5309332e-12 8.1772289e-14          0.1 0.0090255632    85.283132  0.029857364 
number of iterations: 2093 
   26400    70.290068     2395         1524          871 1.5512211e-12 8.2762403e-14          0.1 0.0090258737     86.45022  0.029856847 
number of iterations: 2146 
   26500    70.534851     2429         1545          884 1.571778e-12 8.3765089e-14          0.1 0.0090262358    87.632789  0.029856243 
number of iterations: 2127 
   26600    70.770535     2464         1569          895 1.5926072e-12 8.4780505e-14          0.1 0.0090265372    88.831042   0.02985574 
number of iterations: 2132 
   26700    71.018415     2499         1588          911 1.6137125e-12 8.5808811e-14          0.1  0.009026859    90.045191  0.029855203 
number of iterations: 2136 
   26800    71.257311     2541         1612          929 1.6350975e-12 8.6850172e-14          0.1 0.0090272401    91.275446  0.029854568 
number of iterations: 2142 
   26900    71.556152     2569         1630          939 1.6567658e-12 8.7904751e-14          0.1 0.0090275682    92.522019   0.02985402 
number of iterations: 2166 
   27000    71.798851     2598         1647          951 1.6787213e-12 8.8972717e-14          0.1 0.0090279585    93.785126   0.02985337 
number of iterations: 2130 
   27100    72.031807     2631         1665          966 1.7009678e-12 9.0054238e-14          0.1 0.0090283161    95.064989  0.029852773 
number of iterations: 2196 
   27200    72.263676     2662         1683          979 1.7235091e-12 9.1149484e-14          0.1 0.0090287187    96.361827  0.029852102 
number of iterations: 2143 
   27300    72.530453     2695         1707          988 1.746349e-12 9.2258631e-14          0.1 0.0090290989    97.675865  0.029851468 
number of iterations: 2161 
   27400    72.764311     2728         1730          998 1.7694917e-12 9.3381854e-14          0.1 0.0090294845    99.007332  0.029850825 
number of iterations: 2181 
   27500    73.001713     2771         1762         1009 1.792941e-12 9.4519328e-14          0.1 0.0090298738    100.35646  0.029850176 
number of iterations: 2144 
   27600    73.229251     2804         1785         1019 1.8167011e-12 9.5671238e-14          0.1 0.0090302649    101.72348  0.029849523 
number of iterations: 2148 
   27700    73.505652     2838         1811         1027 1.8397289e-12 9.6837762e-14          0.1 0.0090306231    103.10784  0.029848926 
number of iterations: 2152 
   27800    73.740455     2878         1834         1044 1.8641091e-12 9.8019088e-14          0.1 0.0090310166    104.51056   0.02984827 
number of iterations: 2117 
   27900    73.979258     2910         1855         1055 1.8888122e-12 9.9215402e-14          0.1 0.0090313806    105.93188  0.029847662 
number of iterations: 2177 
   28000    74.231208     2943         1878         1065 1.9138428e-12 1.0042689e-13          0.1 0.0090318051    107.37206  0.029846955 
number of iterations: 2182 
   28100    74.506459     2995         1918         1077 1.939205e-12 1.0165375e-13          0.1 0.0090322249    108.83134  0.029846254 
number of iterations: 2180 
   28200     74.75693     3037         1946         1091 1.9649034e-12 1.0289618e-13          0.1  0.009032648    110.30997  0.029845549 
number of iterations: 2183 
   28300    74.980102     3074         1969         1105 1.9894618e-12 1.0415436e-13          0.1 0.0090330293    111.80708  0.029844913 
number of iterations: 2182 
   28400    75.234151     3118         2001         1117 2.0158262e-12 1.0542851e-13          0.1 0.0090334653    113.32405  0.029844186 
number of iterations: 2202 
   28500    75.533853     3164         2030         1134 2.0425399e-12 1.0671882e-13          0.1 0.0090339447    114.86114  0.029843386 
number of iterations: 2194 
   28600    75.766471     3208         2062         1146 2.0696076e-12 1.080255e-13          0.1 0.0090343909    116.41862  0.029842642 
number of iterations: 2188 
   28700    76.008723     3246         2088         1158 2.097034e-12 1.0934875e-13          0.1  0.009034839    117.99675  0.029841895 
number of iterations: 2187 
   28800    76.249435     3297         2117         1180 2.1248239e-12 1.1068879e-13          0.1 0.0090352917    119.59582   0.02984114 
number of iterations: 2184 
   28900    76.497897     3336         2140         1196 2.152982e-12 1.1204582e-13          0.1 0.0090357337     121.2161  0.029840403 
number of iterations: 2234 
   29000    76.764562     3376         2162         1214 2.1815133e-12 1.1342006e-13          0.1 0.0090362284    122.85787  0.029839578 
number of iterations: 2195 
   29100    76.993513     3425         2195         1230 2.2104226e-12 1.1481173e-13          0.1 0.0090367258    124.52142  0.029838748 
number of iterations: 2219 
   29200    77.245852     3460         2216         1244 2.2397151e-12 1.1622105e-13          0.1 0.0090372016    126.20703  0.029837955 
number of iterations: 2192 
   29300    77.557483     3498         2242         1256 2.2693957e-12 1.1764825e-13          0.1 0.0090377132    127.91499  0.029837102 
number of iterations: 2187 
   29400    77.815569     3540         2270         1270 2.2981367e-12 1.1909354e-13          0.1 0.0090381488     129.6446  0.029836375 
number of iterations: 2231 
   29500    78.074746     3571         2292         1279 2.3285915e-12 1.2055716e-13          0.1  0.009038675    131.39714  0.029835497 
number of iterations: 2222 
   29600    78.344045     3622         2322         1300 2.3594499e-12 1.2203934e-13          0.1 0.0090392116    133.17293  0.029834603 
number of iterations: 2194 
   29700    78.594426     3664         2353         1311 2.3896848e-12 1.2354031e-13          0.1 0.0090397196    134.97149  0.029833755 
number of iterations: 2227 
   29800    78.845188     3702         2380         1322 2.420168e-12 1.2506031e-13          0.1 0.0090402101    136.79299  0.029832937 
number of iterations: 2245 
   29900    79.105046     3749         2417         1332 2.4507921e-12 1.2659958e-13          0.1 0.0090407615    138.63754  0.029832018 
number of iterations: 2246 
   30000    79.355621     3796         2446         1350 2.4832699e-12 1.2815837e-13          0.1   0.00904128    140.50656  0.029831153 
number of iterations: 2269 
   30100    79.660105     3846         2479         1367 2.516178e-12 1.2973692e-13          0.1 0.0090418795    142.40037  0.029830153 
number of iterations: 2232 
   30200    79.939854     3903         2515         1388 2.5495223e-12 1.3133548e-13          0.1 0.0090424342     144.3193  0.029829228 
number of iterations: 2238 
   30300    80.198354     3948         2545         1403 2.5833084e-12 1.3295431e-13          0.1 0.0090429446    146.26368  0.029828377 
number of iterations: 2250 
   30400    80.501394     3994         2580         1414 2.6175423e-12 1.3459366e-13          0.1  0.009043503    148.23386  0.029827446 
number of iterations: 2230 
   30500     80.77466     4049         2614         1435 2.6522298e-12 1.362538e-13          0.1  0.009044048    150.23016  0.029826537 
number of iterations: 2230 
   30600    81.038975     4102         2651         1451 2.6873769e-12 1.3793497e-13          0.1 0.0090445892    152.25295  0.029825634 
number of iterations: 2248 
   30700     81.29657     4159         2682         1477 2.7206841e-12 1.3963746e-13          0.1 0.0090451698     154.3008  0.029824666 
number of iterations: 2251 
   30800    81.720149     4216         2719         1497 2.754379e-12 1.4136153e-13          0.1 0.0090457368    156.37401   0.02982372 
number of iterations: 2242 
   30900    81.995845     4282         2763         1519 2.7908798e-12 1.4310746e-13          0.1 0.0090463376    158.47472  0.029822718 
number of iterations: 2236 
   31000    82.249992     4327         2787         1540 2.8263781e-12 1.4487552e-13          0.1 0.0090469346    160.60216  0.029821723 
number of iterations: 2230 
   31100    82.540388     4381         2821         1560 2.8627613e-12 1.4666599e-13          0.1 0.0090474931    162.75699  0.029820791 
number of iterations: 2293 
   31200    82.809314     4428         2849         1579 2.9006983e-12 1.4847915e-13          0.1  0.009048149     164.9404  0.029819697 
number of iterations: 2252 
   31300    83.065159     4473         2881         1592 2.937795e-12 1.503153e-13          0.1 0.0090487533    167.15175  0.029818689 
number of iterations: 2261 
   31400     83.31161     4535         2918         1617 2.9750843e-12 1.5217472e-13          0.1 0.0090493594    169.39118  0.029817678 
number of iterations: 2268 
   31500    83.645394     4590         2951         1639 3.012236e-12 1.540577e-13          0.1 0.0090499258    171.65857  0.029816734 
number of iterations: 2263 
   31600    83.938942     4645         2992         1653 3.0497289e-12 1.5596455e-13          0.1 0.0090505426    173.95419  0.029815705 
number of iterations: 2270 
   31700    84.199523     4706         3031         1675 3.0901436e-12 1.5789556e-13          0.1 0.0090512046    176.28026  0.029814601 
number of iterations: 2287 
   31800    84.445687     4769         3072         1697 3.1297228e-12 1.5985105e-13          0.1 0.0090518751    178.63614  0.029813483 
number of iterations: 2242 
   31900    84.744918     4827         3097         1730 3.1711975e-12 1.6183132e-13          0.1 0.0090525212    181.02326  0.029812405 
number of iterations: 2298 
   32000    85.011495     4904         3155         1749 3.2132219e-12 1.638367e-13          0.1 0.0090531844    183.44204  0.029811299 
number of iterations: 2274 
   32100    85.277457     4965         3203         1762 3.2529734e-12 1.6586748e-13          0.1 0.0090538135    185.89077   0.02981025 
number of iterations: 2273 
   32200     85.56308     5025         3240         1785 3.2960815e-12 1.6792399e-13          0.1 0.0090544779    188.37198  0.029809142 
number of iterations: 2312 
   32300    85.833394     5100         3294         1806 3.3397607e-12 1.7000658e-13          0.1 0.0090552386     190.8861  0.029807873 
number of iterations: 2306 
   32400    86.104289     5170         3344         1826 3.3826269e-12 1.7211555e-13          0.1 0.0090560076    193.43251  0.029806591 
number of iterations: 2301 
   32500    86.367397     5244         3394         1850 3.4262113e-12 1.7425125e-13          0.1 0.0090567155    196.01174   0.02980541 
number of iterations: 2317 
   32600     86.64532     5304         3435         1869 3.4716151e-12 1.7641401e-13          0.1 0.0090574797    198.62518  0.029804136 
number of iterations: 2265 
   32700    86.921704     5375         3473         1902 3.5176204e-12 1.7860418e-13          0.1 0.0090581783    201.27328  0.029802971 
number of iterations: 2318 
   32800    87.188645     5444         3523         1921 3.5630628e-12 1.8082211e-13          0.1 0.0090589557    203.95562  0.029801674 
number of iterations: 2297 
   32900    87.474376     5506         3560         1946  3.61028e-12 1.8306814e-13          0.1 0.0090596977    206.67352  0.029800437 
number of iterations: 2315 
   33000    87.750684     5584         3616         1968 3.6563801e-12 1.8534264e-13          0.1  0.009060439    209.42615    0.0297992 
number of iterations: 2303 
   33100    88.030121     5647         3653         1994 3.7033647e-12 1.8764595e-13          0.1 0.0090611895    212.21416  0.029797949 
number of iterations: 2333 
   33200    88.326909     5726         3706         2020 3.7524411e-12 1.8987717e-13          0.1 0.0090620666    215.03919  0.029796486 
number of iterations: 2309 
   33300    88.610084     5816         3766         2050 3.8009173e-12 1.9223798e-13          0.1 0.0090628707    217.90072  0.029795145 
number of iterations: 2318 
   33400    88.889547     5874         3804         2070 3.8502915e-12 1.9462871e-13          0.1 0.0090636396    220.79944  0.029793863 
number of iterations: 2340 
   33500    89.178462     5948         3856         2092 3.9013149e-12 1.9704973e-13          0.1 0.0090644484    223.73661  0.029792514 
number of iterations: 2299 
   33600    89.489676     6021         3909         2112 3.950379e-12 1.9950143e-13          0.1 0.0090652061    226.71073   0.02979125 
number of iterations: 2312 
   33700    89.764212     6090         3955         2135 4.0027288e-12 2.0198421e-13          0.1  0.009066037     229.7243  0.029789864 
number of iterations: 2338 
   33800    90.045264     6153         3994         2159 4.0523519e-12 2.0449845e-13          0.1  0.009066876    232.77522  0.029788465 
number of iterations: 2299 
   33900    90.342425     6260         4062         2198 4.1060529e-12 2.0704455e-13          0.1 0.0090676456    235.86663  0.029787181 
number of iterations: 2319 
   34000    90.637803     6343         4120         2223 4.1569154e-12 2.0962291e-13          0.1 0.0090684914    238.99632   0.02978577 
number of iterations: 2339 
   34100    90.942624     6422         4172         2250 4.2120021e-12 2.1223395e-13          0.1 0.0090694096    242.16751  0.029784239 
number of iterations: 2359 
   34200    91.262082     6518         4222         2296 4.2678187e-12 2.1487808e-13          0.1 0.0090702736    245.38078  0.029782798 
number of iterations: 2350 
   34300    91.634055     6590         4267         2323 4.3243751e-12 2.1755571e-13          0.1  0.009071228    248.63666  0.029781207 
number of iterations: 2379 
   34400    91.932337     6676         4333         2343 4.380355e-12 2.2026728e-13          0.1 0.0090722097    251.93472  0.029779569 
number of iterations: 2370 
   34500    92.234797     6758         4389         2369 4.4351036e-12 2.2301321e-13          0.1 0.0090730973    255.27403  0.029778089 
number of iterations: 2356 
   34600    92.560546     6826         4427         2399 4.4918022e-12 2.2579393e-13          0.1 0.0090740369    258.65604  0.029776522 
number of iterations: 2351 
   34700     92.84389     6919         4489         2430 4.5513266e-12 2.2860989e-13          0.1 0.0090749721     262.0829  0.029774962 
number of iterations: 2354 
   34800    93.113047     7003         4539         2464 4.609538e-12 2.3146154e-13          0.1 0.0090758898     265.5536  0.029773432 
number of iterations: 2375 
   34900    93.423915     7100         4611         2489 4.667869e-12 2.3434933e-13          0.1 0.0090768893    269.06825  0.029771765 
number of iterations: 2352 
   35000    93.696379     7195         4671         2524 4.7289476e-12 2.3727371e-13          0.1 0.0090778667    272.62893  0.029770135 
Loop time of 93.6964 on 32 procs for 35000 steps with 7195 atoms

Performance: 322744473.254 tau/day, 373.547 timesteps/s
92.1% CPU use with 32 MPI tasks x no OpenMP threads

MPI task timing breakdown:
Section |  min time  |  avg time  |  max time  |%varavg| %total
---------------------------------------------------------------
Pair    | 0.018147   | 0.10125    | 0.21708    |  17.0 |  0.11
Neigh   | 0.0075022  | 0.033765   | 0.075377   |   9.7 |  0.04
Comm    | 0.03939    | 0.21626    | 0.31235    |  14.5 |  0.23
Output  | 22.422     | 22.423     | 22.431     |   0.0 | 23.93
Modify  | 70.431     | 70.489     | 70.56      |   0.4 | 75.23
Other   |            | 0.4332     |            |       |  0.46

Nlocal:    224.844 ave 456 max 41 min
Histogram: 1 5 7 1 6 4 2 2 0 4
Nghost:    140.219 ave 249 max 23 min
Histogram: 1 3 4 5 0 5 7 2 4 1
Neighs:    926.969 ave 2030 max 127 min
Histogram: 1 6 7 1 6 5 2 0 1 3

Total # of neighbors = 29663
Ave neighs/atom = 4.12272
Neighbor list builds = 685
Dangerous builds = 0
#shell cd ..
#clear
#next reps
#jump SELF
Total wall time: 0:01:33
