 NUFEB Simulation

     100 atoms 
     2 atom types 
     4 nutrients 

  0.0e-4   1.00e-04  xlo xhi 
  0.0e-4   1.00e-04  ylo yhi 
  0.0e-4   1.00e-05  zlo zhi 

 Atoms 

     1 1 1.91e-06  370 7.67e-05 4.09e-05 7.89e-06 1.91e-06 
     2 1 1.56e-06  370 1.16e-05 8.98e-05 4.40e-06 1.56e-06 
     3 1 1.84e-06  370 5.07e-05 7.43e-05 2.37e-06 1.84e-06 
     4 1 1.82e-06  370 3.39e-05 8.38e-05 6.62e-06 1.82e-06 
     5 1 1.38e-06  370 1.76e-05 9.26e-05 1.93e-06 1.38e-06 
     6 1 1.78e-06  370 2.46e-05 5.93e-05 2.44e-06 1.78e-06 
     7 1 1.44e-06  370 1.52e-05 4.57e-05 3.12e-06 1.44e-06 
     8 1 1.62e-06  370 4.77e-05 8.11e-06 6.54e-06 1.62e-06 
     9 1 1.71e-06  370 9.41e-05 5.04e-05 8.21e-06 1.71e-06 
     10 1 1.63e-06  370 5.50e-05 4.97e-05 2.27e-06 1.63e-06 
     11 1 1.69e-06  370 1.59e-05 4.62e-05 6.63e-06 1.69e-06 
     12 1 1.86e-06  370 2.92e-05 5.75e-05 6.45e-06 1.86e-06 
     13 1 1.45e-06  370 8.63e-05 9.70e-05 4.41e-06 1.45e-06 
     14 1 1.77e-06  370 1.76e-05 5.46e-05 7.26e-06 1.77e-06 
     15 1 1.63e-06  370 1.39e-05 2.91e-05 5.19e-06 1.63e-06 
     16 1 1.62e-06  370 8.42e-06 7.67e-05 7.24e-06 1.62e-06 
     17 1 1.57e-06  370 3.80e-05 8.17e-06 4.24e-06 1.57e-06 
     18 1 1.44e-06  370 7.11e-05 4.92e-05 5.95e-06 1.44e-06 
     19 1 1.46e-06  370 5.83e-06 3.16e-05 6.36e-06 1.46e-06 
     20 1 1.89e-06  370 6.89e-06 5.75e-05 3.58e-06 1.89e-06 
     21 1 1.92e-06  370 8.59e-05 4.56e-05 2.47e-06 1.92e-06 
     22 1 1.50e-06  370 3.46e-05 5.26e-05 5.48e-06 1.50e-06 
     23 1 1.73e-06  370 7.32e-05 9.04e-05 4.44e-06 1.73e-06 
     24 1 1.42e-06  370 1.71e-05 4.92e-05 6.62e-06 1.42e-06 
     25 1 1.78e-06  370 7.18e-05 5.40e-05 5.97e-06 1.78e-06 
     26 1 1.43e-06  370 4.10e-05 3.33e-05 8.32e-06 1.43e-06 
     27 1 1.65e-06  370 4.74e-05 7.80e-05 1.91e-06 1.65e-06 
     28 1 1.68e-06  370 5.53e-05 9.36e-05 7.17e-06 1.68e-06 
     29 1 1.45e-06  370 3.07e-05 6.14e-05 2.24e-06 1.45e-06 
     30 1 1.61e-06  370 4.03e-05 9.51e-05 5.22e-06 1.61e-06 
     31 1 1.88e-06  370 3.80e-05 5.83e-06 5.83e-06 1.88e-06 
     32 1 1.80e-06  370 6.47e-05 2.90e-05 2.34e-06 1.80e-06 
     33 1 1.68e-06  370 6.32e-05 9.28e-05 3.92e-06 1.68e-06 
     34 1 1.76e-06  370 1.17e-05 5.61e-05 6.02e-06 1.76e-06 
     35 1 1.43e-06  370 7.52e-05 6.94e-06 7.55e-06 1.43e-06 
     36 1 1.49e-06  370 1.14e-05 5.82e-05 6.65e-06 1.49e-06 
     37 1 1.89e-06  370 2.45e-05 8.04e-05 5.61e-06 1.89e-06 
     38 1 1.68e-06  370 2.41e-05 3.88e-05 4.21e-06 1.68e-06 
     39 1 1.55e-06  370 9.81e-05 9.47e-05 7.27e-06 1.55e-06 
     40 1 1.74e-06  370 1.58e-05 9.63e-05 7.93e-06 1.74e-06 
     41 1 1.71e-06  370 6.05e-05 7.87e-05 4.49e-06 1.71e-06 
     42 1 1.56e-06  370 7.68e-05 9.23e-05 4.46e-06 1.56e-06 
     43 1 1.92e-06  370 5.40e-05 8.60e-05 3.36e-06 1.92e-06 
     44 1 1.91e-06  370 2.01e-05 5.79e-05 6.90e-06 1.91e-06 
     45 1 1.71e-06  370 5.47e-05 7.50e-06 3.11e-06 1.71e-06 
     46 1 1.93e-06  370 6.69e-05 3.76e-05 7.82e-06 1.93e-06 
     47 1 1.65e-06  370 6.94e-05 5.13e-05 4.96e-06 1.65e-06 
     48 1 1.80e-06  370 2.53e-05 1.34e-05 6.16e-06 1.80e-06 
     49 1 1.61e-06  370 4.88e-06 3.95e-05 2.13e-06 1.61e-06 
     50 1 1.80e-06  370 1.37e-05 6.32e-05 6.76e-06 1.80e-06 
     51 2 1.29e-06  230 5.85e-06 5.67e-05 5.24e-06 1.29e-06 
     52 2 1.28e-06  230 5.14e-05 4.69e-05 4.50e-06 1.28e-06 
     53 2 1.08e-06  230 5.28e-05 6.76e-05 7.35e-06 1.08e-06 
     54 2 1.34e-06  230 7.82e-05 9.32e-05 7.77e-06 1.34e-06 
     55 2 8.96e-07  230 6.05e-05 5.63e-05 3.69e-06 8.96e-07 
     56 2 1.24e-06  230 4.24e-05 9.88e-06 5.90e-06 1.24e-06 
     57 2 1.24e-06  230 8.54e-05 6.45e-05 4.92e-06 1.24e-06 
     58 2 1.16e-06  230 2.91e-05 3.14e-05 7.52e-06 1.16e-06 
     59 2 9.51e-07  230 6.41e-05 8.78e-05 4.55e-06 9.51e-07 
     60 2 1.03e-06  230 5.63e-05 7.11e-06 6.40e-06 1.03e-06 
     61 2 1.35e-06  230 1.78e-05 2.36e-05 7.96e-06 1.35e-06 
     62 2 1.18e-06  230 8.89e-05 8.32e-05 1.99e-06 1.18e-06 
     63 2 1.18e-06  230 9.46e-05 9.55e-05 1.70e-06 1.18e-06 
     64 2 1.12e-06  230 4.23e-06 7.52e-05 1.67e-06 1.12e-06 
     65 2 1.30e-06  230 2.25e-05 8.65e-05 5.01e-06 1.30e-06 
     66 2 1.16e-06  230 6.58e-06 2.71e-05 3.21e-06 1.16e-06 
     67 2 1.28e-06  230 2.35e-05 2.32e-05 7.84e-06 1.28e-06 
     68 2 1.00e-06  230 3.49e-05 4.50e-05 2.36e-06 1.00e-06 
     69 2 1.28e-06  230 3.31e-05 2.56e-05 1.55e-06 1.28e-06 
     70 2 1.06e-06  230 7.34e-05 1.09e-05 7.64e-06 1.06e-06 
     71 2 1.32e-06  230 5.98e-05 2.45e-05 7.35e-06 1.32e-06 
     72 2 1.27e-06  230 7.52e-06 9.62e-05 5.65e-06 1.27e-06 
     73 2 1.31e-06  230 6.72e-05 3.68e-05 5.79e-06 1.31e-06 
     74 2 9.13e-07  230 9.51e-05 7.63e-06 3.32e-06 9.13e-07 
     75 2 8.87e-07  230 1.21e-05 1.84e-05 8.56e-06 8.87e-07 
     76 2 1.17e-06  230 8.58e-05 7.80e-05 5.14e-06 1.17e-06 
     77 2 1.18e-06  230 7.20e-05 3.47e-06 4.37e-06 1.18e-06 
     78 2 1.21e-06  230 1.86e-05 7.59e-05 7.83e-06 1.21e-06 
     79 2 1.13e-06  230 3.46e-05 3.71e-05 3.90e-06 1.13e-06 
     80 2 9.56e-07  230 3.89e-05 6.49e-05 6.43e-06 9.56e-07 
     81 2 1.25e-06  230 7.71e-05 2.99e-05 6.04e-06 1.25e-06 
     82 2 1.22e-06  230 6.22e-06 5.40e-05 6.45e-06 1.22e-06 
     83 2 9.51e-07  230 4.83e-05 1.26e-05 3.91e-06 9.51e-07 
     84 2 9.44e-07  230 4.50e-05 5.47e-05 1.40e-06 9.44e-07 
     85 2 1.29e-06  230 6.07e-05 4.96e-05 3.13e-06 1.29e-06 
     86 2 1.24e-06  230 2.50e-05 6.68e-05 3.69e-06 1.24e-06 
     87 2 1.04e-06  230 6.30e-05 4.28e-05 7.43e-06 1.04e-06 
     88 2 1.26e-06  230 3.17e-05 1.55e-05 7.49e-06 1.26e-06 
     89 2 1.07e-06  230 2.51e-05 4.91e-05 7.94e-06 1.07e-06 
     90 2 1.05e-06  230 8.86e-06 6.87e-05 4.37e-06 1.05e-06 
     91 2 1.20e-06  230 6.79e-05 5.69e-05 6.14e-06 1.20e-06 
     92 2 1.28e-06  230 6.00e-05 7.64e-05 4.78e-06 1.28e-06 
     93 2 1.32e-06  230 6.38e-05 7.70e-05 6.09e-06 1.32e-06 
     94 2 1.16e-06  230 3.30e-05 1.63e-05 7.87e-06 1.16e-06 
     95 2 1.09e-06  230 9.12e-05 1.46e-06 6.31e-06 1.09e-06 
     96 2 1.09e-06  230 8.18e-05 5.55e-05 4.63e-06 1.09e-06 
     97 2 1.39e-06  230 9.73e-05 5.71e-05 3.25e-06 1.39e-06 
     98 2 1.25e-06  230 8.71e-05 5.47e-06 4.10e-06 1.25e-06 
     99 2 9.46e-07  230 9.75e-05 1.34e-05 8.92e-06 9.46e-07 
     100 2 1.10e-06  230 9.41e-05 5.02e-05 6.86e-06 1.10e-06 

 Nutrients 

     1 sub g nn nn nn 1.00e-01 1.00e-01 
     2 o2 l nn nn nd 9.00e-03 9.00e-03 
     3 suc l nn nn nn 3.42e-20 3.42e-20 
     4 co2 l nn nn nd 2.99e-02 2.99e-02 

 Type Name 

     1 cyano  
     2 ecw  

 Diffusion Coeffs 

     sub 0 
     o2 2.3e-09 
     suc 5.2e-10 
     co2 1.9e-09 

 Growth Rate 

     cyano 1.67e-05 
     ecw 6e-05 

 Ks 

     cyano 0.00035 0.0002 0.01 0.000138 
     ecw 0 0.001 3.6 0.05 

 Yield 

     cyano 0.55 
     ecw 0.43 

 Maintenance 

     cyano 0 
     ecw 9.5e-07 

 Decay 

     cyano 0 
     ecw 0 



