 NUFEB Simulation

     50 atoms 
     2 atom types 
     4 nutrients 

  0.0e-4   1.00e-04  xlo xhi 
  0.0e-4   1.00e-04  ylo yhi 
  0.0e-4   5.00e-05  zlo zhi 

 Atoms 

     1 1 1.61e-06  370 9.39e-05 5.21e-05 1.25e-05 1.61e-06 
     2 1 1.57e-06  370 7.16e-05 5.02e-06 6.05e-06 1.57e-06 
     3 1 1.88e-06  370 4.49e-05 4.47e-05 1.77e-05 1.88e-06 
     4 1 1.45e-06  370 7.91e-05 4.09e-05 2.06e-05 1.45e-06 
     5 1 1.93e-06  370 1.24e-05 7.40e-06 8.91e-06 1.93e-06 
     6 1 1.47e-06  370 6.78e-05 3.14e-05 4.05e-05 1.47e-06 
     7 1 1.85e-06  370 3.67e-05 3.01e-05 2.43e-05 1.85e-06 
     8 1 1.82e-06  370 8.20e-05 9.23e-05 4.75e-05 1.82e-06 
     9 1 1.78e-06  370 8.13e-05 6.78e-05 4.13e-05 1.78e-06 
     10 1 1.45e-06  370 1.09e-05 9.77e-05 2.74e-06 1.45e-06 
     11 1 1.71e-06  370 4.85e-05 9.27e-05 4.47e-05 1.71e-06 
     12 1 1.93e-06  370 2.35e-05 9.23e-05 2.23e-05 1.93e-06 
     13 1 1.63e-06  370 4.52e-05 6.65e-05 7.63e-06 1.63e-06 
     14 1 1.54e-06  370 2.90e-05 7.54e-05 2.04e-05 1.54e-06 
     15 1 1.46e-06  370 6.58e-05 8.85e-05 3.50e-05 1.46e-06 
     16 1 1.77e-06  370 5.74e-05 9.71e-05 4.70e-05 1.77e-06 
     17 1 1.88e-06  370 7.24e-05 5.16e-05 1.09e-05 1.88e-06 
     18 1 1.71e-06  370 4.33e-05 2.09e-05 2.08e-05 1.71e-06 
     19 1 1.85e-06  370 2.41e-05 7.80e-05 8.94e-06 1.85e-06 
     20 1 1.75e-06  370 3.22e-05 5.28e-05 2.22e-05 1.75e-06 
     21 1 1.65e-06  370 4.13e-05 1.25e-05 4.34e-05 1.65e-06 
     22 1 1.62e-06  370 3.98e-05 4.03e-05 4.30e-06 1.62e-06 
     23 1 1.62e-06  370 9.25e-05 2.35e-05 2.32e-06 1.62e-06 
     24 1 1.89e-06  370 1.01e-05 9.07e-05 4.53e-06 1.89e-06 
     25 1 1.78e-06  370 9.46e-05 9.45e-05 4.37e-05 1.78e-06 
     26 1 1.52e-06  370 4.01e-05 2.95e-05 3.93e-05 1.52e-06 
     27 1 1.48e-06  370 1.16e-05 2.94e-05 3.61e-05 1.48e-06 
     28 1 1.67e-06  370 5.86e-05 8.84e-05 1.44e-05 1.67e-06 
     29 1 1.47e-06  370 3.78e-05 1.81e-05 6.29e-06 1.47e-06 
     30 1 1.54e-06  370 8.39e-05 1.92e-05 3.38e-05 1.54e-06 
     31 1 1.46e-06  370 7.25e-05 7.99e-05 3.61e-05 1.46e-06 
     32 1 1.94e-06  370 6.40e-05 5.83e-05 3.28e-05 1.94e-06 
     33 1 1.56e-06  370 4.23e-05 4.47e-05 1.40e-05 1.56e-06 
     34 1 1.71e-06  370 3.50e-05 1.85e-05 1.45e-05 1.71e-06 
     35 1 1.51e-06  370 4.60e-05 9.53e-05 2.35e-05 1.51e-06 
     36 1 1.64e-06  370 6.09e-05 4.52e-06 1.02e-05 1.64e-06 
     37 1 1.92e-06  370 2.47e-05 9.20e-05 4.33e-05 1.92e-06 
     38 1 1.90e-06  370 7.91e-05 7.74e-06 3.03e-05 1.90e-06 
     39 1 1.60e-06  370 4.27e-06 4.45e-06 1.94e-05 1.60e-06 
     40 1 1.85e-06  370 4.61e-05 2.91e-05 2.88e-05 1.85e-06 
     41 1 1.87e-06  370 6.07e-05 5.34e-05 2.30e-05 1.87e-06 
     42 1 1.74e-06  370 7.80e-06 3.96e-05 8.03e-06 1.74e-06 
     43 1 1.93e-06  370 8.67e-05 8.69e-05 1.76e-05 1.93e-06 
     44 1 1.44e-06  370 2.51e-05 7.02e-05 1.57e-06 1.44e-06 
     45 1 1.77e-06  370 6.63e-05 5.87e-05 3.49e-05 1.77e-06 
     46 1 1.74e-06  370 1.25e-05 3.87e-05 1.42e-05 1.74e-06 
     47 1 1.88e-06  370 6.57e-05 7.89e-05 4.40e-05 1.88e-06 
     48 1 1.69e-06  370 7.35e-05 4.32e-05 3.40e-05 1.69e-06 
     49 1 1.85e-06  370 9.54e-05 1.73e-05 2.11e-05 1.85e-06 
     50 1 1.42e-06  370 3.43e-05 2.05e-05 1.31e-05 1.42e-06 

 Nutrients 

     1 sub g nn nn nn 1.00e-01 1.00e-01 
     2 o2 l nn nn nd 9.00e-03 9.00e-03 
     3 suc l nn nn nn 3.42e-20 3.42e-20 
     4 co2 l nn nn nd 2.99e-02 2.99e-02 

 Type Name 

     1 cyano  
     2 ecw  

 Diffusion Coeffs 

     sub 0 
     o2 2.3e-09 
     suc 5.2e-10 
     co2 1.9e-09 

 Growth Rate 

     cyano 2.047e-05 
     ecw 6.71e-05 

 Ks 

     cyano 0.00035 0.0002 0.01 0.000138 
     ecw 0 0.001 3.6 0.05 

 Yield 

     cyano 0.55 
     ecw 0.43 

 Maintenance 

     cyano 0 
     ecw 9.5e-07 

 Decay 

     cyano 0 
     ecw 0 



