 NUFEB Simulation

     50 atoms 
     2 atom types 
     4 nutrients 

  0.0e-4   1.00e-04  xlo xhi 
  0.0e-4   1.00e-04  ylo yhi 
  0.0e-4   5.00e-05  zlo zhi 

 Atoms 

     1 1 1.50e-06  370 4.16e-05 6.63e-05 1.30e-05 1.50e-06 
     2 1 1.46e-06  370 9.63e-05 7.52e-05 3.79e-05 1.46e-06 
     3 1 1.39e-06  370 9.44e-05 9.34e-05 3.85e-05 1.39e-06 
     4 1 1.90e-06  370 3.75e-05 1.68e-05 3.44e-05 1.90e-06 
     5 1 1.81e-06  370 1.21e-05 4.72e-05 4.42e-05 1.81e-06 
     6 1 1.52e-06  370 4.01e-05 2.10e-05 1.86e-05 1.52e-06 
     7 1 1.85e-06  370 1.60e-05 8.92e-05 4.50e-05 1.85e-06 
     8 1 1.69e-06  370 1.84e-05 3.95e-06 1.66e-05 1.69e-06 
     9 1 1.94e-06  370 3.30e-05 4.98e-05 7.66e-06 1.94e-06 
     10 1 1.44e-06  370 8.11e-05 8.35e-06 5.81e-06 1.44e-06 
     11 1 1.38e-06  370 2.88e-05 1.06e-05 2.68e-05 1.38e-06 
     12 1 1.69e-06  370 3.27e-05 5.06e-05 3.45e-05 1.69e-06 
     13 1 1.74e-06  370 6.29e-05 1.47e-05 1.30e-05 1.74e-06 
     14 1 1.40e-06  370 6.83e-05 5.22e-05 3.22e-05 1.40e-06 
     15 1 1.75e-06  370 4.39e-05 3.98e-06 1.59e-05 1.75e-06 
     16 1 1.91e-06  370 9.44e-06 8.14e-05 4.53e-05 1.91e-06 
     17 1 1.65e-06  370 7.73e-06 3.44e-05 1.44e-05 1.65e-06 
     18 1 1.69e-06  370 9.62e-05 8.35e-05 4.27e-05 1.69e-06 
     19 1 1.45e-06  370 5.82e-05 1.66e-05 4.78e-05 1.45e-06 
     20 1 1.82e-06  370 9.15e-05 9.22e-05 2.32e-05 1.82e-06 
     21 1 1.66e-06  370 7.98e-05 2.95e-05 2.80e-05 1.66e-06 
     22 1 1.87e-06  370 6.16e-05 8.26e-05 2.09e-05 1.87e-06 
     23 1 1.57e-06  370 5.42e-05 5.12e-05 2.71e-05 1.57e-06 
     24 1 1.76e-06  370 5.22e-05 4.06e-05 1.15e-05 1.76e-06 
     25 1 1.61e-06  370 4.50e-05 8.57e-06 4.02e-05 1.61e-06 
     26 1 1.41e-06  370 3.42e-05 7.59e-05 4.46e-05 1.41e-06 
     27 1 1.72e-06  370 7.59e-05 4.84e-05 3.72e-05 1.72e-06 
     28 1 1.79e-06  370 9.30e-05 1.18e-05 3.71e-05 1.79e-06 
     29 1 1.67e-06  370 5.00e-05 1.27e-05 1.79e-05 1.67e-06 
     30 1 1.69e-06  370 7.92e-05 6.79e-05 9.24e-06 1.69e-06 
     31 1 1.58e-06  370 4.57e-05 8.90e-05 2.60e-05 1.58e-06 
     32 1 1.38e-06  370 5.08e-05 7.61e-05 3.86e-05 1.38e-06 
     33 1 1.79e-06  370 8.70e-05 8.83e-05 1.50e-05 1.79e-06 
     34 1 1.59e-06  370 4.48e-05 3.82e-05 1.44e-05 1.59e-06 
     35 1 1.39e-06  370 8.19e-05 3.78e-05 3.00e-05 1.39e-06 
     36 1 1.82e-06  370 4.50e-05 2.62e-05 1.10e-05 1.82e-06 
     37 1 1.57e-06  370 5.45e-05 8.46e-05 4.25e-05 1.57e-06 
     38 1 1.87e-06  370 7.84e-05 5.02e-05 3.94e-05 1.87e-06 
     39 1 1.84e-06  370 8.70e-05 7.64e-05 3.57e-05 1.84e-06 
     40 1 1.85e-06  370 5.67e-05 1.33e-05 3.43e-05 1.85e-06 
     41 1 1.59e-06  370 4.27e-05 2.99e-05 2.30e-05 1.59e-06 
     42 1 1.84e-06  370 6.82e-05 9.12e-05 9.68e-06 1.84e-06 
     43 1 1.80e-06  370 3.49e-05 5.07e-05 3.78e-05 1.80e-06 
     44 1 1.59e-06  370 6.15e-05 1.91e-05 3.62e-06 1.59e-06 
     45 1 1.71e-06  370 4.12e-06 3.33e-06 3.03e-05 1.71e-06 
     46 1 1.57e-06  370 4.86e-05 5.76e-05 4.16e-05 1.57e-06 
     47 1 1.47e-06  370 2.46e-05 1.24e-05 4.04e-06 1.47e-06 
     48 1 1.58e-06  370 8.79e-05 5.25e-06 4.71e-05 1.58e-06 
     49 1 1.63e-06  370 2.32e-06 4.46e-05 8.19e-06 1.63e-06 
     50 1 1.67e-06  370 6.29e-05 1.89e-06 1.73e-05 1.67e-06 

 Nutrients 

     1 sub g nn nn nn 1.00e-01 1.00e-01 
     2 o2 l nn nn nd 9.00e-03 9.00e-03 
     3 suc l nn nn nn 3.42e-20 3.42e-20 
     4 co2 l nn nn nd 2.99e-02 2.99e-02 

 Type Name 

     1 cyano  
     2 ecw  

 Diffusion Coeffs 

     sub 0 
     o2 2.3e-09 
     suc 5.2e-10 
     co2 1.9e-09 

 Growth Rate 

     cyano 2.047e-05 
     ecw 6.71e-05 

 Ks 

     cyano 0.00035 0.0002 0.01 0.000138 
     ecw 0 0.001 3.6 0.05 

 Yield 

     cyano 0.55 
     ecw 0.43 

 Maintenance 

     cyano 0 
     ecw 9.5e-07 

 Decay 

     cyano 0 
     ecw 0 



