ITEM: TIMESTEP
0
ITEM: NUMBER OF ATOMS
50
ITEM: BOX BOUNDS ff ff ff
0.0000000000000000e+00 1.0000000000000000e-04
0.0000000000000000e+00 1.0000000000000000e-04
0.0000000000000000e+00 5.0000000000000002e-05
ITEM: ATOMS id type diameter x y z 
47 1 1.47e-06 2.46e-05 1.24e-05 4.04e-06 
9 1 1.94e-06 3.3e-05 4.98e-05 7.66e-06 
49 1 1.63e-06 2.32e-06 4.46e-05 8.19e-06 
36 1 1.82e-06 4.5e-05 2.62e-05 1.1e-05 
17 1 1.65e-06 7.73e-06 3.44e-05 1.44e-05 
34 1 1.59e-06 4.48e-05 3.82e-05 1.44e-05 
15 1 1.75e-06 4.39e-05 3.98e-06 1.59e-05 
8 1 1.69e-06 1.84e-05 3.95e-06 1.66e-05 
6 1 1.52e-06 4.01e-05 2.1e-05 1.86e-05 
41 1 1.59e-06 4.27e-05 2.99e-05 2.3e-05 
11 1 1.38e-06 2.88e-05 1.06e-05 2.68e-05 
45 1 1.71e-06 4.12e-06 3.33e-06 3.03e-05 
4 1 1.9e-06 3.75e-05 1.68e-05 3.44e-05 
25 1 1.61e-06 4.5e-05 8.57e-06 4.02e-05 
5 1 1.81e-06 1.21e-05 4.72e-05 4.42e-05 
1 1 1.5e-06 4.16e-05 6.63e-05 1.3e-05 
31 1 1.58e-06 4.57e-05 8.9e-05 2.6e-05 
12 1 1.69e-06 3.27e-05 5.06e-05 3.45e-05 
43 1 1.8e-06 3.49e-05 5.07e-05 3.78e-05 
46 1 1.57e-06 4.86e-05 5.76e-05 4.16e-05 
26 1 1.41e-06 3.42e-05 7.59e-05 4.46e-05 
16 1 1.91e-06 9.44e-06 8.14e-05 4.53e-05 
7 1 1.85e-06 1.6e-05 8.92e-05 4.5e-05 
44 1 1.59e-06 6.15e-05 1.91e-05 3.62e-06 
10 1 1.44e-06 8.11e-05 8.35e-06 5.81e-06 
24 1 1.76e-06 5.22e-05 4.06e-05 1.15e-05 
13 1 1.74e-06 6.29e-05 1.47e-05 1.3e-05 
50 1 1.67e-06 6.29e-05 1.89e-06 1.73e-05 
29 1 1.67e-06 5e-05 1.27e-05 1.79e-05 
21 1 1.66e-06 7.98e-05 2.95e-05 2.8e-05 
35 1 1.39e-06 8.19e-05 3.78e-05 3e-05 
40 1 1.85e-06 5.67e-05 1.33e-05 3.43e-05 
28 1 1.79e-06 9.3e-05 1.18e-05 3.71e-05 
27 1 1.72e-06 7.59e-05 4.84e-05 3.72e-05 
48 1 1.58e-06 8.79e-05 5.25e-06 4.71e-05 
19 1 1.45e-06 5.82e-05 1.66e-05 4.78e-05 
30 1 1.69e-06 7.92e-05 6.79e-05 9.24e-06 
42 1 1.84e-06 6.82e-05 9.12e-05 9.68e-06 
33 1 1.79e-06 8.7e-05 8.83e-05 1.5e-05 
22 1 1.87e-06 6.16e-05 8.26e-05 2.09e-05 
20 1 1.82e-06 9.15e-05 9.22e-05 2.32e-05 
23 1 1.57e-06 5.42e-05 5.12e-05 2.71e-05 
14 1 1.4e-06 6.83e-05 5.22e-05 3.22e-05 
39 1 1.84e-06 8.7e-05 7.64e-05 3.57e-05 
2 1 1.46e-06 9.63e-05 7.52e-05 3.79e-05 
32 1 1.38e-06 5.08e-05 7.61e-05 3.86e-05 
3 1 1.39e-06 9.44e-05 9.34e-05 3.85e-05 
38 1 1.87e-06 7.84e-05 5.02e-05 3.94e-05 
18 1 1.69e-06 9.62e-05 8.35e-05 4.27e-05 
37 1 1.57e-06 5.45e-05 8.46e-05 4.25e-05 
ITEM: TIMESTEP
100
ITEM: NUMBER OF ATOMS
50
ITEM: BOX BOUNDS ff ff ff
0.0000000000000000e+00 1.0000000000000000e-04
0.0000000000000000e+00 1.0000000000000000e-04
0.0000000000000000e+00 5.0000000000000002e-05
ITEM: ATOMS id type diameter x y z 
47 1 1.47851e-06 2.46e-05 1.24e-05 4.04e-06 
9 1 1.95123e-06 3.3e-05 4.98e-05 7.66e-06 
49 1 1.63943e-06 2.32e-06 4.46e-05 8.19e-06 
36 1 1.83053e-06 4.5e-05 2.62e-05 1.1e-05 
17 1 1.65955e-06 7.73e-06 3.44e-05 1.44e-05 
34 1 1.5992e-06 4.48e-05 3.82e-05 1.44e-05 
15 1 1.76013e-06 4.39e-05 3.98e-06 1.59e-05 
8 1 1.69978e-06 1.84e-05 3.95e-06 1.66e-05 
6 1 1.5288e-06 4.01e-05 2.1e-05 1.86e-05 
41 1 1.5992e-06 4.27e-05 2.99e-05 2.3e-05 
11 1 1.38799e-06 2.88e-05 1.06e-05 2.68e-05 
45 1 1.7199e-06 4.12e-06 3.33e-06 3.03e-05 
4 1 1.911e-06 3.75e-05 1.68e-05 3.44e-05 
25 1 1.61932e-06 4.5e-05 8.57e-06 4.02e-05 
5 1 1.82047e-06 1.21e-05 4.72e-05 4.42e-05 
1 1 1.50868e-06 4.16e-05 6.63e-05 1.3e-05 
31 1 1.58914e-06 4.57e-05 8.9e-05 2.6e-05 
12 1 1.69978e-06 3.27e-05 5.06e-05 3.45e-05 
43 1 1.81042e-06 3.49e-05 5.07e-05 3.78e-05 
46 1 1.57909e-06 4.86e-05 5.76e-05 4.16e-05 
26 1 1.41816e-06 3.42e-05 7.59e-05 4.46e-05 
16 1 1.92105e-06 9.44e-06 8.14e-05 4.53e-05 
7 1 1.86071e-06 1.6e-05 8.92e-05 4.5e-05 
44 1 1.5992e-06 6.15e-05 1.91e-05 3.62e-06 
10 1 1.44833e-06 8.11e-05 8.35e-06 5.81e-06 
24 1 1.77019e-06 5.22e-05 4.06e-05 1.15e-05 
13 1 1.75007e-06 6.29e-05 1.47e-05 1.3e-05 
50 1 1.67966e-06 6.29e-05 1.89e-06 1.73e-05 
29 1 1.67966e-06 5e-05 1.27e-05 1.79e-05 
21 1 1.66961e-06 7.98e-05 2.95e-05 2.8e-05 
35 1 1.39804e-06 8.19e-05 3.78e-05 3e-05 
40 1 1.86071e-06 5.67e-05 1.33e-05 3.43e-05 
28 1 1.80036e-06 9.3e-05 1.18e-05 3.71e-05 
27 1 1.72995e-06 7.59e-05 4.84e-05 3.72e-05 
48 1 1.58914e-06 8.79e-05 5.25e-06 4.71e-05 
19 1 1.45839e-06 5.82e-05 1.66e-05 4.78e-05 
30 1 1.69978e-06 7.92e-05 6.79e-05 9.24e-06 
42 1 1.85065e-06 6.82e-05 9.12e-05 9.68e-06 
33 1 1.80036e-06 8.7e-05 8.83e-05 1.5e-05 
22 1 1.88082e-06 6.16e-05 8.26e-05 2.09e-05 
20 1 1.83053e-06 9.15e-05 9.22e-05 2.32e-05 
23 1 1.57909e-06 5.42e-05 5.12e-05 2.71e-05 
14 1 1.4081e-06 6.83e-05 5.22e-05 3.22e-05 
39 1 1.85065e-06 8.7e-05 7.64e-05 3.57e-05 
2 1 1.46845e-06 9.63e-05 7.52e-05 3.79e-05 
32 1 1.38799e-06 5.08e-05 7.61e-05 3.86e-05 
3 1 1.39804e-06 9.44e-05 9.34e-05 3.85e-05 
38 1 1.88082e-06 7.84e-05 5.02e-05 3.94e-05 
18 1 1.69978e-06 9.62e-05 8.35e-05 4.27e-05 
37 1 1.57909e-06 5.45e-05 8.46e-05 4.25e-05 
ITEM: TIMESTEP
200
ITEM: NUMBER OF ATOMS
50
ITEM: BOX BOUNDS ff ff ff
0.0000000000000000e+00 1.0000000000000000e-04
0.0000000000000000e+00 1.0000000000000000e-04
0.0000000000000000e+00 5.0000000000000002e-05
ITEM: ATOMS id type diameter x y z 
47 1 1.48706e-06 2.46e-05 1.24e-05 4.04e-06 
9 1 1.96252e-06 3.3e-05 4.98e-05 7.66e-06 
49 1 1.64892e-06 2.32e-06 4.46e-05 8.19e-06 
36 1 1.84113e-06 4.5e-05 2.62e-05 1.1e-05 
17 1 1.66915e-06 7.73e-06 3.44e-05 1.44e-05 
34 1 1.60846e-06 4.48e-05 3.82e-05 1.44e-05 
15 1 1.77031e-06 4.39e-05 3.98e-06 1.59e-05 
8 1 1.70962e-06 1.84e-05 3.95e-06 1.66e-05 
6 1 1.53764e-06 4.01e-05 2.1e-05 1.86e-05 
41 1 1.60846e-06 4.27e-05 2.99e-05 2.3e-05 
11 1 1.39602e-06 2.88e-05 1.06e-05 2.68e-05 
45 1 1.72985e-06 4.12e-06 3.33e-06 3.03e-05 
4 1 1.92205e-06 3.75e-05 1.68e-05 3.44e-05 
25 1 1.62869e-06 4.5e-05 8.57e-06 4.02e-05 
5 1 1.83101e-06 1.21e-05 4.72e-05 4.42e-05 
1 1 1.51741e-06 4.16e-05 6.63e-05 1.3e-05 
31 1 1.59834e-06 4.57e-05 8.9e-05 2.6e-05 
12 1 1.70962e-06 3.27e-05 5.06e-05 3.45e-05 
43 1 1.82089e-06 3.49e-05 5.07e-05 3.78e-05 
46 1 1.58822e-06 4.86e-05 5.76e-05 4.16e-05 
26 1 1.42637e-06 3.42e-05 7.59e-05 4.46e-05 
16 1 1.93217e-06 9.44e-06 8.14e-05 4.53e-05 
7 1 1.87147e-06 1.6e-05 8.92e-05 4.5e-05 
44 1 1.60846e-06 6.15e-05 1.91e-05 3.62e-06 
10 1 1.45672e-06 8.11e-05 8.35e-06 5.81e-06 
24 1 1.78043e-06 5.22e-05 4.06e-05 1.15e-05 
13 1 1.7602e-06 6.29e-05 1.47e-05 1.3e-05 
50 1 1.68939e-06 6.29e-05 1.89e-06 1.73e-05 
29 1 1.68939e-06 5e-05 1.27e-05 1.79e-05 
21 1 1.67927e-06 7.98e-05 2.95e-05 2.8e-05 
35 1 1.40613e-06 8.19e-05 3.78e-05 3e-05 
40 1 1.87147e-06 5.67e-05 1.33e-05 3.43e-05 
28 1 1.81078e-06 9.3e-05 1.18e-05 3.71e-05 
27 1 1.73997e-06 7.59e-05 4.84e-05 3.72e-05 
48 1 1.59834e-06 8.79e-05 5.25e-06 4.71e-05 
19 1 1.46683e-06 5.82e-05 1.66e-05 4.78e-05 
30 1 1.70962e-06 7.92e-05 6.79e-05 9.24e-06 
42 1 1.86136e-06 6.82e-05 9.12e-05 9.68e-06 
33 1 1.81078e-06 8.7e-05 8.83e-05 1.5e-05 
22 1 1.89171e-06 6.16e-05 8.26e-05 2.09e-05 
20 1 1.84113e-06 9.15e-05 9.22e-05 2.32e-05 
23 1 1.58822e-06 5.42e-05 5.12e-05 2.71e-05 
14 1 1.41625e-06 6.83e-05 5.22e-05 3.22e-05 
39 1 1.86136e-06 8.7e-05 7.64e-05 3.57e-05 
2 1 1.47695e-06 9.63e-05 7.52e-05 3.79e-05 
32 1 1.39602e-06 5.08e-05 7.61e-05 3.86e-05 
3 1 1.40613e-06 9.44e-05 9.34e-05 3.85e-05 
38 1 1.89171e-06 7.84e-05 5.02e-05 3.94e-05 
18 1 1.70962e-06 9.62e-05 8.35e-05 4.27e-05 
37 1 1.58822e-06 5.45e-05 8.46e-05 4.25e-05 
ITEM: TIMESTEP
300
ITEM: NUMBER OF ATOMS
51
ITEM: BOX BOUNDS ff ff ff
0.0000000000000000e+00 1.0000000000000000e-04
0.0000000000000000e+00 1.0000000000000000e-04
0.0000000000000000e+00 5.0000000000000002e-05
ITEM: ATOMS id type diameter x y z 
47 1 1.49567e-06 2.46e-05 1.24e-05 4.04e-06 
9 1 1.48042e-06 3.30124e-05 4.97971e-05 6.92048e-06 
49 1 1.65846e-06 2.32e-06 4.46e-05 8.19e-06 
36 1 1.85178e-06 4.5e-05 2.62e-05 1.1e-05 
17 1 1.67881e-06 7.73e-06 3.44e-05 1.44e-05 
34 1 1.61776e-06 4.48e-05 3.82e-05 1.44e-05 
15 1 1.78056e-06 4.39e-05 3.98e-06 1.59e-05 
8 1 1.71951e-06 1.84e-05 3.95e-06 1.66e-05 
6 1 1.54654e-06 4.01e-05 2.1e-05 1.86e-05 
51 1 1.64434e-06 3.29862e-05 4.98032e-05 8.4814e-06 
41 1 1.61776e-06 4.27e-05 2.99e-05 2.3e-05 
11 1 1.4041e-06 2.88e-05 1.06e-05 2.68e-05 
45 1 1.73986e-06 4.12e-06 3.33e-06 3.03e-05 
4 1 1.93318e-06 3.75e-05 1.68e-05 3.44e-05 
25 1 1.63811e-06 4.5e-05 8.57e-06 4.02e-05 
5 1 1.84161e-06 1.21e-05 4.72e-05 4.42e-05 
1 1 1.52619e-06 4.16e-05 6.63e-05 1.3e-05 
31 1 1.60759e-06 4.57e-05 8.9e-05 2.6e-05 
12 1 1.71951e-06 3.27e-05 5.06e-05 3.45e-05 
43 1 1.83143e-06 3.49e-05 5.07e-05 3.78e-05 
46 1 1.59742e-06 4.86e-05 5.76e-05 4.16e-05 
26 1 1.43462e-06 3.42e-05 7.59e-05 4.46e-05 
16 1 1.94335e-06 9.44e-06 8.14e-05 4.53e-05 
7 1 1.88231e-06 1.6e-05 8.92e-05 4.5e-05 
44 1 1.61776e-06 6.15e-05 1.91e-05 3.62e-06 
10 1 1.46515e-06 8.11e-05 8.35e-06 5.81e-06 
24 1 1.79073e-06 5.22e-05 4.06e-05 1.15e-05 
13 1 1.77038e-06 6.29e-05 1.47e-05 1.3e-05 
50 1 1.69916e-06 6.29e-05 1.89e-06 1.73e-05 
29 1 1.69916e-06 5e-05 1.27e-05 1.79e-05 
21 1 1.68899e-06 7.98e-05 2.95e-05 2.8e-05 
35 1 1.41427e-06 8.19e-05 3.78e-05 3e-05 
40 1 1.88231e-06 5.67e-05 1.33e-05 3.43e-05 
28 1 1.82126e-06 9.3e-05 1.18e-05 3.71e-05 
27 1 1.75003e-06 7.59e-05 4.84e-05 3.72e-05 
48 1 1.60759e-06 8.79e-05 5.25e-06 4.71e-05 
19 1 1.47532e-06 5.82e-05 1.66e-05 4.78e-05 
30 1 1.71951e-06 7.92e-05 6.79e-05 9.24e-06 
42 1 1.87213e-06 6.82e-05 9.12e-05 9.68e-06 
33 1 1.82126e-06 8.7e-05 8.83e-05 1.5e-05 
22 1 1.90265e-06 6.16e-05 8.26e-05 2.09e-05 
20 1 1.85178e-06 9.15e-05 9.22e-05 2.32e-05 
23 1 1.59742e-06 5.42e-05 5.12e-05 2.71e-05 
14 1 1.42445e-06 6.83e-05 5.22e-05 3.22e-05 
39 1 1.87213e-06 8.7e-05 7.64e-05 3.57e-05 
2 1 1.48549e-06 9.63e-05 7.52e-05 3.79e-05 
32 1 1.4041e-06 5.08e-05 7.61e-05 3.86e-05 
3 1 1.41427e-06 9.44e-05 9.34e-05 3.85e-05 
38 1 1.90265e-06 7.84e-05 5.02e-05 3.94e-05 
18 1 1.71951e-06 9.62e-05 8.35e-05 4.27e-05 
37 1 1.59742e-06 5.45e-05 8.46e-05 4.25e-05 
ITEM: TIMESTEP
400
ITEM: NUMBER OF ATOMS
51
ITEM: BOX BOUNDS ff ff ff
0.0000000000000000e+00 1.0000000000000000e-04
0.0000000000000000e+00 1.0000000000000000e-04
0.0000000000000000e+00 5.0000000000000002e-05
ITEM: ATOMS id type diameter x y z 
47 1 1.50433e-06 2.46e-05 1.24e-05 4.04e-06 
9 1 1.48898e-06 3.30124e-05 4.97971e-05 6.92048e-06 
49 1 1.66806e-06 2.32e-06 4.46e-05 8.19e-06 
36 1 1.8625e-06 4.5e-05 2.62e-05 1.1e-05 
17 1 1.68853e-06 7.73e-06 3.44e-05 1.44e-05 
34 1 1.62713e-06 4.48e-05 3.82e-05 1.44e-05 
15 1 1.79086e-06 4.39e-05 3.98e-06 1.59e-05 
8 1 1.72946e-06 1.84e-05 3.95e-06 1.66e-05 
6 1 1.55549e-06 4.01e-05 2.1e-05 1.86e-05 
51 1 1.65386e-06 3.29862e-05 4.98032e-05 8.4814e-06 
41 1 1.62713e-06 4.27e-05 2.99e-05 2.3e-05 
11 1 1.41222e-06 2.88e-05 1.06e-05 2.68e-05 
45 1 1.74993e-06 4.12e-06 3.33e-06 3.03e-05 
4 1 1.94437e-06 3.75e-05 1.68e-05 3.44e-05 
25 1 1.64759e-06 4.5e-05 8.57e-06 4.02e-05 
5 1 1.85226e-06 1.21e-05 4.72e-05 4.42e-05 
1 1 1.53503e-06 4.16e-05 6.63e-05 1.3e-05 
31 1 1.61689e-06 4.57e-05 8.9e-05 2.6e-05 
12 1 1.72946e-06 3.27e-05 5.06e-05 3.45e-05 
43 1 1.84203e-06 3.49e-05 5.07e-05 3.78e-05 
46 1 1.60666e-06 4.86e-05 5.76e-05 4.16e-05 
26 1 1.44292e-06 3.42e-05 7.59e-05 4.46e-05 
16 1 1.9546e-06 9.44e-06 8.14e-05 4.53e-05 
7 1 1.8932e-06 1.6e-05 8.92e-05 4.5e-05 
44 1 1.62713e-06 6.15e-05 1.91e-05 3.62e-06 
10 1 1.47362e-06 8.11e-05 8.35e-06 5.81e-06 
24 1 1.8011e-06 5.22e-05 4.06e-05 1.15e-05 
13 1 1.78063e-06 6.29e-05 1.47e-05 1.3e-05 
50 1 1.709e-06 6.29e-05 1.89e-06 1.73e-05 
29 1 1.709e-06 5e-05 1.27e-05 1.79e-05 
21 1 1.69876e-06 7.98e-05 2.95e-05 2.8e-05 
35 1 1.42246e-06 8.19e-05 3.78e-05 3e-05 
40 1 1.8932e-06 5.67e-05 1.33e-05 3.43e-05 
28 1 1.8318e-06 9.3e-05 1.18e-05 3.71e-05 
27 1 1.76016e-06 7.59e-05 4.84e-05 3.72e-05 
48 1 1.61689e-06 8.79e-05 5.25e-06 4.71e-05 
19 1 1.48386e-06 5.82e-05 1.66e-05 4.78e-05 
30 1 1.72946e-06 7.92e-05 6.79e-05 9.24e-06 
42 1 1.88296e-06 6.82e-05 9.12e-05 9.68e-06 
33 1 1.8318e-06 8.7e-05 8.83e-05 1.5e-05 
22 1 1.91367e-06 6.16e-05 8.26e-05 2.09e-05 
20 1 1.8625e-06 9.15e-05 9.22e-05 2.32e-05 
23 1 1.60666e-06 5.42e-05 5.12e-05 2.71e-05 
14 1 1.43269e-06 6.83e-05 5.22e-05 3.22e-05 
39 1 1.88296e-06 8.7e-05 7.64e-05 3.57e-05 
2 1 1.49409e-06 9.63e-05 7.52e-05 3.79e-05 
32 1 1.41222e-06 5.08e-05 7.61e-05 3.86e-05 
3 1 1.42246e-06 9.44e-05 9.34e-05 3.85e-05 
38 1 1.91367e-06 7.84e-05 5.02e-05 3.94e-05 
18 1 1.72946e-06 9.62e-05 8.35e-05 4.27e-05 
37 1 1.60666e-06 5.45e-05 8.46e-05 4.25e-05 
ITEM: TIMESTEP
500
ITEM: NUMBER OF ATOMS
51
ITEM: BOX BOUNDS ff ff ff
0.0000000000000000e+00 1.0000000000000000e-04
0.0000000000000000e+00 1.0000000000000000e-04
0.0000000000000000e+00 5.0000000000000002e-05
ITEM: ATOMS id type diameter x y z 
47 1 1.51303e-06 2.46e-05 1.24e-05 4.04e-06 
9 1 1.4976e-06 3.30124e-05 4.97971e-05 6.92048e-06 
49 1 1.67771e-06 2.32e-06 4.46e-05 8.19e-06 
36 1 1.87328e-06 4.5e-05 2.62e-05 1.1e-05 
17 1 1.6983e-06 7.73e-06 3.44e-05 1.44e-05 
34 1 1.63654e-06 4.48e-05 3.82e-05 1.44e-05 
15 1 1.80123e-06 4.39e-05 3.98e-06 1.59e-05 
8 1 1.73947e-06 1.84e-05 3.95e-06 1.66e-05 
6 1 1.56449e-06 4.01e-05 2.1e-05 1.86e-05 
51 1 1.66343e-06 3.29862e-05 4.98032e-05 8.4814e-06 
41 1 1.63654e-06 4.27e-05 2.99e-05 2.3e-05 
11 1 1.4204e-06 2.88e-05 1.06e-05 2.68e-05 
45 1 1.76006e-06 4.12e-06 3.33e-06 3.03e-05 
4 1 1.95562e-06 3.75e-05 1.68e-05 3.44e-05 
25 1 1.65713e-06 4.5e-05 8.57e-06 4.02e-05 
5 1 1.86298e-06 1.21e-05 4.72e-05 4.42e-05 
1 1 1.54391e-06 4.16e-05 6.63e-05 1.3e-05 
31 1 1.62625e-06 4.57e-05 8.9e-05 2.6e-05 
12 1 1.73947e-06 3.27e-05 5.06e-05 3.45e-05 
43 1 1.85269e-06 3.49e-05 5.07e-05 3.78e-05 
46 1 1.61596e-06 4.86e-05 5.76e-05 4.16e-05 
26 1 1.45127e-06 3.42e-05 7.59e-05 4.46e-05 
16 1 1.96591e-06 9.44e-06 8.14e-05 4.53e-05 
7 1 1.90415e-06 1.6e-05 8.92e-05 4.5e-05 
44 1 1.63654e-06 6.15e-05 1.91e-05 3.62e-06 
10 1 1.48215e-06 8.11e-05 8.35e-06 5.81e-06 
24 1 1.81152e-06 5.22e-05 4.06e-05 1.15e-05 
13 1 1.79093e-06 6.29e-05 1.47e-05 1.3e-05 
50 1 1.71889e-06 6.29e-05 1.89e-06 1.73e-05 
29 1 1.71889e-06 5e-05 1.27e-05 1.79e-05 
21 1 1.70859e-06 7.98e-05 2.95e-05 2.8e-05 
35 1 1.43069e-06 8.19e-05 3.78e-05 3e-05 
40 1 1.90415e-06 5.67e-05 1.33e-05 3.43e-05 
28 1 1.8424e-06 9.3e-05 1.18e-05 3.71e-05 
27 1 1.77035e-06 7.59e-05 4.84e-05 3.72e-05 
48 1 1.62625e-06 8.79e-05 5.25e-06 4.71e-05 
19 1 1.49245e-06 5.82e-05 1.66e-05 4.78e-05 
30 1 1.73947e-06 7.92e-05 6.79e-05 9.24e-06 
42 1 1.89386e-06 6.82e-05 9.12e-05 9.68e-06 
33 1 1.8424e-06 8.7e-05 8.83e-05 1.5e-05 
22 1 1.92474e-06 6.16e-05 8.26e-05 2.09e-05 
20 1 1.87328e-06 9.15e-05 9.22e-05 2.32e-05 
23 1 1.61596e-06 5.42e-05 5.12e-05 2.71e-05 
14 1 1.44098e-06 6.83e-05 5.22e-05 3.22e-05 
39 1 1.89386e-06 8.7e-05 7.64e-05 3.57e-05 
2 1 1.50274e-06 9.63e-05 7.52e-05 3.79e-05 
32 1 1.4204e-06 5.08e-05 7.61e-05 3.86e-05 
3 1 1.43069e-06 9.44e-05 9.34e-05 3.85e-05 
38 1 1.92474e-06 7.84e-05 5.02e-05 3.94e-05 
18 1 1.73947e-06 9.62e-05 8.35e-05 4.27e-05 
37 1 1.61596e-06 5.45e-05 8.46e-05 4.25e-05 
ITEM: TIMESTEP
600
ITEM: NUMBER OF ATOMS
52
ITEM: BOX BOUNDS ff ff ff
0.0000000000000000e+00 1.0000000000000000e-04
0.0000000000000000e+00 1.0000000000000000e-04
0.0000000000000000e+00 5.0000000000000002e-05
ITEM: ATOMS id type diameter x y z 
47 1 1.52179e-06 2.46e-05 1.24e-05 4.04e-06 
9 1 1.50627e-06 3.30124e-05 4.97971e-05 6.92048e-06 
49 1 1.68742e-06 2.32e-06 4.46e-05 8.19e-06 
36 1 1.88412e-06 4.5e-05 2.62e-05 1.1e-05 
17 1 1.70813e-06 7.73e-06 3.44e-05 1.44e-05 
34 1 1.64601e-06 4.48e-05 3.82e-05 1.44e-05 
15 1 1.81165e-06 4.39e-05 3.98e-06 1.59e-05 
8 1 1.74954e-06 1.84e-05 3.95e-06 1.66e-05 
6 1 1.57355e-06 4.01e-05 2.1e-05 1.86e-05 
51 1 1.67305e-06 3.29862e-05 4.98032e-05 8.4814e-06 
41 1 1.64601e-06 4.27e-05 2.99e-05 2.3e-05 
11 1 1.42862e-06 2.88e-05 1.06e-05 2.68e-05 
45 1 1.77024e-06 4.12e-06 3.33e-06 3.03e-05 
4 1 1.96694e-06 3.75e-05 1.68e-05 3.44e-05 
25 1 1.66672e-06 4.5e-05 8.57e-06 4.02e-05 
5 1 1.87377e-06 1.21e-05 4.72e-05 4.42e-05 
1 1 1.55284e-06 4.16e-05 6.63e-05 1.3e-05 
31 1 1.63566e-06 4.57e-05 8.9e-05 2.6e-05 
12 1 1.74954e-06 3.27e-05 5.06e-05 3.45e-05 
43 1 1.86341e-06 3.49e-05 5.07e-05 3.78e-05 
46 1 1.62531e-06 4.86e-05 5.76e-05 4.16e-05 
26 1 1.45967e-06 3.42e-05 7.59e-05 4.46e-05 
16 1 1.48298e-06 9.45244e-06 8.13971e-05 4.45592e-05 
7 1 1.91517e-06 1.6e-05 8.92e-05 4.5e-05 
52 1 1.64718e-06 9.42618e-06 8.14033e-05 4.61228e-05 
44 1 1.64601e-06 6.15e-05 1.91e-05 3.62e-06 
10 1 1.49073e-06 8.11e-05 8.35e-06 5.81e-06 
24 1 1.822e-06 5.22e-05 4.06e-05 1.15e-05 
13 1 1.8013e-06 6.29e-05 1.47e-05 1.3e-05 
50 1 1.72883e-06 6.29e-05 1.89e-06 1.73e-05 
29 1 1.72883e-06 5e-05 1.27e-05 1.79e-05 
21 1 1.71848e-06 7.98e-05 2.95e-05 2.8e-05 
35 1 1.43897e-06 8.19e-05 3.78e-05 3e-05 
40 1 1.91517e-06 5.67e-05 1.33e-05 3.43e-05 
28 1 1.85306e-06 9.3e-05 1.18e-05 3.71e-05 
27 1 1.78059e-06 7.59e-05 4.84e-05 3.72e-05 
48 1 1.63566e-06 8.79e-05 5.25e-06 4.71e-05 
19 1 1.50108e-06 5.82e-05 1.66e-05 4.78e-05 
30 1 1.74954e-06 7.92e-05 6.79e-05 9.24e-06 
42 1 1.90482e-06 6.82e-05 9.12e-05 9.68e-06 
33 1 1.85306e-06 8.7e-05 8.83e-05 1.5e-05 
22 1 1.93588e-06 6.16e-05 8.26e-05 2.09e-05 
20 1 1.88412e-06 9.15e-05 9.22e-05 2.32e-05 
23 1 1.62531e-06 5.42e-05 5.12e-05 2.71e-05 
14 1 1.44932e-06 6.83e-05 5.22e-05 3.22e-05 
39 1 1.90482e-06 8.7e-05 7.64e-05 3.57e-05 
2 1 1.51143e-06 9.63e-05 7.52e-05 3.79e-05 
32 1 1.42862e-06 5.08e-05 7.61e-05 3.86e-05 
3 1 1.43897e-06 9.44e-05 9.34e-05 3.85e-05 
38 1 1.93588e-06 7.84e-05 5.02e-05 3.94e-05 
18 1 1.74954e-06 9.62e-05 8.35e-05 4.27e-05 
37 1 1.62531e-06 5.45e-05 8.46e-05 4.25e-05 
ITEM: TIMESTEP
700
ITEM: NUMBER OF ATOMS
53
ITEM: BOX BOUNDS ff ff ff
0.0000000000000000e+00 1.0000000000000000e-04
0.0000000000000000e+00 1.0000000000000000e-04
0.0000000000000000e+00 5.0000000000000002e-05
ITEM: ATOMS id type diameter x y z 
47 1 1.53059e-06 2.46e-05 1.24e-05 4.04e-06 
9 1 1.51499e-06 3.30128e-05 4.9797e-05 6.90048e-06 
49 1 1.69719e-06 2.32e-06 4.46e-05 8.19e-06 
36 1 1.89502e-06 4.5e-05 2.62e-05 1.1e-05 
17 1 1.71801e-06 7.73e-06 3.44e-05 1.44e-05 
34 1 1.65554e-06 4.48e-05 3.82e-05 1.44e-05 
15 1 1.82214e-06 4.39e-05 3.98e-06 1.59e-05 
8 1 1.75966e-06 1.84e-05 3.95e-06 1.66e-05 
6 1 1.58265e-06 4.01e-05 2.1e-05 1.86e-05 
51 1 1.68274e-06 3.29859e-05 4.98033e-05 8.5014e-06 
41 1 1.65554e-06 4.27e-05 2.99e-05 2.3e-05 
11 1 1.43688e-06 2.88e-05 1.06e-05 2.68e-05 
45 1 1.78049e-06 4.12e-06 3.33e-06 3.03e-05 
4 1 1.48375e-06 3.75124e-05 1.67971e-05 3.36588e-05 
25 1 1.67636e-06 4.5e-05 8.57e-06 4.02e-05 
5 1 1.88461e-06 1.21e-05 4.72e-05 4.42e-05 
53 1 1.64804e-06 3.74862e-05 1.68033e-05 3.52233e-05 
1 1 1.56183e-06 4.16e-05 6.63e-05 1.3e-05 
31 1 1.64513e-06 4.57e-05 8.9e-05 2.6e-05 
12 1 1.75966e-06 3.27e-05 5.06e-05 3.45e-05 
43 1 1.8742e-06 3.49e-05 5.07e-05 3.78e-05 
46 1 1.63472e-06 4.86e-05 5.76e-05 4.16e-05 
26 1 1.46812e-06 3.42e-05 7.59e-05 4.46e-05 
16 1 1.49156e-06 9.45244e-06 8.13971e-05 4.45592e-05 
7 1 1.92626e-06 1.6e-05 8.92e-05 4.5e-05 
52 1 1.65672e-06 9.42618e-06 8.14033e-05 4.61228e-05 
44 1 1.65554e-06 6.15e-05 1.91e-05 3.62e-06 
10 1 1.49936e-06 8.11e-05 8.35e-06 5.81e-06 
24 1 1.83255e-06 5.22e-05 4.06e-05 1.15e-05 
13 1 1.81172e-06 6.29e-05 1.47e-05 1.3e-05 
50 1 1.73884e-06 6.29e-05 1.89e-06 1.73e-05 
29 1 1.73884e-06 5e-05 1.27e-05 1.79e-05 
21 1 1.72843e-06 7.98e-05 2.95e-05 2.8e-05 
35 1 1.4473e-06 8.19e-05 3.78e-05 3e-05 
40 1 1.92626e-06 5.67e-05 1.33e-05 3.43e-05 
28 1 1.86378e-06 9.3e-05 1.18e-05 3.71e-05 
27 1 1.7909e-06 7.59e-05 4.84e-05 3.72e-05 
48 1 1.64513e-06 8.79e-05 5.25e-06 4.71e-05 
19 1 1.50977e-06 5.82e-05 1.66e-05 4.78e-05 
30 1 1.75966e-06 7.92e-05 6.79e-05 9.24e-06 
42 1 1.91585e-06 6.82e-05 9.12e-05 9.68e-06 
33 1 1.86378e-06 8.7e-05 8.83e-05 1.5e-05 
22 1 1.94708e-06 6.16e-05 8.26e-05 2.09e-05 
20 1 1.89502e-06 9.15e-05 9.22e-05 2.32e-05 
23 1 1.63472e-06 5.42e-05 5.12e-05 2.71e-05 
14 1 1.45771e-06 6.83e-05 5.22e-05 3.22e-05 
39 1 1.91585e-06 8.7e-05 7.64e-05 3.57e-05 
2 1 1.52018e-06 9.63e-05 7.52e-05 3.79e-05 
32 1 1.43688e-06 5.08e-05 7.61e-05 3.86e-05 
3 1 1.4473e-06 9.44e-05 9.34e-05 3.85e-05 
38 1 1.94708e-06 7.84e-05 5.02e-05 3.94e-05 
18 1 1.75966e-06 9.62e-05 8.35e-05 4.27e-05 
37 1 1.63472e-06 5.45e-05 8.46e-05 4.25e-05 
ITEM: TIMESTEP
800
ITEM: NUMBER OF ATOMS
53
ITEM: BOX BOUNDS ff ff ff
0.0000000000000000e+00 1.0000000000000000e-04
0.0000000000000000e+00 1.0000000000000000e-04
0.0000000000000000e+00 5.0000000000000002e-05
ITEM: ATOMS id type diameter x y z 
47 1 1.53945e-06 2.46e-05 1.24e-05 4.04e-06 
9 1 1.52375e-06 3.30128e-05 4.9797e-05 6.90048e-06 
49 1 1.70701e-06 2.32e-06 4.46e-05 8.19e-06 
36 1 1.90599e-06 4.5e-05 2.62e-05 1.1e-05 
17 1 1.72796e-06 7.73e-06 3.44e-05 1.44e-05 
34 1 1.66512e-06 4.48e-05 3.82e-05 1.44e-05 
15 1 1.83268e-06 4.39e-05 3.98e-06 1.59e-05 
8 1 1.76985e-06 1.84e-05 3.95e-06 1.66e-05 
6 1 1.59181e-06 4.01e-05 2.1e-05 1.86e-05 
51 1 1.69248e-06 3.29859e-05 4.98033e-05 8.5014e-06 
41 1 1.66512e-06 4.27e-05 2.99e-05 2.3e-05 
11 1 1.4452e-06 2.88e-05 1.06e-05 2.68e-05 
45 1 1.79079e-06 4.12e-06 3.33e-06 3.03e-05 
4 1 1.49234e-06 3.75124e-05 1.67971e-05 3.36588e-05 
25 1 1.68607e-06 4.5e-05 8.57e-06 4.02e-05 
5 1 1.89552e-06 1.21e-05 4.72e-05 4.42e-05 
53 1 1.65758e-06 3.74862e-05 1.68033e-05 3.52233e-05 
1 1 1.57087e-06 4.16e-05 6.63e-05 1.3e-05 
31 1 1.65465e-06 4.57e-05 8.9e-05 2.6e-05 
12 1 1.76985e-06 3.27e-05 5.06e-05 3.45e-05 
43 1 1.88504e-06 3.49e-05 5.07e-05 3.78e-05 
46 1 1.64418e-06 4.86e-05 5.76e-05 4.16e-05 
26 1 1.47662e-06 3.42e-05 7.59e-05 4.46e-05 
16 1 1.50019e-06 9.45244e-06 8.13971e-05 4.45592e-05 
7 1 1.93741e-06 1.6e-05 8.92e-05 4.5e-05 
52 1 1.6663e-06 9.42618e-06 8.14033e-05 4.61228e-05 
44 1 1.66512e-06 6.15e-05 1.91e-05 3.62e-06 
10 1 1.50803e-06 8.11e-05 8.35e-06 5.81e-06 
24 1 1.84315e-06 5.22e-05 4.06e-05 1.15e-05 
13 1 1.82221e-06 6.29e-05 1.47e-05 1.3e-05 
50 1 1.7489e-06 6.29e-05 1.89e-06 1.73e-05 
29 1 1.7489e-06 5e-05 1.27e-05 1.79e-05 
21 1 1.73843e-06 7.98e-05 2.95e-05 2.8e-05 
35 1 1.45567e-06 8.19e-05 3.78e-05 3e-05 
40 1 1.93741e-06 5.67e-05 1.33e-05 3.43e-05 
28 1 1.87457e-06 9.3e-05 1.18e-05 3.71e-05 
27 1 1.80126e-06 7.59e-05 4.84e-05 3.72e-05 
48 1 1.65465e-06 8.79e-05 5.25e-06 4.71e-05 
19 1 1.51851e-06 5.82e-05 1.66e-05 4.78e-05 
30 1 1.76985e-06 7.92e-05 6.79e-05 9.24e-06 
42 1 1.92693e-06 6.82e-05 9.12e-05 9.68e-06 
33 1 1.87457e-06 8.7e-05 8.83e-05 1.5e-05 
22 1 1.95835e-06 6.16e-05 8.26e-05 2.09e-05 
20 1 1.90599e-06 9.15e-05 9.22e-05 2.32e-05 
23 1 1.64418e-06 5.42e-05 5.12e-05 2.71e-05 
14 1 1.46614e-06 6.83e-05 5.22e-05 3.22e-05 
39 1 1.92693e-06 8.7e-05 7.64e-05 3.57e-05 
2 1 1.52898e-06 9.63e-05 7.52e-05 3.79e-05 
32 1 1.4452e-06 5.08e-05 7.61e-05 3.86e-05 
3 1 1.45567e-06 9.44e-05 9.34e-05 3.85e-05 
38 1 1.95835e-06 7.84e-05 5.02e-05 3.94e-05 
18 1 1.76985e-06 9.62e-05 8.35e-05 4.27e-05 
37 1 1.64418e-06 5.45e-05 8.46e-05 4.25e-05 
ITEM: TIMESTEP
900
ITEM: NUMBER OF ATOMS
53
ITEM: BOX BOUNDS ff ff ff
0.0000000000000000e+00 1.0000000000000000e-04
0.0000000000000000e+00 1.0000000000000000e-04
0.0000000000000000e+00 5.0000000000000002e-05
ITEM: ATOMS id type diameter x y z 
47 1 1.54836e-06 2.46e-05 1.24e-05 4.04e-06 
9 1 1.53257e-06 3.30128e-05 4.9797e-05 6.90048e-06 
49 1 1.71689e-06 2.32e-06 4.46e-05 8.19e-06 
36 1 1.91702e-06 4.5e-05 2.62e-05 1.1e-05 
17 1 1.73796e-06 7.73e-06 3.44e-05 1.44e-05 
34 1 1.67476e-06 4.48e-05 3.82e-05 1.44e-05 
15 1 1.84329e-06 4.39e-05 3.98e-06 1.59e-05 
8 1 1.78009e-06 1.84e-05 3.95e-06 1.66e-05 
6 1 1.60103e-06 4.01e-05 2.1e-05 1.86e-05 
51 1 1.70227e-06 3.29859e-05 4.98033e-05 8.5014e-06 
41 1 1.67476e-06 4.27e-05 2.99e-05 2.3e-05 
11 1 1.45356e-06 2.88e-05 1.06e-05 2.68e-05 
45 1 1.80115e-06 4.12e-06 3.33e-06 3.03e-05 
4 1 1.50097e-06 3.75124e-05 1.67971e-05 3.36588e-05 
25 1 1.69582e-06 4.5e-05 8.57e-06 4.02e-05 
5 1 1.90649e-06 1.21e-05 4.72e-05 4.42e-05 
53 1 1.66717e-06 3.74862e-05 1.68033e-05 3.52233e-05 
1 1 1.57996e-06 4.16e-05 6.63e-05 1.3e-05 
31 1 1.66422e-06 4.57e-05 8.9e-05 2.6e-05 
12 1 1.78009e-06 3.27e-05 5.06e-05 3.45e-05 
43 1 1.89595e-06 3.49e-05 5.07e-05 3.78e-05 
46 1 1.65369e-06 4.86e-05 5.76e-05 4.16e-05 
26 1 1.48516e-06 3.42e-05 7.59e-05 4.46e-05 
16 1 1.50887e-06 9.45244e-06 8.13971e-05 4.45592e-05 
7 1 1.94862e-06 1.6e-05 8.92e-05 4.5e-05 
52 1 1.67595e-06 9.42618e-06 8.14033e-05 4.61228e-05 
44 1 1.67476e-06 6.15e-05 1.91e-05 3.62e-06 
10 1 1.51676e-06 8.11e-05 8.35e-06 5.81e-06 
24 1 1.85382e-06 5.22e-05 4.06e-05 1.15e-05 
13 1 1.83275e-06 6.29e-05 1.47e-05 1.3e-05 
50 1 1.75902e-06 6.29e-05 1.89e-06 1.73e-05 
29 1 1.75902e-06 5e-05 1.27e-05 1.79e-05 
21 1 1.74849e-06 7.98e-05 2.95e-05 2.8e-05 
35 1 1.4641e-06 8.19e-05 3.78e-05 3e-05 
40 1 1.94862e-06 5.67e-05 1.33e-05 3.43e-05 
28 1 1.88542e-06 9.3e-05 1.18e-05 3.71e-05 
27 1 1.81169e-06 7.59e-05 4.84e-05 3.72e-05 
48 1 1.66422e-06 8.79e-05 5.25e-06 4.71e-05 
19 1 1.52729e-06 5.82e-05 1.66e-05 4.78e-05 
30 1 1.78009e-06 7.92e-05 6.79e-05 9.24e-06 
42 1 1.93808e-06 6.82e-05 9.12e-05 9.68e-06 
33 1 1.88542e-06 8.7e-05 8.83e-05 1.5e-05 
22 1 1.96968e-06 6.16e-05 8.26e-05 2.09e-05 
20 1 1.91702e-06 9.15e-05 9.22e-05 2.32e-05 
23 1 1.65369e-06 5.42e-05 5.12e-05 2.71e-05 
14 1 1.47463e-06 6.83e-05 5.22e-05 3.22e-05 
39 1 1.93808e-06 8.7e-05 7.64e-05 3.57e-05 
2 1 1.53783e-06 9.63e-05 7.52e-05 3.79e-05 
32 1 1.45356e-06 5.08e-05 7.61e-05 3.86e-05 
3 1 1.4641e-06 9.44e-05 9.34e-05 3.85e-05 
38 1 1.96968e-06 7.84e-05 5.02e-05 3.94e-05 
18 1 1.78009e-06 9.62e-05 8.35e-05 4.27e-05 
37 1 1.65369e-06 5.45e-05 8.46e-05 4.25e-05 
ITEM: TIMESTEP
1000
ITEM: NUMBER OF ATOMS
55
ITEM: BOX BOUNDS ff ff ff
0.0000000000000000e+00 1.0000000000000000e-04
0.0000000000000000e+00 1.0000000000000000e-04
0.0000000000000000e+00 5.0000000000000002e-05
ITEM: ATOMS id type diameter x y z 
47 1 1.55732e-06 2.46e-05 1.24e-05 4.04e-06 
9 1 1.54144e-06 3.30128e-05 4.9797e-05 6.90048e-06 
49 1 1.72683e-06 2.32e-06 4.46e-05 8.19e-06 
51 1 1.71212e-06 3.29859e-05 4.98033e-05 8.5014e-06 
36 1 1.92811e-06 4.5e-05 2.62e-05 1.1e-05 
17 1 1.74801e-06 7.73e-06 3.44e-05 1.44e-05 
34 1 1.68445e-06 4.48e-05 3.82e-05 1.44e-05 
15 1 1.85395e-06 4.39e-05 3.98e-06 1.59e-05 
8 1 1.79039e-06 1.84e-05 3.95e-06 1.66e-05 
6 1 1.61029e-06 4.01e-05 2.1e-05 1.86e-05 
41 1 1.68445e-06 4.27e-05 2.99e-05 2.3e-05 
11 1 1.46198e-06 2.88e-05 1.06e-05 2.68e-05 
45 1 1.81158e-06 4.12e-06 3.33e-06 3.03e-05 
4 1 1.50966e-06 3.75124e-05 1.67971e-05 3.36588e-05 
53 1 1.67682e-06 3.74862e-05 1.68033e-05 3.52233e-05 
25 1 1.70564e-06 4.5e-05 8.57e-06 4.02e-05 
5 1 1.91752e-06 1.21e-05 4.72e-05 4.42e-05 
1 1 1.5891e-06 4.16e-05 6.63e-05 1.3e-05 
31 1 1.67386e-06 4.57e-05 8.9e-05 2.6e-05 
12 1 1.79039e-06 3.27e-05 5.06e-05 3.45e-05 
43 1 1.90692e-06 3.49e-05 5.07e-05 3.78e-05 
46 1 1.66326e-06 4.86e-05 5.76e-05 4.16e-05 
26 1 1.49376e-06 3.42e-05 7.59e-05 4.46e-05 
16 1 1.5176e-06 9.45278e-06 8.1397e-05 4.45392e-05 
7 1 1.95989e-06 1.6e-05 8.92e-05 4.5e-05 
52 1 1.68565e-06 9.42584e-06 8.14033e-05 4.61428e-05 
44 1 1.68445e-06 6.15e-05 1.91e-05 3.62e-06 
10 1 1.52554e-06 8.11e-05 8.35e-06 5.81e-06 
24 1 1.86455e-06 5.22e-05 4.06e-05 1.15e-05 
13 1 1.84336e-06 6.29e-05 1.47e-05 1.3e-05 
50 1 1.7692e-06 6.29e-05 1.89e-06 1.73e-05 
29 1 1.7692e-06 5e-05 1.27e-05 1.79e-05 
21 1 1.75861e-06 7.98e-05 2.95e-05 2.8e-05 
35 1 1.47257e-06 8.19e-05 3.78e-05 3e-05 
40 1 1.95989e-06 5.67e-05 1.33e-05 3.43e-05 
28 1 1.89633e-06 9.3e-05 1.18e-05 3.71e-05 
27 1 1.82217e-06 7.59e-05 4.84e-05 3.72e-05 
55 1 1.52986e-06 7.90768e-05 4.98467e-05 3.93633e-05 
48 1 1.67386e-06 8.79e-05 5.25e-06 4.71e-05 
19 1 1.53613e-06 5.82e-05 1.66e-05 4.78e-05 
30 1 1.79039e-06 7.92e-05 6.79e-05 9.24e-06 
42 1 1.9493e-06 6.82e-05 9.12e-05 9.68e-06 
33 1 1.89633e-06 8.7e-05 8.83e-05 1.5e-05 
22 1 1.48582e-06 6.16125e-05 8.25971e-05 2.01578e-05 
54 1 1.65034e-06 6.15862e-05 8.26033e-05 2.17244e-05 
20 1 1.92811e-06 9.15e-05 9.22e-05 2.32e-05 
23 1 1.66326e-06 5.42e-05 5.12e-05 2.71e-05 
14 1 1.48316e-06 6.83e-05 5.22e-05 3.22e-05 
39 1 1.9493e-06 8.7e-05 7.64e-05 3.57e-05 
2 1 1.54673e-06 9.63e-05 7.52e-05 3.79e-05 
32 1 1.46198e-06 5.08e-05 7.61e-05 3.86e-05 
3 1 1.47257e-06 9.44e-05 9.34e-05 3.85e-05 
38 1 1.61273e-06 7.76866e-05 5.05725e-05 3.94386e-05 
18 1 1.79039e-06 9.62e-05 8.35e-05 4.27e-05 
37 1 1.66326e-06 5.45e-05 8.46e-05 4.25e-05 
ITEM: TIMESTEP
1100
ITEM: NUMBER OF ATOMS
55
ITEM: BOX BOUNDS ff ff ff
0.0000000000000000e+00 1.0000000000000000e-04
0.0000000000000000e+00 1.0000000000000000e-04
0.0000000000000000e+00 5.0000000000000002e-05
ITEM: ATOMS id type diameter x y z 
47 1 1.56633e-06 2.46e-05 1.24e-05 4.04e-06 
9 1 1.55036e-06 3.30131e-05 4.97969e-05 6.88049e-06 
49 1 1.73682e-06 2.32e-06 4.46e-05 8.19e-06 
51 1 1.72203e-06 3.29855e-05 4.98034e-05 8.5214e-06 
36 1 1.93927e-06 4.5e-05 2.62e-05 1.1e-05 
17 1 1.75813e-06 7.73e-06 3.44e-05 1.44e-05 
34 1 1.6942e-06 4.48e-05 3.82e-05 1.44e-05 
15 1 1.86468e-06 4.39e-05 3.98e-06 1.59e-05 
8 1 1.80075e-06 1.84e-05 3.95e-06 1.66e-05 
6 1 1.61961e-06 4.01e-05 2.1e-05 1.86e-05 
41 1 1.6942e-06 4.27e-05 2.99e-05 2.3e-05 
11 1 1.47044e-06 2.88e-05 1.06e-05 2.68e-05 
45 1 1.82206e-06 4.12e-06 3.33e-06 3.03e-05 
4 1 1.51839e-06 3.75128e-05 1.6797e-05 3.36388e-05 
53 1 1.68652e-06 3.74858e-05 1.68033e-05 3.52433e-05 
25 1 1.71551e-06 4.5e-05 8.57e-06 4.02e-05 
5 1 1.92862e-06 1.21e-05 4.72e-05 4.42e-05 
1 1 1.5983e-06 4.16e-05 6.63e-05 1.3e-05 
31 1 1.68354e-06 4.57e-05 8.9e-05 2.6e-05 
12 1 1.80075e-06 3.27e-05 5.06e-05 3.45e-05 
43 1 1.91796e-06 3.49e-05 5.07e-05 3.78e-05 
46 1 1.67289e-06 4.86e-05 5.76e-05 4.16e-05 
26 1 1.5024e-06 3.42e-05 7.59e-05 4.46e-05 
16 1 1.52639e-06 9.45278e-06 8.1397e-05 4.45392e-05 
7 1 1.97124e-06 1.6e-05 8.92e-05 4.5e-05 
52 1 1.6954e-06 9.42584e-06 8.14033e-05 4.61428e-05 
44 1 1.6942e-06 6.15e-05 1.91e-05 3.62e-06 
10 1 1.53437e-06 8.11e-05 8.35e-06 5.81e-06 
24 1 1.87534e-06 5.22e-05 4.06e-05 1.15e-05 
13 1 1.85403e-06 6.29e-05 1.47e-05 1.3e-05 
50 1 1.77944e-06 6.29e-05 1.89e-06 1.73e-05 
29 1 1.77944e-06 5e-05 1.27e-05 1.79e-05 
21 1 1.76879e-06 7.98e-05 2.95e-05 2.8e-05 
35 1 1.48109e-06 8.19e-05 3.78e-05 3e-05 
40 1 1.97124e-06 5.67e-05 1.33e-05 3.43e-05 
28 1 1.9073e-06 9.3e-05 1.18e-05 3.71e-05 
27 1 1.83272e-06 7.59e-05 4.84e-05 3.72e-05 