ITEM: TIMESTEP
0
ITEM: NUMBER OF ATOMS
50
ITEM: BOX BOUNDS ff ff ff
0.0000000000000000e+00 1.0000000000000000e-04
0.0000000000000000e+00 1.0000000000000000e-04
0.0000000000000000e+00 5.0000000000000002e-05
ITEM: ATOMS id type diameter x y z 
14 1 1.45e-06 1.32e-05 3.72e-05 3.74e-06 
41 1 1.63e-06 2.22e-05 4.19e-05 8.77e-06 
39 1 1.84e-06 1.76e-05 2.71e-05 1.07e-05 
16 1 1.63e-06 4.42e-05 2.94e-05 1.07e-05 
8 1 1.5e-06 9.16e-06 5.77e-06 1.4e-05 
44 1 1.63e-06 4.92e-05 4.83e-05 1.85e-05 
10 1 1.92e-06 4.86e-05 2.18e-05 3.47e-05 
2 1 1.77e-06 4.31e-05 5.41e-06 3.96e-05 
13 1 1.72e-06 3.95e-05 3.1e-05 4.67e-05 
21 1 1.6e-06 4.22e-05 3.1e-05 4.82e-05 
27 1 1.47e-06 4.28e-05 8.85e-05 1.47e-06 
9 1 1.87e-06 1.38e-05 8.45e-05 7.17e-06 
38 1 1.62e-06 4.94e-05 7.1e-05 9.23e-06 
29 1 1.69e-06 4.26e-06 8.7e-05 1.62e-05 
34 1 1.75e-06 4.86e-05 5.17e-05 2.05e-05 
22 1 1.72e-06 3.26e-05 5.4e-05 2.39e-05 
40 1 1.6e-06 2.12e-05 9.51e-05 2.42e-05 
17 1 1.86e-06 3.48e-05 8.4e-05 2.53e-05 
50 1 1.41e-06 2.14e-05 8.13e-05 2.73e-05 
28 1 1.77e-06 4.13e-05 8.78e-05 2.79e-05 
36 1 1.41e-06 4.14e-05 6.34e-05 2.87e-05 
30 1 1.86e-06 4.1e-06 8.46e-05 3.04e-05 
24 1 1.53e-06 4.69e-05 7.74e-05 3.38e-05 
7 1 1.65e-06 2.25e-05 7.44e-05 3.53e-05 
49 1 1.7e-06 4.07e-05 7.23e-05 3.81e-05 
45 1 1.62e-06 2.68e-05 8.31e-05 4.38e-05 
12 1 1.54e-06 5.85e-05 4.27e-05 5.43e-06 
43 1 1.82e-06 6.28e-05 8.4e-06 6.95e-06 
6 1 1.79e-06 8.08e-05 6.37e-06 1.39e-05 
31 1 1.46e-06 7.1e-05 4.63e-05 1.6e-05 
42 1 1.72e-06 8.1e-05 9.11e-06 2.05e-05 
4 1 1.49e-06 5.41e-05 1.28e-05 3.25e-05 
25 1 1.51e-06 7.88e-05 2.81e-05 3.39e-05 
35 1 1.61e-06 5.59e-05 3.52e-05 3.41e-05 
23 1 1.74e-06 8.51e-05 2.72e-05 3.6e-05 
33 1 1.75e-06 8.01e-05 4.3e-05 4.13e-05 
3 1 1.7e-06 8.56e-05 4.21e-05 4.46e-05 
48 1 1.81e-06 7.54e-05 3.4e-05 4.74e-05 
18 1 1.39e-06 7.68e-05 1.96e-05 4.8e-05 
19 1 1.58e-06 7.61e-05 6.42e-05 6.54e-06 
32 1 1.44e-06 5.86e-05 9.73e-05 1.03e-05 
46 1 1.6e-06 8.09e-05 5.17e-05 1.23e-05 
15 1 1.48e-06 6.45e-05 7.2e-05 1.68e-05 
26 1 1.51e-06 8.43e-05 9.58e-05 1.92e-05 
11 1 1.57e-06 5.27e-05 5.21e-05 2.21e-05 
20 1 1.91e-06 6.84e-05 5.05e-05 2.3e-05 
5 1 1.55e-06 5.4e-05 8.08e-05 3.33e-05 
1 1 1.57e-06 6.37e-05 6.65e-05 3.54e-05 
37 1 1.42e-06 6.5e-05 5.7e-05 3.81e-05 
47 1 1.7e-06 7.93e-05 6.08e-05 4.25e-05 
ITEM: TIMESTEP
100
ITEM: NUMBER OF ATOMS
50
ITEM: BOX BOUNDS ff ff ff
0.0000000000000000e+00 1.0000000000000000e-04
0.0000000000000000e+00 1.0000000000000000e-04
0.0000000000000000e+00 5.0000000000000002e-05
ITEM: ATOMS id type diameter x y z 
14 1 1.45781e-06 1.32e-05 3.72e-05 3.74e-06 
41 1 1.63878e-06 2.22e-05 4.19e-05 8.77e-06 
39 1 1.84991e-06 1.76e-05 2.71e-05 1.07e-05 
16 1 1.63878e-06 4.42e-05 2.94e-05 1.07e-05 
8 1 1.50808e-06 9.16e-06 5.77e-06 1.4e-05 
44 1 1.63878e-06 4.92e-05 4.83e-05 1.85e-05 
10 1 1.93034e-06 4.86e-05 2.18e-05 3.47e-05 
2 1 1.77953e-06 4.31e-05 5.41e-06 3.96e-05 
13 1 1.72926e-06 3.95e-05 3.1e-05 4.67e-05 
21 1 1.60862e-06 4.22e-05 3.1e-05 4.82e-05 
27 1 1.47792e-06 4.28e-05 8.85e-05 1.47e-06 
9 1 1.88007e-06 1.38e-05 8.45e-05 7.17e-06 
38 1 1.62872e-06 4.94e-05 7.1e-05 9.23e-06 
29 1 1.6991e-06 4.26e-06 8.7e-05 1.62e-05 
34 1 1.75942e-06 4.86e-05 5.17e-05 2.05e-05 
22 1 1.72926e-06 3.26e-05 5.4e-05 2.39e-05 
40 1 1.60862e-06 2.12e-05 9.51e-05 2.42e-05 
17 1 1.87002e-06 3.48e-05 8.4e-05 2.53e-05 
50 1 1.41759e-06 2.14e-05 8.13e-05 2.73e-05 
28 1 1.77953e-06 4.13e-05 8.78e-05 2.79e-05 
36 1 1.41759e-06 4.14e-05 6.34e-05 2.87e-05 
30 1 1.87002e-06 4.1e-06 8.46e-05 3.04e-05 
24 1 1.53824e-06 4.69e-05 7.74e-05 3.38e-05 
7 1 1.65889e-06 2.25e-05 7.44e-05 3.53e-05 
49 1 1.70916e-06 4.07e-05 7.23e-05 3.81e-05 
45 1 1.62872e-06 2.68e-05 8.31e-05 4.38e-05 
12 1 1.54829e-06 5.85e-05 4.27e-05 5.43e-06 
43 1 1.8298e-06 6.28e-05 8.4e-06 6.95e-06 
6 1 1.79964e-06 8.08e-05 6.37e-06 1.39e-05 
31 1 1.46786e-06 7.1e-05 4.63e-05 1.6e-05 
42 1 1.72926e-06 8.1e-05 9.11e-06 2.05e-05 
4 1 1.49802e-06 5.41e-05 1.28e-05 3.25e-05 
25 1 1.51813e-06 7.88e-05 2.81e-05 3.39e-05 
35 1 1.61867e-06 5.59e-05 3.52e-05 3.41e-05 
23 1 1.74937e-06 8.51e-05 2.72e-05 3.6e-05 
33 1 1.75942e-06 8.01e-05 4.3e-05 4.13e-05 
3 1 1.70916e-06 8.56e-05 4.21e-05 4.46e-05 
48 1 1.81975e-06 7.54e-05 3.4e-05 4.74e-05 
18 1 1.39749e-06 7.68e-05 1.96e-05 4.8e-05 
19 1 1.58851e-06 7.61e-05 6.42e-05 6.54e-06 
32 1 1.44776e-06 5.86e-05 9.73e-05 1.03e-05 
46 1 1.60862e-06 8.09e-05 5.17e-05 1.23e-05 
15 1 1.48797e-06 6.45e-05 7.2e-05 1.68e-05 
26 1 1.51813e-06 8.43e-05 9.58e-05 1.92e-05 
11 1 1.57846e-06 5.27e-05 5.21e-05 2.21e-05 
20 1 1.92029e-06 6.84e-05 5.05e-05 2.3e-05 
5 1 1.55835e-06 5.4e-05 8.08e-05 3.33e-05 
1 1 1.57846e-06 6.37e-05 6.65e-05 3.54e-05 
37 1 1.42765e-06 6.5e-05 5.7e-05 3.81e-05 
47 1 1.70916e-06 7.93e-05 6.08e-05 4.25e-05 
ITEM: TIMESTEP
200
ITEM: NUMBER OF ATOMS
50
ITEM: BOX BOUNDS ff ff ff
0.0000000000000000e+00 1.0000000000000000e-04
0.0000000000000000e+00 1.0000000000000000e-04
0.0000000000000000e+00 5.0000000000000002e-05
ITEM: ATOMS id type diameter x y z 
14 1 1.46566e-06 1.32e-05 3.72e-05 3.74e-06 
41 1 1.6476e-06 2.22e-05 4.19e-05 8.77e-06 
39 1 1.85987e-06 1.76e-05 2.71e-05 1.07e-05 
16 1 1.6476e-06 4.42e-05 2.94e-05 1.07e-05 
8 1 1.5162e-06 9.16e-06 5.77e-06 1.4e-05 
44 1 1.6476e-06 4.92e-05 4.83e-05 1.85e-05 
10 1 1.94074e-06 4.86e-05 2.18e-05 3.47e-05 
2 1 1.78912e-06 4.31e-05 5.41e-06 3.96e-05 
13 1 1.73858e-06 3.95e-05 3.1e-05 4.67e-05 
21 1 1.61728e-06 4.22e-05 3.1e-05 4.82e-05 
27 1 1.48588e-06 4.28e-05 8.85e-05 1.47e-06 
9 1 1.8902e-06 1.38e-05 8.45e-05 7.17e-06 
38 1 1.6375e-06 4.94e-05 7.1e-05 9.23e-06 
29 1 1.70825e-06 4.26e-06 8.7e-05 1.62e-05 
34 1 1.7689e-06 4.86e-05 5.17e-05 2.05e-05 
22 1 1.73858e-06 3.26e-05 5.4e-05 2.39e-05 
40 1 1.61728e-06 2.12e-05 9.51e-05 2.42e-05 
17 1 1.88009e-06 3.48e-05 8.4e-05 2.53e-05 
50 1 1.42523e-06 2.14e-05 8.13e-05 2.73e-05 
28 1 1.78912e-06 4.13e-05 8.78e-05 2.79e-05 
36 1 1.42523e-06 4.14e-05 6.34e-05 2.87e-05 
30 1 1.88009e-06 4.1e-06 8.46e-05 3.04e-05 
24 1 1.54652e-06 4.69e-05 7.74e-05 3.38e-05 
7 1 1.66782e-06 2.25e-05 7.44e-05 3.53e-05 
49 1 1.71836e-06 4.07e-05 7.23e-05 3.81e-05 
45 1 1.6375e-06 2.68e-05 8.31e-05 4.38e-05 
12 1 1.55663e-06 5.85e-05 4.27e-05 5.43e-06 
43 1 1.83966e-06 6.28e-05 8.4e-06 6.95e-06 
6 1 1.80933e-06 8.08e-05 6.37e-06 1.39e-05 
31 1 1.47577e-06 7.1e-05 4.63e-05 1.6e-05 
42 1 1.73858e-06 8.1e-05 9.11e-06 2.05e-05 
4 1 1.50609e-06 5.41e-05 1.28e-05 3.25e-05 
25 1 1.52631e-06 7.88e-05 2.81e-05 3.39e-05 
35 1 1.62739e-06 5.59e-05 3.52e-05 3.41e-05 
23 1 1.75879e-06 8.51e-05 2.72e-05 3.6e-05 
33 1 1.7689e-06 8.01e-05 4.3e-05 4.13e-05 
3 1 1.71836e-06 8.56e-05 4.21e-05 4.46e-05 
48 1 1.82955e-06 7.54e-05 3.4e-05 4.74e-05 
18 1 1.40501e-06 7.68e-05 1.96e-05 4.8e-05 
19 1 1.59706e-06 7.61e-05 6.42e-05 6.54e-06 
32 1 1.45555e-06 5.86e-05 9.73e-05 1.03e-05 
46 1 1.61728e-06 8.09e-05 5.17e-05 1.23e-05 
15 1 1.49598e-06 6.45e-05 7.2e-05 1.68e-05 
26 1 1.52631e-06 8.43e-05 9.58e-05 1.92e-05 
11 1 1.58696e-06 5.27e-05 5.21e-05 2.21e-05 
20 1 1.93063e-06 6.84e-05 5.05e-05 2.3e-05 
5 1 1.56674e-06 5.4e-05 8.08e-05 3.33e-05 
1 1 1.58696e-06 6.37e-05 6.65e-05 3.54e-05 
37 1 1.43534e-06 6.5e-05 5.7e-05 3.81e-05 
47 1 1.71836e-06 7.93e-05 6.08e-05 4.25e-05 
ITEM: TIMESTEP
300
ITEM: NUMBER OF ATOMS
50
ITEM: BOX BOUNDS ff ff ff
0.0000000000000000e+00 1.0000000000000000e-04
0.0000000000000000e+00 1.0000000000000000e-04
0.0000000000000000e+00 5.0000000000000002e-05
ITEM: ATOMS id type diameter x y z 
14 1 1.47355e-06 1.32e-05 3.72e-05 3.74e-06 
41 1 1.65648e-06 2.22e-05 4.19e-05 8.77e-06 
39 1 1.86989e-06 1.76e-05 2.71e-05 1.07e-05 
16 1 1.65648e-06 4.42e-05 2.94e-05 1.07e-05 
8 1 1.52437e-06 9.16e-06 5.77e-06 1.4e-05 
44 1 1.65648e-06 4.92e-05 4.83e-05 1.85e-05 
10 1 1.95119e-06 4.86e-05 2.18e-05 3.47e-05 
2 1 1.79875e-06 4.31e-05 5.41e-06 3.96e-05 
13 1 1.74794e-06 3.95e-05 3.1e-05 4.67e-05 
21 1 1.62599e-06 4.22e-05 3.1e-05 4.82e-05 
27 1 1.49388e-06 4.28e-05 8.85e-05 1.47e-06 
9 1 1.90038e-06 1.38e-05 8.45e-05 7.17e-06 
38 1 1.64632e-06 4.94e-05 7.1e-05 9.23e-06 
29 1 1.71745e-06 4.26e-06 8.7e-05 1.62e-05 
34 1 1.77843e-06 4.86e-05 5.17e-05 2.05e-05 
22 1 1.74794e-06 3.26e-05 5.4e-05 2.39e-05 
40 1 1.62599e-06 2.12e-05 9.51e-05 2.42e-05 
17 1 1.89021e-06 3.48e-05 8.4e-05 2.53e-05 
50 1 1.4329e-06 2.14e-05 8.13e-05 2.73e-05 
28 1 1.79875e-06 4.13e-05 8.78e-05 2.79e-05 
36 1 1.4329e-06 4.14e-05 6.34e-05 2.87e-05 
30 1 1.89021e-06 4.1e-06 8.46e-05 3.04e-05 
24 1 1.55485e-06 4.69e-05 7.74e-05 3.38e-05 
7 1 1.6768e-06 2.25e-05 7.44e-05 3.53e-05 
49 1 1.72761e-06 4.07e-05 7.23e-05 3.81e-05 
45 1 1.64632e-06 2.68e-05 8.31e-05 4.38e-05 
12 1 1.56502e-06 5.85e-05 4.27e-05 5.43e-06 
43 1 1.84956e-06 6.28e-05 8.4e-06 6.95e-06 
6 1 1.81908e-06 8.08e-05 6.37e-06 1.39e-05 
31 1 1.48372e-06 7.1e-05 4.63e-05 1.6e-05 
42 1 1.74794e-06 8.1e-05 9.11e-06 2.05e-05 
4 1 1.5142e-06 5.41e-05 1.28e-05 3.25e-05 
25 1 1.53453e-06 7.88e-05 2.81e-05 3.39e-05 
35 1 1.63615e-06 5.59e-05 3.52e-05 3.41e-05 
23 1 1.76826e-06 8.51e-05 2.72e-05 3.6e-05 
33 1 1.77843e-06 8.01e-05 4.3e-05 4.13e-05 
3 1 1.72761e-06 8.56e-05 4.21e-05 4.46e-05 
48 1 1.8394e-06 7.54e-05 3.4e-05 4.74e-05 
18 1 1.41258e-06 7.68e-05 1.96e-05 4.8e-05 
19 1 1.60567e-06 7.61e-05 6.42e-05 6.54e-06 
32 1 1.46339e-06 5.86e-05 9.73e-05 1.03e-05 
46 1 1.62599e-06 8.09e-05 5.17e-05 1.23e-05 
15 1 1.50404e-06 6.45e-05 7.2e-05 1.68e-05 
26 1 1.53453e-06 8.43e-05 9.58e-05 1.92e-05 
11 1 1.5955e-06 5.27e-05 5.21e-05 2.21e-05 
20 1 1.94103e-06 6.84e-05 5.05e-05 2.3e-05 
5 1 1.57518e-06 5.4e-05 8.08e-05 3.33e-05 
1 1 1.5955e-06 6.37e-05 6.65e-05 3.54e-05 
37 1 1.44307e-06 6.5e-05 5.7e-05 3.81e-05 
47 1 1.72761e-06 7.93e-05 6.08e-05 4.25e-05 
ITEM: TIMESTEP
400
ITEM: NUMBER OF ATOMS
50
ITEM: BOX BOUNDS ff ff ff
0.0000000000000000e+00 1.0000000000000000e-04
0.0000000000000000e+00 1.0000000000000000e-04
0.0000000000000000e+00 5.0000000000000002e-05
ITEM: ATOMS id type diameter x y z 
14 1 1.48149e-06 1.32e-05 3.72e-05 3.74e-06 
41 1 1.6654e-06 2.22e-05 4.19e-05 8.77e-06 
39 1 1.87996e-06 1.76e-05 2.71e-05 1.07e-05 
16 1 1.6654e-06 4.42e-05 2.94e-05 1.07e-05 
8 1 1.53258e-06 9.16e-06 5.77e-06 1.4e-05 
44 1 1.6654e-06 4.92e-05 4.83e-05 1.85e-05 
10 1 1.9617e-06 4.86e-05 2.18e-05 3.47e-05 
2 1 1.80844e-06 4.31e-05 5.41e-06 3.96e-05 
13 1 1.75735e-06 3.95e-05 3.1e-05 4.67e-05 
21 1 1.63475e-06 4.22e-05 3.1e-05 4.82e-05 
27 1 1.50192e-06 4.28e-05 8.85e-05 1.47e-06 
9 1 1.91061e-06 1.38e-05 8.45e-05 7.17e-06 
38 1 1.65518e-06 4.94e-05 7.1e-05 9.23e-06 
29 1 1.7267e-06 4.26e-06 8.7e-05 1.62e-05 
34 1 1.788e-06 4.86e-05 5.17e-05 2.05e-05 
22 1 1.75735e-06 3.26e-05 5.4e-05 2.39e-05 
40 1 1.63475e-06 2.12e-05 9.51e-05 2.42e-05 
17 1 1.90039e-06 3.48e-05 8.4e-05 2.53e-05 
50 1 1.44062e-06 2.14e-05 8.13e-05 2.73e-05 
28 1 1.80844e-06 4.13e-05 8.78e-05 2.79e-05 
36 1 1.44062e-06 4.14e-05 6.34e-05 2.87e-05 
30 1 1.90039e-06 4.1e-06 8.46e-05 3.04e-05 
24 1 1.56323e-06 4.69e-05 7.74e-05 3.38e-05 
7 1 1.68583e-06 2.25e-05 7.44e-05 3.53e-05 
49 1 1.73692e-06 4.07e-05 7.23e-05 3.81e-05 
45 1 1.65518e-06 2.68e-05 8.31e-05 4.38e-05 
12 1 1.57344e-06 5.85e-05 4.27e-05 5.43e-06 
43 1 1.85952e-06 6.28e-05 8.4e-06 6.95e-06 
6 1 1.82887e-06 8.08e-05 6.37e-06 1.39e-05 
31 1 1.49171e-06 7.1e-05 4.63e-05 1.6e-05 
42 1 1.75735e-06 8.1e-05 9.11e-06 2.05e-05 
4 1 1.52236e-06 5.41e-05 1.28e-05 3.25e-05 
25 1 1.54279e-06 7.88e-05 2.81e-05 3.39e-05 
35 1 1.64496e-06 5.59e-05 3.52e-05 3.41e-05 
23 1 1.77779e-06 8.51e-05 2.72e-05 3.6e-05 
33 1 1.788e-06 8.01e-05 4.3e-05 4.13e-05 
3 1 1.73692e-06 8.56e-05 4.21e-05 4.46e-05 
48 1 1.84931e-06 7.54e-05 3.4e-05 4.74e-05 
18 1 1.42019e-06 7.68e-05 1.96e-05 4.8e-05 
19 1 1.61431e-06 7.61e-05 6.42e-05 6.54e-06 
32 1 1.47127e-06 5.86e-05 9.73e-05 1.03e-05 
46 1 1.63475e-06 8.09e-05 5.17e-05 1.23e-05 
15 1 1.51214e-06 6.45e-05 7.2e-05 1.68e-05 
26 1 1.54279e-06 8.43e-05 9.58e-05 1.92e-05 
11 1 1.6041e-06 5.27e-05 5.21e-05 2.21e-05 
20 1 1.95148e-06 6.84e-05 5.05e-05 2.3e-05 
5 1 1.58366e-06 5.4e-05 8.08e-05 3.33e-05 
1 1 1.6041e-06 6.37e-05 6.65e-05 3.54e-05 
37 1 1.45084e-06 6.5e-05 5.7e-05 3.81e-05 
47 1 1.73692e-06 7.93e-05 6.08e-05 4.25e-05 
ITEM: TIMESTEP
500
ITEM: NUMBER OF ATOMS
51
ITEM: BOX BOUNDS ff ff ff
0.0000000000000000e+00 1.0000000000000000e-04
0.0000000000000000e+00 1.0000000000000000e-04
0.0000000000000000e+00 5.0000000000000002e-05
ITEM: ATOMS id type diameter x y z 
14 1 1.48947e-06 1.32e-05 3.72e-05 3.74e-06 
41 1 1.67437e-06 2.22e-05 4.19e-05 8.77e-06 
39 1 1.89008e-06 1.76e-05 2.71e-05 1.07e-05 
16 1 1.67437e-06 4.42e-05 2.94e-05 1.07e-05 
8 1 1.54083e-06 9.16e-06 5.77e-06 1.4e-05 
44 1 1.67437e-06 4.92e-05 4.83e-05 1.85e-05 
10 1 1.57663e-06 4.8274e-05 2.12986e-05 3.52131e-05 
2 1 1.81818e-06 4.31e-05 5.41e-06 3.96e-05 
13 1 1.76682e-06 3.95e-05 3.1e-05 4.67e-05 
21 1 1.64355e-06 4.22e-05 3.1e-05 4.82e-05 
51 1 1.55397e-06 4.89213e-05 2.22942e-05 3.41943e-05 
27 1 1.51001e-06 4.28e-05 8.85e-05 1.47e-06 
9 1 1.9209e-06 1.38e-05 8.45e-05 7.17e-06 
38 1 1.6641e-06 4.94e-05 7.1e-05 9.23e-06 
29 1 1.736e-06 4.26e-06 8.7e-05 1.62e-05 
34 1 1.79763e-06 4.86e-05 5.17e-05 2.05e-05 
22 1 1.76682e-06 3.26e-05 5.4e-05 2.39e-05 
40 1 1.64355e-06 2.12e-05 9.51e-05 2.42e-05 
17 1 1.91063e-06 3.48e-05 8.4e-05 2.53e-05 
50 1 1.44838e-06 2.14e-05 8.13e-05 2.73e-05 
28 1 1.81818e-06 4.13e-05 8.78e-05 2.79e-05 
36 1 1.44838e-06 4.14e-05 6.34e-05 2.87e-05 
30 1 1.91063e-06 4.1e-06 8.46e-05 3.04e-05 
24 1 1.57165e-06 4.69e-05 7.74e-05 3.38e-05 
7 1 1.69491e-06 2.25e-05 7.44e-05 3.53e-05 
49 1 1.74627e-06 4.07e-05 7.23e-05 3.81e-05 
45 1 1.6641e-06 2.68e-05 8.31e-05 4.38e-05 
12 1 1.58192e-06 5.85e-05 4.27e-05 5.43e-06 
43 1 1.86954e-06 6.28e-05 8.4e-06 6.95e-06 
6 1 1.83872e-06 8.08e-05 6.37e-06 1.39e-05 
31 1 1.49974e-06 7.1e-05 4.63e-05 1.6e-05 
42 1 1.76682e-06 8.1e-05 9.11e-06 2.05e-05 
4 1 1.53056e-06 5.41e-05 1.28e-05 3.25e-05 
25 1 1.5511e-06 7.88e-05 2.81e-05 3.39e-05 
35 1 1.65382e-06 5.59e-05 3.52e-05 3.41e-05 
23 1 1.78736e-06 8.51e-05 2.72e-05 3.6e-05 
33 1 1.79763e-06 8.01e-05 4.3e-05 4.13e-05 
3 1 1.74627e-06 8.56e-05 4.21e-05 4.46e-05 
48 1 1.85927e-06 7.54e-05 3.4e-05 4.74e-05 
18 1 1.42784e-06 7.68e-05 1.96e-05 4.8e-05 
19 1 1.62301e-06 7.61e-05 6.42e-05 6.54e-06 
32 1 1.4792e-06 5.86e-05 9.73e-05 1.03e-05 
46 1 1.64355e-06 8.09e-05 5.17e-05 1.23e-05 
15 1 1.52028e-06 6.45e-05 7.2e-05 1.68e-05 
26 1 1.5511e-06 8.43e-05 9.58e-05 1.92e-05 
11 1 1.61273e-06 5.27e-05 5.21e-05 2.21e-05 
20 1 1.96199e-06 6.84e-05 5.05e-05 2.3e-05 
5 1 1.59219e-06 5.4e-05 8.08e-05 3.33e-05 
1 1 1.61273e-06 6.37e-05 6.65e-05 3.54e-05 
37 1 1.45865e-06 6.5e-05 5.7e-05 3.81e-05 
47 1 1.74627e-06 7.93e-05 6.08e-05 4.25e-05 
ITEM: TIMESTEP
600
ITEM: NUMBER OF ATOMS
52
ITEM: BOX BOUNDS ff ff ff
0.0000000000000000e+00 1.0000000000000000e-04
0.0000000000000000e+00 1.0000000000000000e-04
0.0000000000000000e+00 5.0000000000000002e-05
ITEM: ATOMS id type diameter x y z 
14 1 1.49749e-06 1.32e-05 3.72e-05 3.74e-06 
41 1 1.68339e-06 2.22e-05 4.19e-05 8.77e-06 
39 1 1.90026e-06 1.76e-05 2.71e-05 1.07e-05 
16 1 1.68339e-06 4.42e-05 2.94e-05 1.07e-05 
8 1 1.54913e-06 9.16e-06 5.77e-06 1.4e-05 
44 1 1.68339e-06 4.92e-05 4.83e-05 1.85e-05 
10 1 1.58512e-06 4.8274e-05 2.12986e-05 3.52131e-05 
2 1 1.82797e-06 4.31e-05 5.41e-06 3.96e-05 
13 1 1.77633e-06 3.95e-05 3.1e-05 4.67e-05 
21 1 1.6524e-06 4.22e-05 3.1e-05 4.82e-05 
51 1 1.56234e-06 4.89213e-05 2.22942e-05 3.41943e-05 
27 1 1.51814e-06 4.28e-05 8.85e-05 1.47e-06 
9 1 1.93125e-06 1.38e-05 8.45e-05 7.17e-06 
38 1 1.67306e-06 4.94e-05 7.1e-05 9.23e-06 
29 1 1.74535e-06 4.26e-06 8.7e-05 1.62e-05 
34 1 1.80732e-06 4.86e-05 5.17e-05 2.05e-05 
22 1 1.77633e-06 3.26e-05 5.4e-05 2.39e-05 
40 1 1.6524e-06 2.12e-05 9.51e-05 2.42e-05 
17 1 1.92092e-06 3.48e-05 8.4e-05 2.53e-05 
50 1 1.45618e-06 2.14e-05 8.13e-05 2.73e-05 
28 1 1.82797e-06 4.13e-05 8.78e-05 2.79e-05 
36 1 1.45618e-06 4.14e-05 6.34e-05 2.87e-05 
30 1 1.92092e-06 4.1e-06 8.46e-05 3.04e-05 
24 1 1.58011e-06 4.69e-05 7.74e-05 3.38e-05 
7 1 1.70404e-06 2.25e-05 7.44e-05 3.53e-05 
49 1 1.75568e-06 4.07e-05 7.23e-05 3.81e-05 
45 1 1.67306e-06 2.68e-05 8.31e-05 4.38e-05 
12 1 1.59044e-06 5.85e-05 4.27e-05 5.43e-06 
43 1 1.87961e-06 6.28e-05 8.4e-06 6.95e-06 
6 1 1.84863e-06 8.08e-05 6.37e-06 1.39e-05 
31 1 1.50782e-06 7.1e-05 4.63e-05 1.6e-05 
42 1 1.77633e-06 8.1e-05 9.11e-06 2.05e-05 
4 1 1.5388e-06 5.41e-05 1.28e-05 3.25e-05 
25 1 1.55945e-06 7.88e-05 2.81e-05 3.39e-05 
35 1 1.66273e-06 5.59e-05 3.52e-05 3.41e-05 
23 1 1.79699e-06 8.51e-05 2.72e-05 3.6e-05 
33 1 1.80732e-06 8.01e-05 4.3e-05 4.13e-05 
3 1 1.75568e-06 8.56e-05 4.21e-05 4.46e-05 
48 1 1.86928e-06 7.54e-05 3.4e-05 4.74e-05 
18 1 1.43552e-06 7.68e-05 1.96e-05 4.8e-05 
20 1 1.57687e-06 6.8074e-05 4.99985e-05 2.35132e-05 
19 1 1.63175e-06 7.61e-05 6.42e-05 6.54e-06 
32 1 1.48716e-06 5.86e-05 9.73e-05 1.03e-05 
46 1 1.6524e-06 8.09e-05 5.17e-05 1.23e-05 
15 1 1.52847e-06 6.45e-05 7.2e-05 1.68e-05 
26 1 1.55945e-06 8.43e-05 9.58e-05 1.92e-05 
11 1 1.62142e-06 5.27e-05 5.21e-05 2.21e-05 
52 1 1.55421e-06 6.87213e-05 5.09943e-05 2.24942e-05 
5 1 1.60077e-06 5.4e-05 8.08e-05 3.33e-05 
1 1 1.62142e-06 6.37e-05 6.65e-05 3.54e-05 
37 1 1.46651e-06 6.5e-05 5.7e-05 3.81e-05 
47 1 1.75568e-06 7.93e-05 6.08e-05 4.25e-05 
ITEM: TIMESTEP
700
ITEM: NUMBER OF ATOMS
52
ITEM: BOX BOUNDS ff ff ff
0.0000000000000000e+00 1.0000000000000000e-04
0.0000000000000000e+00 1.0000000000000000e-04
0.0000000000000000e+00 5.0000000000000002e-05
ITEM: ATOMS id type diameter x y z 
14 1 1.50555e-06 1.32e-05 3.72e-05 3.74e-06 
41 1 1.69245e-06 2.22e-05 4.19e-05 8.77e-06 
39 1 1.9105e-06 1.76e-05 2.71e-05 1.07e-05 
16 1 1.69245e-06 4.42e-05 2.94e-05 1.07e-05 
8 1 1.55747e-06 9.16e-06 5.77e-06 1.4e-05 
44 1 1.69245e-06 4.92e-05 4.83e-05 1.85e-05 
10 1 1.59366e-06 4.8274e-05 2.12986e-05 3.52131e-05 
2 1 1.83782e-06 4.31e-05 5.41e-06 3.96e-05 
13 1 1.7859e-06 3.95e-05 3.1e-05 4.67e-05 
21 1 1.6613e-06 4.22e-05 3.1e-05 4.82e-05 
51 1 1.57076e-06 4.89213e-05 2.22942e-05 3.41943e-05 
27 1 1.52632e-06 4.28e-05 8.85e-05 1.47e-06 
9 1 1.94165e-06 1.38e-05 8.45e-05 7.17e-06 
38 1 1.68207e-06 4.94e-05 7.1e-05 9.23e-06 
29 1 1.75475e-06 4.26e-06 8.7e-05 1.62e-05 
34 1 1.81705e-06 4.86e-05 5.17e-05 2.05e-05 
22 1 1.7859e-06 3.26e-05 5.4e-05 2.39e-05 
40 1 1.6613e-06 2.12e-05 9.51e-05 2.42e-05 
17 1 1.93126e-06 3.48e-05 8.4e-05 2.53e-05 
50 1 1.46402e-06 2.14e-05 8.13e-05 2.73e-05 
28 1 1.83782e-06 4.13e-05 8.78e-05 2.79e-05 
36 1 1.46402e-06 4.14e-05 6.34e-05 2.87e-05 
30 1 1.93126e-06 4.1e-06 8.46e-05 3.04e-05 
24 1 1.58862e-06 4.69e-05 7.74e-05 3.38e-05 
7 1 1.71322e-06 2.25e-05 7.44e-05 3.53e-05 
49 1 1.76513e-06 4.07e-05 7.23e-05 3.81e-05 
45 1 1.68207e-06 2.68e-05 8.31e-05 4.38e-05 
12 1 1.599e-06 5.85e-05 4.27e-05 5.43e-06 
43 1 1.88973e-06 6.28e-05 8.4e-06 6.95e-06 
6 1 1.85858e-06 8.08e-05 6.37e-06 1.39e-05 
31 1 1.51594e-06 7.1e-05 4.63e-05 1.6e-05 
42 1 1.7859e-06 8.1e-05 9.11e-06 2.05e-05 
4 1 1.54709e-06 5.41e-05 1.28e-05 3.25e-05 
25 1 1.56785e-06 7.88e-05 2.81e-05 3.39e-05 
35 1 1.67168e-06 5.59e-05 3.52e-05 3.41e-05 
23 1 1.80667e-06 8.51e-05 2.72e-05 3.6e-05 
33 1 1.81705e-06 8.01e-05 4.3e-05 4.13e-05 
3 1 1.76513e-06 8.56e-05 4.21e-05 4.46e-05 
48 1 1.87935e-06 7.54e-05 3.4e-05 4.74e-05 
18 1 1.44326e-06 7.68e-05 1.96e-05 4.8e-05 
20 1 1.58536e-06 6.80698e-05 4.99921e-05 2.35197e-05 
19 1 1.64054e-06 7.61e-05 6.42e-05 6.54e-06 
32 1 1.49517e-06 5.86e-05 9.73e-05 1.03e-05 
46 1 1.6613e-06 8.09e-05 5.17e-05 1.23e-05 
15 1 1.5367e-06 6.45e-05 7.2e-05 1.68e-05 
26 1 1.56785e-06 8.43e-05 9.58e-05 1.92e-05 
11 1 1.63015e-06 5.27e-05 5.21e-05 2.21e-05 
52 1 1.56258e-06 6.87255e-05 5.10007e-05 2.24877e-05 
5 1 1.60939e-06 5.4e-05 8.08e-05 3.33e-05 
1 1 1.63015e-06 6.37e-05 6.65e-05 3.54e-05 
37 1 1.47441e-06 6.5e-05 5.7e-05 3.81e-05 
47 1 1.76513e-06 7.93e-05 6.08e-05 4.25e-05 
ITEM: TIMESTEP
800
ITEM: NUMBER OF ATOMS
52
ITEM: BOX BOUNDS ff ff ff
0.0000000000000000e+00 1.0000000000000000e-04
0.0000000000000000e+00 1.0000000000000000e-04
0.0000000000000000e+00 5.0000000000000002e-05
ITEM: ATOMS id type diameter x y z 
14 1 1.51366e-06 1.32e-05 3.72e-05 3.74e-06 
41 1 1.70157e-06 2.22e-05 4.19e-05 8.77e-06 
39 1 1.92079e-06 1.76e-05 2.71e-05 1.07e-05 
16 1 1.70157e-06 4.42e-05 2.94e-05 1.07e-05 
8 1 1.56586e-06 9.16e-06 5.77e-06 1.4e-05 
44 1 1.70157e-06 4.92e-05 4.83e-05 1.85e-05 
10 1 1.60224e-06 4.8274e-05 2.12986e-05 3.52131e-05 
2 1 1.84771e-06 4.31e-05 5.41e-06 3.96e-05 
13 1 1.79552e-06 3.95e-05 3.1e-05 4.67e-05 
21 1 1.67025e-06 4.22e-05 3.1e-05 4.82e-05 
51 1 1.57922e-06 4.89213e-05 2.22942e-05 3.41943e-05 
27 1 1.53454e-06 4.28e-05 8.85e-05 1.47e-06 
9 1 1.9521e-06 1.38e-05 8.45e-05 7.17e-06 
38 1 1.69113e-06 4.94e-05 7.1e-05 9.23e-06 
29 1 1.7642e-06 4.26e-06 8.7e-05 1.62e-05 
34 1 1.82683e-06 4.86e-05 5.17e-05 2.05e-05 
22 1 1.79552e-06 3.26e-05 5.4e-05 2.39e-05 
40 1 1.67025e-06 2.12e-05 9.51e-05 2.42e-05 
17 1 1.94166e-06 3.48e-05 8.4e-05 2.53e-05 
50 1 1.47191e-06 2.14e-05 8.13e-05 2.73e-05 
28 1 1.84771e-06 4.13e-05 8.78e-05 2.79e-05 
36 1 1.47191e-06 4.14e-05 6.34e-05 2.87e-05 
30 1 1.94166e-06 4.1e-06 8.46e-05 3.04e-05 
24 1 1.59718e-06 4.69e-05 7.74e-05 3.38e-05 
7 1 1.72244e-06 2.25e-05 7.44e-05 3.53e-05 
49 1 1.77464e-06 4.07e-05 7.23e-05 3.81e-05 
45 1 1.69113e-06 2.68e-05 8.31e-05 4.38e-05 
12 1 1.60761e-06 5.85e-05 4.27e-05 5.43e-06 
43 1 1.89991e-06 6.28e-05 8.4e-06 6.95e-06 
6 1 1.86859e-06 8.08e-05 6.37e-06 1.39e-05 
31 1 1.5241e-06 7.1e-05 4.63e-05 1.6e-05 
42 1 1.79552e-06 8.1e-05 9.11e-06 2.05e-05 
4 1 1.55542e-06 5.41e-05 1.28e-05 3.25e-05 
25 1 1.5763e-06 7.88e-05 2.81e-05 3.39e-05 
35 1 1.68069e-06 5.59e-05 3.52e-05 3.41e-05 
23 1 1.8164e-06 8.51e-05 2.72e-05 3.6e-05 
33 1 1.82683e-06 8.01e-05 4.3e-05 4.13e-05 
3 1 1.77464e-06 8.56e-05 4.21e-05 4.46e-05 
48 1 1.88947e-06 7.54e-05 3.4e-05 4.74e-05 
18 1 1.45103e-06 7.68e-05 1.96e-05 4.8e-05 
20 1 1.5939e-06 6.80698e-05 4.99921e-05 2.35197e-05 
19 1 1.64937e-06 7.61e-05 6.42e-05 6.54e-06 
32 1 1.50322e-06 5.86e-05 9.73e-05 1.03e-05 
46 1 1.67025e-06 8.09e-05 5.17e-05 1.23e-05 
15 1 1.54498e-06 6.45e-05 7.2e-05 1.68e-05 
26 1 1.5763e-06 8.43e-05 9.58e-05 1.92e-05 
11 1 1.63893e-06 5.27e-05 5.21e-05 2.21e-05 
52 1 1.57099e-06 6.87255e-05 5.10007e-05 2.24877e-05 
5 1 1.61805e-06 5.4e-05 8.08e-05 3.33e-05 
1 1 1.63893e-06 6.37e-05 6.65e-05 3.54e-05 
37 1 1.48235e-06 6.5e-05 5.7e-05 3.81e-05 
47 1 1.77464e-06 7.93e-05 6.08e-05 4.25e-05 
ITEM: TIMESTEP
900
ITEM: NUMBER OF ATOMS
52
ITEM: BOX BOUNDS ff ff ff
0.0000000000000000e+00 1.0000000000000000e-04
0.0000000000000000e+00 1.0000000000000000e-04
0.0000000000000000e+00 5.0000000000000002e-05
ITEM: ATOMS id type diameter x y z 
14 1 1.52181e-06 1.32e-05 3.72e-05 3.74e-06 
41 1 1.71073e-06 2.22e-05 4.19e-05 8.77e-06 
39 1 1.93113e-06 1.76e-05 2.71e-05 1.07e-05 
16 1 1.71073e-06 4.42e-05 2.94e-05 1.07e-05 
8 1 1.57429e-06 9.16e-06 5.77e-06 1.4e-05 
44 1 1.71073e-06 4.92e-05 4.83e-05 1.85e-05 
10 1 1.61087e-06 4.82657e-05 2.12859e-05 3.52261e-05 
2 1 1.85766e-06 4.31e-05 5.41e-06 3.96e-05 
13 1 1.80519e-06 3.95e-05 3.1e-05 4.67e-05 
21 1 1.67924e-06 4.22e-05 3.1e-05 4.82e-05 
51 1 1.58772e-06 4.89296e-05 2.23069e-05 3.41812e-05 
27 1 1.54281e-06 4.28e-05 8.85e-05 1.47e-06 
9 1 1.96262e-06 1.38e-05 8.45e-05 7.17e-06 
38 1 1.70023e-06 4.94e-05 7.1e-05 9.23e-06 
29 1 1.7737e-06 4.26e-06 8.7e-05 1.62e-05 
34 1 1.83667e-06 4.86e-05 5.17e-05 2.05e-05 
22 1 1.80519e-06 3.26e-05 5.4e-05 2.39e-05 
40 1 1.67924e-06 2.12e-05 9.51e-05 2.42e-05 
17 1 1.95212e-06 3.48e-05 8.4e-05 2.53e-05 
50 1 1.47983e-06 2.14e-05 8.13e-05 2.73e-05 
28 1 1.85766e-06 4.13e-05 8.78e-05 2.79e-05 
36 1 1.47983e-06 4.14e-05 6.34e-05 2.87e-05 
30 1 1.95212e-06 4.1e-06 8.46e-05 3.04e-05 
24 1 1.60578e-06 4.69e-05 7.74e-05 3.38e-05 
7 1 1.73172e-06 2.25e-05 7.44e-05 3.53e-05 
49 1 1.7842e-06 4.07e-05 7.23e-05 3.81e-05 
45 1 1.70023e-06 2.68e-05 8.31e-05 4.38e-05 
12 1 1.61627e-06 5.85e-05 4.27e-05 5.43e-06 
43 1 1.91014e-06 6.28e-05 8.4e-06 6.95e-06 
6 1 1.87865e-06 8.08e-05 6.37e-06 1.39e-05 
31 1 1.53231e-06 7.1e-05 4.63e-05 1.6e-05 
42 1 1.80519e-06 8.1e-05 9.11e-06 2.05e-05 
4 1 1.5638e-06 5.41e-05 1.28e-05 3.25e-05 
25 1 1.58479e-06 7.88e-05 2.81e-05 3.39e-05 
35 1 1.68974e-06 5.59e-05 3.52e-05 3.41e-05 
23 1 1.82618e-06 8.51e-05 2.72e-05 3.6e-05 
33 1 1.83667e-06 8.01e-05 4.3e-05 4.13e-05 
3 1 1.7842e-06 8.56e-05 4.21e-05 4.46e-05 
48 1 1.89964e-06 7.54e-05 3.4e-05 4.74e-05 
18 1 1.45884e-06 7.68e-05 1.96e-05 4.8e-05 
20 1 1.60248e-06 6.80698e-05 4.99921e-05 2.35197e-05 
19 1 1.65825e-06 7.61e-05 6.42e-05 6.54e-06 
32 1 1.51132e-06 5.86e-05 9.73e-05 1.03e-05 
46 1 1.67924e-06 8.09e-05 5.17e-05 1.23e-05 
15 1 1.5533e-06 6.45e-05 7.2e-05 1.68e-05 
26 1 1.58479e-06 8.43e-05 9.58e-05 1.92e-05 
11 1 1.64776e-06 5.27e-05 5.21e-05 2.21e-05 
52 1 1.57945e-06 6.87255e-05 5.10007e-05 2.24877e-05 
5 1 1.62677e-06 5.4e-05 8.08e-05 3.33e-05 
1 1 1.64776e-06 6.37e-05 6.65e-05 3.54e-05 
37 1 1.49033e-06 6.5e-05 5.7e-05 3.81e-05 
47 1 1.7842e-06 7.93e-05 6.08e-05 4.25e-05 
ITEM: TIMESTEP
1000
ITEM: NUMBER OF ATOMS
53
ITEM: BOX BOUNDS ff ff ff
0.0000000000000000e+00 1.0000000000000000e-04
0.0000000000000000e+00 1.0000000000000000e-04
0.0000000000000000e+00 5.0000000000000002e-05
ITEM: ATOMS id type diameter x y z 
14 1 1.53001e-06 1.32e-05 3.72e-05 3.74e-06 
41 1 1.71994e-06 2.22e-05 4.19e-05 8.77e-06 
39 1 1.94153e-06 1.76e-05 2.71e-05 1.07e-05 
16 1 1.71994e-06 4.42e-05 2.94e-05 1.07e-05 
8 1 1.58277e-06 9.16e-06 5.77e-06 1.4e-05 
44 1 1.71994e-06 4.92e-05 4.83e-05 1.85e-05 
51 1 1.59627e-06 4.89296e-05 2.23069e-05 3.41812e-05 
10 1 1.61955e-06 4.82657e-05 2.12859e-05 3.52261e-05 
2 1 1.86767e-06 4.31e-05 5.41e-06 3.96e-05 
13 1 1.81491e-06 3.95e-05 3.1e-05 4.67e-05 
21 1 1.68829e-06 4.22e-05 3.1e-05 4.82e-05 
27 1 1.55111e-06 4.28e-05 8.85e-05 1.47e-06 
53 1 1.5547e-06 1.41214e-05 8.49944e-05 6.66403e-06 
9 1 1.57737e-06 1.34739e-05 8.39983e-05 7.68334e-06 
38 1 1.70939e-06 4.94e-05 7.1e-05 9.23e-06 
29 1 1.78325e-06 4.26e-06 8.7e-05 1.62e-05 
34 1 1.84656e-06 4.86e-05 5.17e-05 2.05e-05 
22 1 1.81491e-06 3.26e-05 5.4e-05 2.39e-05 
40 1 1.68829e-06 2.12e-05 9.51e-05 2.42e-05 
17 1 1.96263e-06 3.48e-05 8.4e-05 2.53e-05 
50 1 1.4878e-06 2.14e-05 8.13e-05 2.73e-05 
28 1 1.86767e-06 4.13e-05 8.78e-05 2.79e-05 
36 1 1.4878e-06 4.14e-05 6.34e-05 2.87e-05 
30 1 1.96263e-06 4.1e-06 8.46e-05 3.04e-05 
24 1 1.61443e-06 4.69e-05 7.74e-05 3.38e-05 
7 1 1.74105e-06 2.25e-05 7.44e-05 3.53e-05 
49 1 1.79381e-06 4.07e-05 7.23e-05 3.81e-05 
45 1 1.70939e-06 2.68e-05 8.31e-05 4.38e-05 
12 1 1.62498e-06 5.85e-05 4.27e-05 5.43e-06 
43 1 1.92043e-06 6.28e-05 8.4e-06 6.95e-06 
6 1 1.88877e-06 8.08e-05 6.37e-06 1.39e-05 
31 1 1.54056e-06 7.1e-05 4.63e-05 1.6e-05 
42 1 1.81491e-06 8.1e-05 9.11e-06 2.05e-05 
20 1 1.61111e-06 6.80698e-05 4.99921e-05 2.35197e-05 
4 1 1.57222e-06 5.41e-05 1.28e-05 3.25e-05 
25 1 1.59332e-06 7.88e-05 2.81e-05 3.39e-05 
35 1 1.69884e-06 5.59e-05 3.52e-05 3.41e-05 
23 1 1.83601e-06 8.51e-05 2.72e-05 3.6e-05 
33 1 1.84656e-06 8.01e-05 4.3e-05 4.13e-05 
3 1 1.79381e-06 8.56e-05 4.21e-05 4.46e-05 
48 1 1.90988e-06 7.54e-05 3.4e-05 4.74e-05 
18 1 1.4667e-06 7.68e-05 1.96e-05 4.8e-05 
19 1 1.66718e-06 7.61e-05 6.42e-05 6.54e-06 
32 1 1.51946e-06 5.86e-05 9.73e-05 1.03e-05 
46 1 1.68829e-06 8.09e-05 5.17e-05 1.23e-05 
15 1 1.56167e-06 6.45e-05 7.2e-05 1.68e-05 
26 1 1.59332e-06 8.43e-05 9.58e-05 1.92e-05 
52 1 1.58796e-06 6.87255e-05 5.10007e-05 2.24877e-05 
11 1 1.65663e-06 5.27e-05 5.21e-05 2.21e-05 
5 1 1.63553e-06 5.4e-05 8.08e-05 3.33e-05 
1 1 1.65663e-06 6.37e-05 6.65e-05 3.54e-05 
37 1 1.49836e-06 6.5e-05 5.7e-05 3.81e-05 
47 1 1.79381e-06 7.93e-05 6.08e-05 4.25e-05 
ITEM: TIMESTEP
1100
ITEM: NUMBER OF ATOMS
55
ITEM: BOX BOUNDS ff ff ff
0.0000000000000000e+00 1.0000000000000000e-04
0.0000000000000000e+00 1.0000000000000000e-04
0.0000000000000000e+00 5.0000000000000002e-05
ITEM: ATOMS id type diameter x y z 
14 1 1.53825e-06 1.32e-05 3.72e-05 3.74e-06 
41 1 1.72921e-06 2.22e-05 4.19e-05 8.77e-06 
39 1 1.95199e-06 1.76e-05 2.71e-05 1.07e-05 
16 1 1.72921e-06 4.42e-05 2.94e-05 1.07e-05 
8 1 1.59129e-06 9.16e-06 5.77e-06 1.4e-05 
44 1 1.72921e-06 4.92e-05 4.83e-05 1.85e-05 
51 1 1.60487e-06 4.89296e-05 2.23069e-05 3.41812e-05 
10 1 1.62827e-06 4.82657e-05 2.12859e-05 3.52261e-05 
2 1 1.87773e-06 4.31e-05 5.41e-06 3.96e-05 
13 1 1.82468e-06 3.95e-05 3.1e-05 4.67e-05 
21 1 1.69738e-06 4.22e-05 3.1e-05 4.82e-05 
27 1 1.55947e-06 4.28e-05 8.85e-05 1.47e-06 
53 1 1.56308e-06 1.41214e-05 8.49944e-05 6.66403e-06 
9 1 1.58587e-06 1.34739e-05 8.39983e-05 7.68334e-06 
38 1 1.7186e-06 4.94e-05 7.1e-05 9.23e-06 
29 1 1.79286e-06 4.26e-06 8.7e-05 1.62e-05 
34 1 1.85651e-06 4.86e-05 5.17e-05 2.05e-05 
22 1 1.82468e-06 3.26e-05 5.4e-05 2.39e-05 
40 1 1.69738e-06 2.12e-05 9.51e-05 2.42e-05 
17 1 1.57739e-06 3.44739e-05 8.34983e-05 2.58133e-05 
50 1 1.49582e-06 2.14e-05 8.13e-05 2.73e-05 
28 1 1.87773e-06 4.13e-05 8.78e-05 2.79e-05 
36 1 1.49582e-06 4.14e-05 6.34e-05 2.87e-05 
30 1 1.46258e-06 4.82604e-06 8.45195e-05 3.04274e-05 
24 1 1.62312e-06 4.69e-05 7.74e-05 3.38e-05 
7 1 1.75042e-06 2.25e-05 7.44e-05 3.53e-05 
49 1 1.80347e-06 4.07e-05 7.23e-05 3.81e-05 
45 1 1.7186e-06 2.68e-05 8.31e-05 4.38e-05 
54 1 1.55472e-06 3.51215e-05 8.44945e-05 2.4794e-05 
55 1 1.65755e-06 3.27717e-06 8.46913e-05 3.0369e-05 
12 1 1.63373e-06 5.85e-05 4.27e-05 5.43e-06 
43 1 1.93077e-06 6.28e-05 8.4e-06 6.95e-06 
6 1 1.89894e-06 8.08e-05 6.37e-06 1.39e-05 
31 1 1.54886e-06 7.1e-05 4.63e-05 1.6e-05 
42 1 1.82468e-06 8.1e-05 9.11e-06 2.05e-05 
20 1 1.61979e-06 6.80698e-05 4.99921e-05 2.35197e-05 
4 1 1.58069e-06 5.41e-05 1.28e-05 3.25e-05 
25 1 1.6019e-06 7.88e-05 2.81e-05 3.39e-05 
35 1 1.70799e-06 5.59e-05 3.52e-05 3.41e-05 
23 1 1.8459e-06 8.51e-05 2.72e-05 3.6e-05 
33 1 1.85651e-06 8.01e-05 4.3e-05 4.13e-05 
3 1 1.80347e-06 8.56e-05 4.21e-05 4.46e-05 
48 1 1.92016e-06 7.54e-05 3.4e-05 4.74e-05 
18 1 1.4746e-06 7.68e-05 1.96e-05 4.8e-05 
19 1 1.67616e-06 7.61e-05 6.42e-05 6.54e-06 