 NUFEB Simulation

     100 atoms 
     2 atom types 
     4 nutrients 

  0.0e-4   1.00e-04  xlo xhi 
  0.0e-4   1.00e-04  ylo yhi 
  0.0e-4   1.00e-05  zlo zhi 

 Atoms 

     1 1 1.40e-06  370 3.15e-05 1.96e-05 6.48e-06 1.40e-06 
     2 1 1.70e-06  370 3.22e-05 8.16e-05 3.43e-06 1.70e-06 
     3 1 1.86e-06  370 6.50e-05 3.22e-05 5.90e-06 1.86e-06 
     4 1 1.47e-06  370 4.31e-05 7.36e-05 3.87e-06 1.47e-06 
     5 1 1.70e-06  370 5.47e-05 1.06e-05 7.47e-06 1.70e-06 
     6 1 1.49e-06  370 2.67e-05 6.41e-05 3.04e-06 1.49e-06 
     7 1 1.70e-06  370 8.80e-05 7.09e-05 5.20e-06 1.70e-06 
     8 1 1.47e-06  370 2.77e-05 8.99e-05 4.24e-06 1.47e-06 
     9 1 1.74e-06  370 5.42e-05 9.46e-05 7.24e-06 1.74e-06 
     10 1 1.47e-06  370 2.00e-05 3.46e-05 4.88e-06 1.47e-06 
     11 1 1.69e-06  370 5.81e-05 7.45e-05 1.69e-06 1.69e-06 
     12 1 1.66e-06  370 5.91e-05 8.52e-05 4.24e-06 1.66e-06 
     13 1 1.88e-06  370 6.61e-05 3.50e-05 5.24e-06 1.88e-06 
     14 1 1.51e-06  370 8.30e-06 9.75e-05 4.54e-06 1.51e-06 
     15 1 1.56e-06  370 8.32e-05 9.43e-05 2.37e-06 1.56e-06 
     16 1 1.84e-06  370 2.49e-05 8.57e-05 7.53e-06 1.84e-06 
     17 1 1.78e-06  370 8.71e-05 9.06e-05 6.52e-06 1.78e-06 
     18 1 1.42e-06  370 3.54e-05 3.27e-05 7.31e-06 1.42e-06 
     19 1 1.72e-06  370 5.66e-05 6.89e-05 6.12e-06 1.72e-06 
     20 1 1.40e-06  370 5.89e-05 5.09e-05 5.85e-06 1.40e-06 
     21 1 1.63e-06  370 9.04e-05 2.08e-05 7.35e-06 1.63e-06 
     22 1 1.63e-06  370 1.24e-05 2.73e-05 6.76e-06 1.63e-06 
     23 1 1.70e-06  370 7.82e-05 2.38e-05 1.73e-06 1.70e-06 
     24 1 1.51e-06  370 7.63e-05 8.69e-05 4.49e-06 1.51e-06 
     25 1 1.82e-06  370 9.23e-05 3.57e-05 6.56e-06 1.82e-06 
     26 1 1.68e-06  370 6.24e-05 9.67e-05 5.64e-06 1.68e-06 
     27 1 1.42e-06  370 9.37e-05 9.49e-05 6.94e-06 1.42e-06 
     28 1 1.78e-06  370 5.53e-06 8.79e-05 6.67e-06 1.78e-06 
     29 1 1.87e-06  370 5.24e-05 5.27e-05 6.48e-06 1.87e-06 
     30 1 1.64e-06  370 7.22e-05 2.36e-05 5.98e-06 1.64e-06 
     31 1 1.48e-06  370 4.56e-05 1.33e-05 3.58e-06 1.48e-06 
     32 1 1.46e-06  370 6.28e-05 7.92e-05 5.02e-06 1.46e-06 
     33 1 1.42e-06  370 2.12e-06 1.40e-05 4.35e-06 1.42e-06 
     34 1 1.75e-06  370 2.36e-06 7.50e-05 6.95e-06 1.75e-06 
     35 1 1.63e-06  370 2.39e-05 9.23e-05 2.50e-06 1.63e-06 
     36 1 1.56e-06  370 1.46e-05 6.44e-06 7.50e-06 1.56e-06 
     37 1 1.91e-06  370 2.95e-05 1.77e-05 7.76e-06 1.91e-06 
     38 1 1.71e-06  370 8.31e-05 6.23e-05 2.20e-06 1.71e-06 
     39 1 1.50e-06  370 8.54e-05 2.27e-05 5.27e-06 1.50e-06 
     40 1 1.64e-06  370 3.87e-05 3.98e-06 6.97e-06 1.64e-06 
     41 1 1.38e-06  370 3.09e-05 4.16e-05 3.28e-06 1.38e-06 
     42 1 1.77e-06  370 6.44e-05 3.15e-05 5.74e-06 1.77e-06 
     43 1 1.92e-06  370 4.07e-05 6.76e-05 5.36e-06 1.92e-06 
     44 1 1.52e-06  370 7.40e-05 8.69e-05 4.92e-06 1.52e-06 
     45 1 1.53e-06  370 7.90e-05 5.43e-05 2.02e-06 1.53e-06 
     46 1 1.54e-06  370 8.61e-05 4.77e-05 4.21e-06 1.54e-06 
     47 1 1.48e-06  370 5.88e-05 8.15e-05 1.67e-06 1.48e-06 
     48 1 1.70e-06  370 9.34e-05 8.46e-06 3.18e-06 1.70e-06 
     49 1 1.69e-06  370 7.91e-05 6.66e-05 3.15e-06 1.69e-06 
     50 1 1.72e-06  370 2.02e-05 2.22e-05 4.10e-06 1.72e-06 
     51 2 1.23e-06  230 2.91e-05 9.63e-05 3.14e-06 1.23e-06 
     52 2 1.12e-06  230 6.38e-06 9.82e-05 3.30e-06 1.12e-06 
     53 2 1.08e-06  230 3.36e-05 7.78e-05 3.91e-06 1.08e-06 
     54 2 1.16e-06  230 6.68e-05 1.81e-05 7.27e-06 1.16e-06 
     55 2 1.22e-06  230 7.22e-05 4.61e-05 1.92e-06 1.22e-06 
     56 2 1.08e-06  230 9.57e-05 4.68e-05 4.13e-06 1.08e-06 
     57 2 1.18e-06  230 2.31e-05 8.54e-05 7.06e-06 1.18e-06 
     58 2 1.27e-06  230 1.03e-05 3.66e-05 6.69e-06 1.27e-06 
     59 2 9.50e-07  230 6.04e-05 6.40e-05 2.21e-06 9.50e-07 
     60 2 9.38e-07  230 6.20e-05 3.20e-05 5.19e-06 9.38e-07 
     61 2 9.24e-07  230 7.49e-05 8.18e-05 3.33e-06 9.24e-07 
     62 2 9.94e-07  230 9.26e-05 3.79e-05 5.28e-06 9.94e-07 
     63 2 1.14e-06  230 4.48e-06 5.84e-05 4.06e-06 1.14e-06 
     64 2 1.37e-06  230 8.70e-05 5.74e-05 3.84e-06 1.37e-06 
     65 2 1.38e-06  230 2.47e-05 7.51e-05 7.33e-06 1.38e-06 
     66 2 8.81e-07  230 2.05e-05 1.53e-05 6.51e-06 8.81e-07 
     67 2 8.90e-07  230 8.52e-06 4.34e-05 5.27e-06 8.90e-07 
     68 2 1.35e-06  230 7.53e-05 8.56e-05 7.92e-06 1.35e-06 
     69 2 1.16e-06  230 9.21e-05 9.28e-05 1.23e-06 1.16e-06 
     70 2 1.25e-06  230 9.10e-05 7.90e-05 5.38e-06 1.25e-06 
     71 2 1.32e-06  230 3.52e-06 5.29e-05 3.77e-06 1.32e-06 
     72 2 9.17e-07  230 2.60e-05 8.48e-05 7.68e-06 9.17e-07 
     73 2 1.13e-06  230 8.61e-05 1.21e-05 2.07e-06 1.13e-06 
     74 2 1.21e-06  230 7.76e-05 3.07e-05 5.39e-06 1.21e-06 
     75 2 8.84e-07  230 9.02e-05 4.31e-05 7.17e-06 8.84e-07 
     76 2 1.06e-06  230 2.19e-05 2.10e-05 6.98e-06 1.06e-06 
     77 2 1.37e-06  230 3.05e-05 4.98e-05 5.59e-06 1.37e-06 
     78 2 1.21e-06  230 3.40e-05 4.11e-05 6.45e-06 1.21e-06 
     79 2 1.30e-06  230 9.61e-05 5.58e-05 7.85e-06 1.30e-06 
     80 2 1.10e-06  230 6.59e-05 2.16e-05 6.13e-06 1.10e-06 
     81 2 1.28e-06  230 8.62e-05 3.30e-05 4.24e-06 1.28e-06 
     82 2 1.29e-06  230 5.05e-05 1.13e-05 5.94e-06 1.29e-06 
     83 2 1.28e-06  230 6.59e-05 6.30e-05 1.85e-06 1.28e-06 
     84 2 1.06e-06  230 5.84e-05 1.08e-05 5.64e-06 1.06e-06 
     85 2 1.37e-06  230 2.64e-05 5.66e-05 8.60e-06 1.37e-06 
     86 2 8.84e-07  230 4.10e-05 2.79e-06 9.03e-06 8.84e-07 
     87 2 1.38e-06  230 4.66e-05 2.72e-05 4.26e-06 1.38e-06 
     88 2 1.19e-06  230 3.04e-05 1.23e-05 6.76e-06 1.19e-06 
     89 2 1.25e-06  230 8.07e-05 3.91e-05 6.82e-06 1.25e-06 
     90 2 9.35e-07  230 6.45e-05 2.35e-05 6.40e-06 9.35e-07 
     91 2 1.25e-06  230 3.33e-05 6.25e-05 2.88e-06 1.25e-06 
     92 2 1.32e-06  230 6.44e-05 5.10e-05 8.06e-06 1.32e-06 
     93 2 1.11e-06  230 7.70e-05 2.64e-05 3.79e-06 1.11e-06 
     94 2 1.28e-06  230 1.73e-05 4.54e-05 2.12e-06 1.28e-06 
     95 2 1.00e-06  230 6.45e-05 6.39e-05 3.22e-06 1.00e-06 
     96 2 1.10e-06  230 3.13e-05 4.32e-05 4.88e-06 1.10e-06 
     97 2 1.04e-06  230 6.73e-05 4.55e-05 8.00e-06 1.04e-06 
     98 2 9.14e-07  230 3.68e-06 7.19e-05 6.96e-06 9.14e-07 
     99 2 9.47e-07  230 3.98e-05 1.68e-05 5.41e-06 9.47e-07 
     100 2 1.26e-06  230 8.45e-05 2.11e-05 2.49e-06 1.26e-06 

 Nutrients 

     1 sub g nn nn nn 1.00e-01 1.00e-01 
     2 o2 l nn nn nd 9.00e-03 9.00e-03 
     3 suc l nn nn nn 3.42e-20 3.42e-20 
     4 co2 l nn nn nd 2.99e-02 2.99e-02 

 Type Name 

     1 cyano  
     2 ecw  

 Diffusion Coeffs 

     sub 0 
     o2 2.3e-09 
     suc 5.2e-10 
     co2 1.9e-09 

 Growth Rate 

     cyano 1.67e-05 
     ecw 1.1e-05 

 Ks 

     cyano 0.00035 0.0002 0.01 0.000138 
     ecw 0 0.001 3.6 0.05 

 Yield 

     cyano 0.55 
     ecw 0.43 

 Maintenance 

     cyano 0 
     ecw 9.5e-07 

 Decay 

     cyano 0 
     ecw 0 



