ITEM: TIMESTEP
0
ITEM: NUMBER OF ATOMS
50
ITEM: BOX BOUNDS ff ff ff
0.0000000000000000e+00 1.0000000000000000e-04
0.0000000000000000e+00 1.0000000000000000e-04
0.0000000000000000e+00 5.0000000000000002e-05
ITEM: ATOMS id type diameter x y z 
12 1 1.56e-06 2.58e-05 9.67e-06 6.97e-06 
14 1 1.46e-06 1.48e-05 4.7e-05 6.69e-06 
15 1 1.64e-06 3.77e-06 3.77e-05 1.54e-05 
2 1 1.37e-06 9.18e-06 6.13e-06 1.76e-05 
32 1 1.93e-06 3.82e-05 3.02e-05 1.83e-05 
35 1 1.75e-06 3.56e-06 2.06e-05 1.92e-05 
49 1 1.54e-06 3.83e-05 4.08e-05 2e-05 
8 1 1.61e-06 3.31e-05 3.62e-05 2.57e-05 
34 1 1.43e-06 2.82e-05 2.49e-05 2.69e-05 
41 1 1.83e-06 4.91e-05 1.67e-05 2.71e-05 
7 1 1.77e-06 4.89e-05 4.09e-05 3.17e-05 
31 1 1.43e-06 4.22e-05 1.4e-05 3.34e-05 
21 1 1.69e-06 2.55e-05 1.16e-05 3.59e-05 
18 1 1.58e-06 1.38e-05 3.22e-05 4.37e-05 
43 1 1.77e-06 1.61e-05 6.57e-06 4.44e-05 
3 1 1.88e-06 4.12e-05 4.4e-05 4.76e-05 
4 1 1.53e-06 3.74e-05 9.73e-05 2.32e-06 
38 1 1.9e-06 4.33e-05 9.47e-05 3.63e-06 
45 1 1.74e-06 2.18e-05 6.09e-05 1.6e-05 
42 1 1.81e-06 4.17e-05 5.11e-05 1.87e-05 
33 1 1.8e-06 4.44e-05 9.47e-05 2.15e-05 
5 1 1.68e-06 4.91e-05 6.34e-05 2.55e-05 
13 1 1.57e-06 1.29e-05 8.52e-05 2.67e-05 
16 1 1.87e-06 4.66e-05 6.78e-05 2.84e-05 
26 1 1.72e-06 3.18e-05 9.51e-05 3.31e-05 
25 1 1.91e-06 4.16e-05 9.19e-05 3.42e-05 
17 1 1.87e-06 2.85e-05 7.81e-05 3.81e-05 
29 1 1.48e-06 2.04e-05 7.59e-05 3.94e-05 
6 1 1.83e-06 2.43e-05 7.88e-05 4.77e-05 
22 1 1.59e-06 6.53e-05 4.78e-05 1.02e-05 
23 1 1.89e-06 8.64e-05 1.66e-05 1.14e-05 
37 1 1.82e-06 8.42e-05 4.06e-05 2.02e-05 
19 1 1.42e-06 5.89e-05 3.55e-06 3.29e-05 
27 1 1.56e-06 6.03e-05 4.77e-05 3.32e-05 
48 1 1.93e-06 7.22e-05 1.53e-05 4.34e-05 
28 1 1.74e-06 7.58e-05 4.8e-05 4.55e-05 
47 1 1.74e-06 6.9e-05 7.98e-05 3.38e-06 
40 1 1.76e-06 9.76e-05 5.52e-05 4.44e-06 
1 1 1.49e-06 7.37e-05 9.3e-05 8.7e-06 
20 1 1.5e-06 7.83e-05 5.27e-05 1.06e-05 
9 1 1.83e-06 5.22e-05 6.23e-05 1.1e-05 
30 1 1.68e-06 7.53e-05 5.7e-05 1.47e-05 
36 1 1.78e-06 5.13e-05 6.53e-05 1.75e-05 
10 1 1.8e-06 5.36e-05 9.23e-05 2.46e-05 
11 1 1.62e-06 7.42e-05 6.86e-05 2.71e-05 
50 1 1.6e-06 8.93e-05 6.15e-05 2.78e-05 
44 1 1.69e-06 9.53e-05 8.14e-05 3.33e-05 
39 1 1.41e-06 9.67e-05 8.75e-05 3.44e-05 
46 1 1.93e-06 5.87e-05 5.92e-05 3.67e-05 
24 1 1.66e-06 9.02e-05 9.3e-05 4.14e-05 
ITEM: TIMESTEP
100
ITEM: NUMBER OF ATOMS
50
ITEM: BOX BOUNDS ff ff ff
0.0000000000000000e+00 1.0000000000000000e-04
0.0000000000000000e+00 1.0000000000000000e-04
0.0000000000000000e+00 5.0000000000000002e-05
ITEM: ATOMS id type diameter x y z 
12 1 1.57007e-06 2.58e-05 9.67e-06 6.97e-06 
14 1 1.46943e-06 1.48e-05 4.7e-05 6.69e-06 
15 1 1.65059e-06 3.77e-06 3.77e-05 1.54e-05 
2 1 1.37884e-06 9.18e-06 6.13e-06 1.76e-05 
32 1 1.94246e-06 3.82e-05 3.02e-05 1.83e-05 
35 1 1.7613e-06 3.56e-06 2.06e-05 1.92e-05 
49 1 1.54994e-06 3.83e-05 4.08e-05 2e-05 
8 1 1.62039e-06 3.31e-05 3.62e-05 2.57e-05 
34 1 1.43923e-06 2.82e-05 2.49e-05 2.69e-05 
41 1 1.84181e-06 4.91e-05 1.67e-05 2.71e-05 
7 1 1.78143e-06 4.89e-05 4.09e-05 3.17e-05 
31 1 1.43923e-06 4.22e-05 1.4e-05 3.34e-05 
21 1 1.70091e-06 2.55e-05 1.16e-05 3.59e-05 
18 1 1.5902e-06 1.38e-05 3.22e-05 4.37e-05 
43 1 1.78143e-06 1.61e-05 6.57e-06 4.44e-05 
3 1 1.89214e-06 4.12e-05 4.4e-05 4.76e-05 
4 1 1.53988e-06 3.74e-05 9.73e-05 2.32e-06 
38 1 1.91227e-06 4.33e-05 9.47e-05 3.63e-06 
45 1 1.75123e-06 2.18e-05 6.09e-05 1.6e-05 
42 1 1.82168e-06 4.17e-05 5.11e-05 1.87e-05 
33 1 1.81162e-06 4.44e-05 9.47e-05 2.15e-05 
5 1 1.69085e-06 4.91e-05 6.34e-05 2.55e-05 
13 1 1.58014e-06 1.29e-05 8.52e-05 2.67e-05 
16 1 1.88207e-06 4.66e-05 6.78e-05 2.84e-05 
26 1 1.7311e-06 3.18e-05 9.51e-05 3.31e-05 
25 1 1.92233e-06 4.16e-05 9.19e-05 3.42e-05 
17 1 1.88207e-06 2.85e-05 7.81e-05 3.81e-05 
29 1 1.48955e-06 2.04e-05 7.59e-05 3.94e-05 
6 1 1.84181e-06 2.43e-05 7.88e-05 4.77e-05 
22 1 1.60026e-06 6.53e-05 4.78e-05 1.02e-05 
23 1 1.9022e-06 8.64e-05 1.66e-05 1.14e-05 
37 1 1.83175e-06 8.42e-05 4.06e-05 2.02e-05 
19 1 1.42917e-06 5.89e-05 3.55e-06 3.29e-05 
27 1 1.57007e-06 6.03e-05 4.77e-05 3.32e-05 
48 1 1.94246e-06 7.22e-05 1.53e-05 4.34e-05 
28 1 1.75123e-06 7.58e-05 4.8e-05 4.55e-05 
47 1 1.75123e-06 6.9e-05 7.98e-05 3.38e-06 
40 1 1.77136e-06 9.76e-05 5.52e-05 4.44e-06 
1 1 1.49962e-06 7.37e-05 9.3e-05 8.7e-06 
20 1 1.50968e-06 7.83e-05 5.27e-05 1.06e-05 
9 1 1.84181e-06 5.22e-05 6.23e-05 1.1e-05 
30 1 1.69085e-06 7.53e-05 5.7e-05 1.47e-05 
36 1 1.79149e-06 5.13e-05 6.53e-05 1.75e-05 
10 1 1.81162e-06 5.36e-05 9.23e-05 2.46e-05 
11 1 1.63046e-06 7.42e-05 6.86e-05 2.71e-05 
50 1 1.61033e-06 8.93e-05 6.15e-05 2.78e-05 
44 1 1.70091e-06 9.53e-05 8.14e-05 3.33e-05 
39 1 1.4191e-06 9.67e-05 8.75e-05 3.44e-05 
46 1 1.94246e-06 5.87e-05 5.92e-05 3.67e-05 
24 1 1.67072e-06 9.02e-05 9.3e-05 4.14e-05 
ITEM: TIMESTEP
200
ITEM: NUMBER OF ATOMS
50
ITEM: BOX BOUNDS ff ff ff
0.0000000000000000e+00 1.0000000000000000e-04
0.0000000000000000e+00 1.0000000000000000e-04
0.0000000000000000e+00 5.0000000000000002e-05
ITEM: ATOMS id type diameter x y z 
12 1 1.58021e-06 2.58e-05 9.67e-06 6.97e-06 
14 1 1.47891e-06 1.48e-05 4.7e-05 6.69e-06 
15 1 1.66124e-06 3.77e-06 3.77e-05 1.54e-05 
2 1 1.38775e-06 9.18e-06 6.13e-06 1.76e-05 
32 1 1.955e-06 3.82e-05 3.02e-05 1.83e-05 
35 1 1.77267e-06 3.56e-06 2.06e-05 1.92e-05 
49 1 1.55995e-06 3.83e-05 4.08e-05 2e-05 
8 1 1.63085e-06 3.31e-05 3.62e-05 2.57e-05 
34 1 1.44852e-06 2.82e-05 2.49e-05 2.69e-05 
41 1 1.8537e-06 4.91e-05 1.67e-05 2.71e-05 
7 1 1.79293e-06 4.89e-05 4.09e-05 3.17e-05 
31 1 1.44852e-06 4.22e-05 1.4e-05 3.34e-05 
21 1 1.71189e-06 2.55e-05 1.16e-05 3.59e-05 
18 1 1.60047e-06 1.38e-05 3.22e-05 4.37e-05 
43 1 1.79293e-06 1.61e-05 6.57e-06 4.44e-05 
3 1 1.90435e-06 4.12e-05 4.4e-05 4.76e-05 
4 1 1.54982e-06 3.74e-05 9.73e-05 2.32e-06 
38 1 1.92461e-06 4.33e-05 9.47e-05 3.63e-06 
45 1 1.76254e-06 2.18e-05 6.09e-05 1.6e-05 
42 1 1.83345e-06 4.17e-05 5.11e-05 1.87e-05 
33 1 1.82332e-06 4.44e-05 9.47e-05 2.15e-05 
5 1 1.70176e-06 4.91e-05 6.34e-05 2.55e-05 
13 1 1.59034e-06 1.29e-05 8.52e-05 2.67e-05 
16 1 1.89422e-06 4.66e-05 6.78e-05 2.84e-05 
26 1 1.74228e-06 3.18e-05 9.51e-05 3.31e-05 
25 1 1.93474e-06 4.16e-05 9.19e-05 3.42e-05 
17 1 1.89422e-06 2.85e-05 7.81e-05 3.81e-05 
29 1 1.49917e-06 2.04e-05 7.59e-05 3.94e-05 
6 1 1.8537e-06 2.43e-05 7.88e-05 4.77e-05 
22 1 1.6106e-06 6.53e-05 4.78e-05 1.02e-05 
23 1 1.91448e-06 8.64e-05 1.66e-05 1.14e-05 
37 1 1.84357e-06 8.42e-05 4.06e-05 2.02e-05 
19 1 1.43839e-06 5.89e-05 3.55e-06 3.29e-05 
27 1 1.58021e-06 6.03e-05 4.77e-05 3.32e-05 
48 1 1.955e-06 7.22e-05 1.53e-05 4.34e-05 
28 1 1.76254e-06 7.58e-05 4.8e-05 4.55e-05 
47 1 1.76254e-06 6.9e-05 7.98e-05 3.38e-06 
40 1 1.7828e-06 9.76e-05 5.52e-05 4.44e-06 
1 1 1.5093e-06 7.37e-05 9.3e-05 8.7e-06 
20 1 1.51943e-06 7.83e-05 5.27e-05 1.06e-05 
9 1 1.8537e-06 5.22e-05 6.23e-05 1.1e-05 
30 1 1.70176e-06 7.53e-05 5.7e-05 1.47e-05 
36 1 1.80306e-06 5.13e-05 6.53e-05 1.75e-05 
10 1 1.82332e-06 5.36e-05 9.23e-05 2.46e-05 
11 1 1.64098e-06 7.42e-05 6.86e-05 2.71e-05 
50 1 1.62073e-06 8.93e-05 6.15e-05 2.78e-05 
44 1 1.71189e-06 9.53e-05 8.14e-05 3.33e-05 
39 1 1.42826e-06 9.67e-05 8.75e-05 3.44e-05 
46 1 1.955e-06 5.87e-05 5.92e-05 3.67e-05 
24 1 1.6815e-06 9.02e-05 9.3e-05 4.14e-05 
ITEM: TIMESTEP
300
ITEM: NUMBER OF ATOMS
50
ITEM: BOX BOUNDS ff ff ff
0.0000000000000000e+00 1.0000000000000000e-04
0.0000000000000000e+00 1.0000000000000000e-04
0.0000000000000000e+00 5.0000000000000002e-05
ITEM: ATOMS id type diameter x y z 
12 1 1.59041e-06 2.58e-05 9.67e-06 6.97e-06 
14 1 1.48846e-06 1.48e-05 4.7e-05 6.69e-06 
15 1 1.67197e-06 3.77e-06 3.77e-05 1.54e-05 
2 1 1.3967e-06 9.18e-06 6.13e-06 1.76e-05 
32 1 1.96762e-06 3.82e-05 3.02e-05 1.83e-05 
35 1 1.78411e-06 3.56e-06 2.06e-05 1.92e-05 
49 1 1.57002e-06 3.83e-05 4.08e-05 2e-05 
8 1 1.64138e-06 3.31e-05 3.62e-05 2.57e-05 
34 1 1.45787e-06 2.82e-05 2.49e-05 2.69e-05 
41 1 1.86567e-06 4.91e-05 1.67e-05 2.71e-05 
7 1 1.8045e-06 4.89e-05 4.09e-05 3.17e-05 
31 1 1.45787e-06 4.22e-05 1.4e-05 3.34e-05 
21 1 1.72294e-06 2.55e-05 1.16e-05 3.59e-05 
18 1 1.6108e-06 1.38e-05 3.22e-05 4.37e-05 
43 1 1.8045e-06 1.61e-05 6.57e-06 4.44e-05 
3 1 1.91665e-06 4.12e-05 4.4e-05 4.76e-05 
4 1 1.55982e-06 3.74e-05 9.73e-05 2.32e-06 
38 1 1.93704e-06 4.33e-05 9.47e-05 3.63e-06 
45 1 1.77392e-06 2.18e-05 6.09e-05 1.6e-05 
42 1 1.84528e-06 4.17e-05 5.11e-05 1.87e-05 
33 1 1.83509e-06 4.44e-05 9.47e-05 2.15e-05 
5 1 1.71275e-06 4.91e-05 6.34e-05 2.55e-05 
13 1 1.6006e-06 1.29e-05 8.52e-05 2.67e-05 
16 1 1.90645e-06 4.66e-05 6.78e-05 2.84e-05 
26 1 1.75353e-06 3.18e-05 9.51e-05 3.31e-05 
25 1 1.94723e-06 4.16e-05 9.19e-05 3.42e-05 
17 1 1.90645e-06 2.85e-05 7.81e-05 3.81e-05 
29 1 1.50885e-06 2.04e-05 7.59e-05 3.94e-05 
6 1 1.86567e-06 2.43e-05 7.88e-05 4.77e-05 
22 1 1.62099e-06 6.53e-05 4.78e-05 1.02e-05 
23 1 1.92684e-06 8.64e-05 1.66e-05 1.14e-05 
37 1 1.85548e-06 8.42e-05 4.06e-05 2.02e-05 
19 1 1.44768e-06 5.89e-05 3.55e-06 3.29e-05 
27 1 1.59041e-06 6.03e-05 4.77e-05 3.32e-05 
48 1 1.96762e-06 7.22e-05 1.53e-05 4.34e-05 
28 1 1.77392e-06 7.58e-05 4.8e-05 4.55e-05 
47 1 1.77392e-06 6.9e-05 7.98e-05 3.38e-06 
40 1 1.79431e-06 9.76e-05 5.52e-05 4.44e-06 
1 1 1.51904e-06 7.37e-05 9.3e-05 8.7e-06 
20 1 1.52924e-06 7.83e-05 5.27e-05 1.06e-05 
9 1 1.86567e-06 5.22e-05 6.23e-05 1.1e-05 
30 1 1.71275e-06 7.53e-05 5.7e-05 1.47e-05 
36 1 1.8147e-06 5.13e-05 6.53e-05 1.75e-05 
10 1 1.83509e-06 5.36e-05 9.23e-05 2.46e-05 
11 1 1.65158e-06 7.42e-05 6.86e-05 2.71e-05 
50 1 1.63119e-06 8.93e-05 6.15e-05 2.78e-05 
44 1 1.72294e-06 9.53e-05 8.14e-05 3.33e-05 
39 1 1.43748e-06 9.67e-05 8.75e-05 3.44e-05 
46 1 1.96762e-06 5.87e-05 5.92e-05 3.67e-05 
24 1 1.69236e-06 9.02e-05 9.3e-05 4.14e-05 
ITEM: TIMESTEP
400
ITEM: NUMBER OF ATOMS
53
ITEM: BOX BOUNDS ff ff ff
0.0000000000000000e+00 1.0000000000000000e-04
0.0000000000000000e+00 1.0000000000000000e-04
0.0000000000000000e+00 5.0000000000000002e-05
ITEM: ATOMS id type diameter x y z 
12 1 1.60068e-06 2.58e-05 9.67e-06 6.97e-06 
14 1 1.49807e-06 1.48e-05 4.7e-05 6.69e-06 
15 1 1.68276e-06 3.77e-06 3.77e-05 1.54e-05 
2 1 1.40572e-06 9.18e-06 6.13e-06 1.76e-05 
32 1 1.4672e-06 3.85395e-05 3.08204e-05 1.84911e-05 
35 1 1.79563e-06 3.56e-06 2.06e-05 1.92e-05 
51 1 1.66404e-06 3.7815e-05 2.94964e-05 1.80832e-05 
49 1 1.58015e-06 3.83e-05 4.08e-05 2e-05 
8 1 1.65198e-06 3.31e-05 3.62e-05 2.57e-05 
34 1 1.46729e-06 2.82e-05 2.49e-05 2.69e-05 
41 1 1.87772e-06 4.91e-05 1.67e-05 2.71e-05 
7 1 1.81615e-06 4.89e-05 4.09e-05 3.17e-05 
31 1 1.46729e-06 4.22e-05 1.4e-05 3.34e-05 
21 1 1.73407e-06 2.55e-05 1.16e-05 3.59e-05 
18 1 1.6212e-06 1.38e-05 3.22e-05 4.37e-05 
43 1 1.81615e-06 1.61e-05 6.57e-06 4.44e-05 
3 1 1.92902e-06 4.12e-05 4.4e-05 4.76e-05 
4 1 1.56989e-06 3.74e-05 9.73e-05 2.32e-06 
38 1 1.94954e-06 4.33e-05 9.47e-05 3.63e-06 
45 1 1.78537e-06 2.18e-05 6.09e-05 1.6e-05 
42 1 1.85719e-06 4.17e-05 5.11e-05 1.87e-05 
33 1 1.84693e-06 4.44e-05 9.47e-05 2.15e-05 
5 1 1.7238e-06 4.91e-05 6.34e-05 2.55e-05 
13 1 1.61094e-06 1.29e-05 8.52e-05 2.67e-05 
16 1 1.91876e-06 4.66e-05 6.78e-05 2.84e-05 
26 1 1.76485e-06 3.18e-05 9.51e-05 3.31e-05 
25 1 1.9598e-06 4.16e-05 9.19e-05 3.42e-05 
17 1 1.91876e-06 2.85e-05 7.81e-05 3.81e-05 
29 1 1.51859e-06 2.04e-05 7.59e-05 3.94e-05 
6 1 1.87772e-06 2.43e-05 7.88e-05 4.77e-05 
22 1 1.63146e-06 6.53e-05 4.78e-05 1.02e-05 
23 1 1.93928e-06 8.64e-05 1.66e-05 1.14e-05 
37 1 1.86746e-06 8.42e-05 4.06e-05 2.02e-05 
19 1 1.45703e-06 5.89e-05 3.55e-06 3.29e-05 
27 1 1.60068e-06 6.03e-05 4.77e-05 3.32e-05 
48 1 1.4672e-06 7.25395e-05 1.59204e-05 4.35911e-05 
28 1 1.78537e-06 7.58e-05 4.8e-05 4.55e-05 
52 1 1.66404e-06 7.1815e-05 1.45964e-05 4.31832e-05 
47 1 1.78537e-06 6.9e-05 7.98e-05 3.38e-06 
40 1 1.80589e-06 9.76e-05 5.52e-05 4.44e-06 
1 1 1.52885e-06 7.37e-05 9.3e-05 8.7e-06 
20 1 1.53911e-06 7.83e-05 5.27e-05 1.06e-05 
9 1 1.87772e-06 5.22e-05 6.23e-05 1.1e-05 
30 1 1.7238e-06 7.53e-05 5.7e-05 1.47e-05 
36 1 1.82641e-06 5.13e-05 6.53e-05 1.75e-05 
10 1 1.84693e-06 5.36e-05 9.23e-05 2.46e-05 
11 1 1.66224e-06 7.42e-05 6.86e-05 2.71e-05 
50 1 1.64172e-06 8.93e-05 6.15e-05 2.78e-05 
44 1 1.73407e-06 9.53e-05 8.14e-05 3.33e-05 
39 1 1.44676e-06 9.67e-05 8.75e-05 3.44e-05 
46 1 1.4672e-06 5.90395e-05 5.98204e-05 3.68911e-05 
24 1 1.70328e-06 9.02e-05 9.3e-05 4.14e-05 
53 1 1.66404e-06 5.8315e-05 5.84964e-05 3.64832e-05 
ITEM: TIMESTEP
500
ITEM: NUMBER OF ATOMS
53
ITEM: BOX BOUNDS ff ff ff
0.0000000000000000e+00 1.0000000000000000e-04
0.0000000000000000e+00 1.0000000000000000e-04
0.0000000000000000e+00 5.0000000000000002e-05
ITEM: ATOMS id type diameter x y z 
12 1 1.61101e-06 2.58e-05 9.67e-06 6.97e-06 
14 1 1.50774e-06 1.48e-05 4.7e-05 6.69e-06 
15 1 1.69363e-06 3.77e-06 3.77e-05 1.54e-05 
2 1 1.4148e-06 9.18e-06 6.13e-06 1.76e-05 
32 1 1.47668e-06 3.85395e-05 3.08204e-05 1.84911e-05 
35 1 1.80722e-06 3.56e-06 2.06e-05 1.92e-05 
51 1 1.67478e-06 3.7815e-05 2.94964e-05 1.80832e-05 
49 1 1.59036e-06 3.83e-05 4.08e-05 2e-05 
8 1 1.66264e-06 3.31e-05 3.62e-05 2.57e-05 
34 1 1.47676e-06 2.82e-05 2.49e-05 2.69e-05 
41 1 1.88984e-06 4.91e-05 1.67e-05 2.71e-05 
7 1 1.82788e-06 4.89e-05 4.09e-05 3.17e-05 
31 1 1.47676e-06 4.22e-05 1.4e-05 3.34e-05 
21 1 1.74526e-06 2.55e-05 1.16e-05 3.59e-05 
18 1 1.63166e-06 1.38e-05 3.22e-05 4.37e-05 
43 1 1.82788e-06 1.61e-05 6.57e-06 4.44e-05 
3 1 1.94147e-06 4.12e-05 4.4e-05 4.76e-05 
4 1 1.58003e-06 3.74e-05 9.73e-05 2.32e-06 
38 1 1.96213e-06 4.33e-05 9.47e-05 3.63e-06 
45 1 1.7969e-06 2.18e-05 6.09e-05 1.6e-05 
42 1 1.86918e-06 4.17e-05 5.11e-05 1.87e-05 
33 1 1.85886e-06 4.44e-05 9.47e-05 2.15e-05 
5 1 1.73493e-06 4.91e-05 6.34e-05 2.55e-05 
13 1 1.62134e-06 1.29e-05 8.52e-05 2.67e-05 
16 1 1.93115e-06 4.66e-05 6.78e-05 2.84e-05 
26 1 1.77624e-06 3.18e-05 9.51e-05 3.31e-05 
25 1 1.97245e-06 4.16e-05 9.19e-05 3.42e-05 
17 1 1.93115e-06 2.85e-05 7.81e-05 3.81e-05 
29 1 1.52839e-06 2.04e-05 7.59e-05 3.94e-05 
6 1 1.88984e-06 2.43e-05 7.88e-05 4.77e-05 
22 1 1.64199e-06 6.53e-05 4.78e-05 1.02e-05 
23 1 1.9518e-06 8.64e-05 1.66e-05 1.14e-05 
37 1 1.87951e-06 8.42e-05 4.06e-05 2.02e-05 
19 1 1.46643e-06 5.89e-05 3.55e-06 3.29e-05 
27 1 1.61101e-06 6.03e-05 4.77e-05 3.32e-05 
48 1 1.47668e-06 7.25395e-05 1.59204e-05 4.35911e-05 
28 1 1.7969e-06 7.58e-05 4.8e-05 4.55e-05 
52 1 1.67478e-06 7.1815e-05 1.45964e-05 4.31832e-05 
47 1 1.7969e-06 6.9e-05 7.98e-05 3.38e-06 
40 1 1.81755e-06 9.76e-05 5.52e-05 4.44e-06 
1 1 1.53872e-06 7.37e-05 9.3e-05 8.7e-06 
20 1 1.54905e-06 7.83e-05 5.27e-05 1.06e-05 
9 1 1.88984e-06 5.22e-05 6.23e-05 1.1e-05 
30 1 1.73493e-06 7.53e-05 5.7e-05 1.47e-05 
36 1 1.8382e-06 5.13e-05 6.53e-05 1.75e-05 
10 1 1.85886e-06 5.36e-05 9.23e-05 2.46e-05 
11 1 1.67297e-06 7.42e-05 6.86e-05 2.71e-05 
50 1 1.65232e-06 8.93e-05 6.15e-05 2.78e-05 
44 1 1.74526e-06 9.53e-05 8.14e-05 3.33e-05 
39 1 1.4561e-06 9.67e-05 8.75e-05 3.44e-05 
46 1 1.47668e-06 5.90395e-05 5.98204e-05 3.68911e-05 
24 1 1.71428e-06 9.02e-05 9.3e-05 4.14e-05 
53 1 1.67478e-06 5.8315e-05 5.84964e-05 3.64832e-05 
ITEM: TIMESTEP
600
ITEM: NUMBER OF ATOMS
55
ITEM: BOX BOUNDS ff ff ff
0.0000000000000000e+00 1.0000000000000000e-04
0.0000000000000000e+00 1.0000000000000000e-04
0.0000000000000000e+00 5.0000000000000002e-05
ITEM: ATOMS id type diameter x y z 
12 1 1.62141e-06 2.58e-05 9.67e-06 6.97e-06 
14 1 1.51747e-06 1.48e-05 4.7e-05 6.69e-06 
15 1 1.70456e-06 3.77e-06 3.77e-05 1.54e-05 
2 1 1.42393e-06 9.18e-06 6.13e-06 1.76e-05 
32 1 1.48621e-06 3.85395e-05 3.08204e-05 1.84911e-05 
35 1 1.81889e-06 3.56e-06 2.06e-05 1.92e-05 
51 1 1.68559e-06 3.7815e-05 2.94964e-05 1.80832e-05 
49 1 1.60062e-06 3.83e-05 4.08e-05 2e-05 
8 1 1.67338e-06 3.31e-05 3.62e-05 2.57e-05 
34 1 1.48629e-06 2.82e-05 2.49e-05 2.69e-05 
41 1 1.90204e-06 4.91e-05 1.67e-05 2.71e-05 
7 1 1.83968e-06 4.89e-05 4.09e-05 3.17e-05 
31 1 1.48629e-06 4.22e-05 1.4e-05 3.34e-05 
21 1 1.75653e-06 2.55e-05 1.16e-05 3.59e-05 
18 1 1.6422e-06 1.38e-05 3.22e-05 4.37e-05 
43 1 1.83968e-06 1.61e-05 6.57e-06 4.44e-05 
3 1 1.95401e-06 4.12e-05 4.4e-05 4.76e-05 
4 1 1.59023e-06 3.74e-05 9.73e-05 2.32e-06 
38 1 1.46311e-06 4.36385e-05 9.53186e-05 3.82059e-06 
45 1 1.8085e-06 2.18e-05 6.09e-05 1.6e-05 
42 1 1.88125e-06 4.17e-05 5.11e-05 1.87e-05 
54 1 1.65939e-06 4.29161e-05 9.39984e-05 3.41384e-06 
33 1 1.87086e-06 4.44e-05 9.47e-05 2.15e-05 
5 1 1.74613e-06 4.91e-05 6.34e-05 2.55e-05 
13 1 1.6318e-06 1.29e-05 8.52e-05 2.67e-05 
16 1 1.94361e-06 4.66e-05 6.78e-05 2.84e-05 
26 1 1.78771e-06 3.18e-05 9.51e-05 3.31e-05 
25 1 1.47081e-06 4.19403e-05 9.25219e-05 3.43916e-05 
17 1 1.94361e-06 2.85e-05 7.81e-05 3.81e-05 
29 1 1.53826e-06 2.04e-05 7.59e-05 3.94e-05 
6 1 1.90204e-06 2.43e-05 7.88e-05 4.77e-05 
55 1 1.66813e-06 4.1214e-05 9.11947e-05 3.39827e-05 
22 1 1.65259e-06 6.53e-05 4.78e-05 1.02e-05 
23 1 1.9644e-06 8.64e-05 1.66e-05 1.14e-05 
37 1 1.89164e-06 8.42e-05 4.06e-05 2.02e-05 
19 1 1.4759e-06 5.89e-05 3.55e-06 3.29e-05 
27 1 1.62141e-06 6.03e-05 4.77e-05 3.32e-05 
48 1 1.48621e-06 7.25395e-05 1.59204e-05 4.35911e-05 
28 1 1.8085e-06 7.58e-05 4.8e-05 4.55e-05 
52 1 1.68559e-06 7.1815e-05 1.45964e-05 4.31832e-05 
47 1 1.8085e-06 6.9e-05 7.98e-05 3.38e-06 
40 1 1.82928e-06 9.76e-05 5.52e-05 4.44e-06 
1 1 1.54865e-06 7.37e-05 9.3e-05 8.7e-06 
20 1 1.55905e-06 7.83e-05 5.27e-05 1.06e-05 
9 1 1.90204e-06 5.22e-05 6.23e-05 1.1e-05 
30 1 1.74613e-06 7.53e-05 5.7e-05 1.47e-05 
36 1 1.85007e-06 5.13e-05 6.53e-05 1.75e-05 
10 1 1.87086e-06 5.36e-05 9.23e-05 2.46e-05 
11 1 1.68377e-06 7.42e-05 6.86e-05 2.71e-05 
50 1 1.66298e-06 8.93e-05 6.15e-05 2.78e-05 
44 1 1.75653e-06 9.53e-05 8.14e-05 3.33e-05 
39 1 1.46551e-06 9.67e-05 8.75e-05 3.44e-05 
46 1 1.48621e-06 5.90395e-05 5.98204e-05 3.68911e-05 
24 1 1.72535e-06 9.02e-05 9.3e-05 4.14e-05 
53 1 1.68559e-06 5.8315e-05 5.84964e-05 3.64832e-05 
ITEM: TIMESTEP
700
ITEM: NUMBER OF ATOMS
56
ITEM: BOX BOUNDS ff ff ff
0.0000000000000000e+00 1.0000000000000000e-04
0.0000000000000000e+00 1.0000000000000000e-04
0.0000000000000000e+00 5.0000000000000002e-05
ITEM: ATOMS id type diameter x y z 
12 1 1.63188e-06 2.58e-05 9.67e-06 6.97e-06 
14 1 1.52727e-06 1.48e-05 4.7e-05 6.69e-06 
15 1 1.71556e-06 3.77e-06 3.77e-05 1.54e-05 
2 1 1.43312e-06 9.18e-06 6.13e-06 1.76e-05 
32 1 1.4958e-06 3.85487e-05 3.08373e-05 1.84963e-05 
35 1 1.83063e-06 3.56e-06 2.06e-05 1.92e-05 
51 1 1.69648e-06 3.78057e-05 2.94795e-05 1.8078e-05 
49 1 1.61096e-06 3.83e-05 4.08e-05 2e-05 
8 1 1.68418e-06 3.31e-05 3.62e-05 2.57e-05 
34 1 1.49589e-06 2.82e-05 2.49e-05 2.69e-05 
41 1 1.91432e-06 4.91e-05 1.67e-05 2.71e-05 
7 1 1.85155e-06 4.89e-05 4.09e-05 3.17e-05 
31 1 1.49589e-06 4.22e-05 1.4e-05 3.34e-05 
21 1 1.76787e-06 2.55e-05 1.16e-05 3.59e-05 
18 1 1.6528e-06 1.38e-05 3.22e-05 4.37e-05 
43 1 1.85155e-06 1.61e-05 6.57e-06 4.44e-05 
3 1 1.96662e-06 4.12e-05 4.4e-05 4.76e-05 
4 1 1.6005e-06 3.74e-05 9.73e-05 2.32e-06 
38 1 1.47255e-06 4.36385e-05 9.53186e-05 3.82059e-06 
45 1 1.82017e-06 2.18e-05 6.09e-05 1.6e-05 
42 1 1.8934e-06 4.17e-05 5.11e-05 1.87e-05 
54 1 1.67011e-06 4.29161e-05 9.39984e-05 3.41384e-06 
33 1 1.88294e-06 4.44e-05 9.47e-05 2.15e-05 
5 1 1.75741e-06 4.91e-05 6.34e-05 2.55e-05 
13 1 1.64234e-06 1.29e-05 8.52e-05 2.67e-05 
16 1 1.95616e-06 4.66e-05 6.78e-05 2.84e-05 
26 1 1.79925e-06 3.18e-05 9.51e-05 3.31e-05 
25 1 1.4803e-06 4.19403e-05 9.25219e-05 3.43916e-05 
17 1 1.95616e-06 2.85e-05 7.81e-05 3.81e-05 
29 1 1.54819e-06 2.04e-05 7.59e-05 3.94e-05 
6 1 1.91432e-06 2.43e-05 7.88e-05 4.77e-05 
55 1 1.6789e-06 4.1214e-05 9.11947e-05 3.39827e-05 
22 1 1.66326e-06 6.53e-05 4.78e-05 1.02e-05 
23 1 1.4648e-06 8.67389e-05 1.72193e-05 1.15908e-05 
56 1 1.66132e-06 8.60156e-05 1.58976e-05 1.11836e-05 
37 1 1.90386e-06 8.42e-05 4.06e-05 2.02e-05 
19 1 1.48543e-06 5.89e-05 3.55e-06 3.29e-05 
27 1 1.63188e-06 6.03e-05 4.77e-05 3.32e-05 
48 1 1.4958e-06 7.25487e-05 1.59373e-05 4.35963e-05 
28 1 1.82017e-06 7.58e-05 4.8e-05 4.55e-05 
52 1 1.69648e-06 7.18057e-05 1.45795e-05 4.3178e-05 
47 1 1.82017e-06 6.9e-05 7.98e-05 3.38e-06 
40 1 1.84109e-06 9.76e-05 5.52e-05 4.44e-06 
1 1 1.55865e-06 7.37e-05 9.3e-05 8.7e-06 
20 1 1.56911e-06 7.83e-05 5.27e-05 1.06e-05 
9 1 1.91432e-06 5.22e-05 6.23e-05 1.1e-05 
30 1 1.75741e-06 7.53e-05 5.7e-05 1.47e-05 
36 1 1.86201e-06 5.13e-05 6.53e-05 1.75e-05 
10 1 1.88294e-06 5.36e-05 9.23e-05 2.46e-05 
11 1 1.69464e-06 7.42e-05 6.86e-05 2.71e-05 
50 1 1.67372e-06 8.93e-05 6.15e-05 2.78e-05 
44 1 1.76787e-06 9.53e-05 8.14e-05 3.33e-05 
39 1 1.47497e-06 9.67e-05 8.75e-05 3.44e-05 
46 1 1.4958e-06 5.90487e-05 5.98373e-05 3.68963e-05 
24 1 1.73648e-06 9.02e-05 9.3e-05 4.14e-05 
53 1 1.69648e-06 5.83057e-05 5.84795e-05 3.6478e-05 
ITEM: TIMESTEP
800
ITEM: NUMBER OF ATOMS
57
ITEM: BOX BOUNDS ff ff ff
0.0000000000000000e+00 1.0000000000000000e-04
0.0000000000000000e+00 1.0000000000000000e-04
0.0000000000000000e+00 5.0000000000000002e-05
ITEM: ATOMS id type diameter x y z 
12 1 1.64241e-06 2.58e-05 9.67e-06 6.97e-06 
14 1 1.53713e-06 1.48e-05 4.7e-05 6.69e-06 
15 1 1.72664e-06 3.77e-06 3.77e-05 1.54e-05 
2 1 1.44238e-06 9.18e-06 6.13e-06 1.76e-05 
32 1 1.50546e-06 3.85487e-05 3.08373e-05 1.84963e-05 
35 1 1.84245e-06 3.56e-06 2.06e-05 1.92e-05 
51 1 1.70743e-06 3.78057e-05 2.94795e-05 1.8078e-05 
49 1 1.62136e-06 3.83e-05 4.08e-05 2e-05 
8 1 1.69505e-06 3.31e-05 3.62e-05 2.57e-05 
34 1 1.50554e-06 2.82e-05 2.49e-05 2.69e-05 
41 1 1.92668e-06 4.91e-05 1.67e-05 2.71e-05 
7 1 1.86351e-06 4.89e-05 4.09e-05 3.17e-05 
31 1 1.50554e-06 4.22e-05 1.4e-05 3.34e-05 
21 1 1.77928e-06 2.55e-05 1.16e-05 3.59e-05 
18 1 1.66347e-06 1.38e-05 3.22e-05 4.37e-05 
43 1 1.86351e-06 1.61e-05 6.57e-06 4.44e-05 
3 1 1.46646e-06 4.15393e-05 4.462e-05 4.7791e-05 
57 1 1.66319e-06 4.08152e-05 4.32968e-05 4.73833e-05 
4 1 1.61083e-06 3.74e-05 9.73e-05 2.32e-06 
38 1 1.48206e-06 4.36385e-05 9.53186e-05 3.82059e-06 
45 1 1.83192e-06 2.18e-05 6.09e-05 1.6e-05 
42 1 1.90562e-06 4.17e-05 5.11e-05 1.87e-05 
54 1 1.68089e-06 4.29161e-05 9.39984e-05 3.41384e-06 
33 1 1.89509e-06 4.44e-05 9.47e-05 2.15e-05 
5 1 1.76875e-06 4.91e-05 6.34e-05 2.55e-05 
13 1 1.65294e-06 1.29e-05 8.52e-05 2.67e-05 
16 1 1.96879e-06 4.66e-05 6.78e-05 2.84e-05 
26 1 1.81087e-06 3.18e-05 9.51e-05 3.31e-05 
25 1 1.48986e-06 4.19403e-05 9.25219e-05 3.43916e-05 
17 1 1.96879e-06 2.85e-05 7.81e-05 3.81e-05 
29 1 1.55819e-06 2.04e-05 7.59e-05 3.94e-05 
6 1 1.92668e-06 2.43e-05 7.88e-05 4.77e-05 
55 1 1.68973e-06 4.1214e-05 9.11947e-05 3.39827e-05 
22 1 1.674e-06 6.53e-05 4.78e-05 1.02e-05 
23 1 1.47426e-06 8.67389e-05 1.72193e-05 1.15908e-05 
56 1 1.67204e-06 8.60156e-05 1.58976e-05 1.11836e-05 
37 1 1.91615e-06 8.42e-05 4.06e-05 2.02e-05 
19 1 1.49502e-06 5.89e-05 3.55e-06 3.29e-05 
27 1 1.64241e-06 6.03e-05 4.77e-05 3.32e-05 
48 1 1.50546e-06 7.25487e-05 1.59373e-05 4.35963e-05 
28 1 1.83192e-06 7.58e-05 4.8e-05 4.55e-05 
52 1 1.70743e-06 7.18057e-05 1.45795e-05 4.3178e-05 
47 1 1.83192e-06 6.9e-05 7.98e-05 3.38e-06 
40 1 1.85298e-06 9.76e-05 5.52e-05 4.44e-06 
1 1 1.56871e-06 7.37e-05 9.3e-05 8.7e-06 
20 1 1.57924e-06 7.83e-05 5.27e-05 1.06e-05 
9 1 1.92668e-06 5.22e-05 6.23e-05 1.1e-05 
30 1 1.76875e-06 7.53e-05 5.7e-05 1.47e-05 
36 1 1.87403e-06 5.13e-05 6.53e-05 1.75e-05 
10 1 1.89509e-06 5.36e-05 9.23e-05 2.46e-05 
11 1 1.70558e-06 7.42e-05 6.86e-05 2.71e-05 
50 1 1.68453e-06 8.93e-05 6.15e-05 2.78e-05 
44 1 1.77928e-06 9.53e-05 8.14e-05 3.33e-05 
39 1 1.48449e-06 9.67e-05 8.75e-05 3.44e-05 
46 1 1.50546e-06 5.90487e-05 5.98373e-05 3.68963e-05 
24 1 1.7477e-06 9.02e-05 9.3e-05 4.14e-05 
53 1 1.70743e-06 5.83057e-05 5.84795e-05 3.6478e-05 
ITEM: TIMESTEP
900
ITEM: NUMBER OF ATOMS
59
ITEM: BOX BOUNDS ff ff ff
0.0000000000000000e+00 1.0000000000000000e-04
0.0000000000000000e+00 1.0000000000000000e-04
0.0000000000000000e+00 5.0000000000000002e-05
ITEM: ATOMS id type diameter x y z 
12 1 1.65302e-06 2.58e-05 9.67e-06 6.97e-06 
14 1 1.54705e-06 1.48e-05 4.7e-05 6.69e-06 
15 1 1.73779e-06 3.77e-06 3.77e-05 1.54e-05 
2 1 1.45169e-06 9.18e-06 6.13e-06 1.76e-05 
32 1 1.51518e-06 3.85487e-05 3.08373e-05 1.84963e-05 
35 1 1.85434e-06 3.56e-06 2.06e-05 1.92e-05 
51 1 1.71845e-06 3.78057e-05 2.94795e-05 1.8078e-05 
49 1 1.63182e-06 3.83e-05 4.08e-05 2e-05 
8 1 1.706e-06 3.31e-05 3.62e-05 2.57e-05 
34 1 1.51526e-06 2.82e-05 2.49e-05 2.69e-05 
41 1 1.93911e-06 4.91e-05 1.67e-05 2.71e-05 
7 1 1.87554e-06 4.89e-05 4.09e-05 3.17e-05 
31 1 1.51526e-06 4.22e-05 1.4e-05 3.34e-05 
21 1 1.79077e-06 2.55e-05 1.16e-05 3.59e-05 
18 1 1.67421e-06 1.38e-05 3.22e-05 4.37e-05 
43 1 1.87554e-06 1.61e-05 6.57e-06 4.44e-05 
3 1 1.47593e-06 4.15393e-05 4.462e-05 4.7791e-05 
57 1 1.67393e-06 4.08152e-05 4.32968e-05 4.73833e-05 
4 1 1.62123e-06 3.74e-05 9.73e-05 2.32e-06 
38 1 1.49163e-06 4.36478e-05 9.53356e-05 3.82581e-06 
45 1 1.84375e-06 2.18e-05 6.09e-05 1.6e-05 
42 1 1.91792e-06 4.17e-05 5.11e-05 1.87e-05 
54 1 1.69174e-06 4.29068e-05 9.39814e-05 3.40863e-06 
33 1 1.90733e-06 4.44e-05 9.47e-05 2.15e-05 
5 1 1.78017e-06 4.91e-05 6.34e-05 2.55e-05 
13 1 1.66361e-06 1.29e-05 8.52e-05 2.67e-05 
16 1 1.54583e-06 4.65081e-05 6.80109e-05 2.76633e-05 
26 1 1.82256e-06 3.18e-05 9.51e-05 3.31e-05 
25 1 1.49948e-06 4.19496e-05 9.25388e-05 3.43968e-05 
17 1 1.48402e-06 2.86159e-05 7.81371e-05 3.88309e-05 
29 1 1.56825e-06 2.04e-05 7.59e-05 3.94e-05 
6 1 1.93911e-06 2.43e-05 7.88e-05 4.77e-05 
55 1 1.70064e-06 4.12048e-05 9.11777e-05 3.39775e-05 
58 1 1.59871e-06 4.6695e-05 6.75819e-05 2.91619e-05 
59 1 1.6524e-06 2.8371e-05 7.80587e-05 3.72862e-05 
22 1 1.6848e-06 6.53e-05 4.78e-05 1.02e-05 
23 1 1.48378e-06 8.67389e-05 1.72193e-05 1.15908e-05 
56 1 1.68283e-06 8.60156e-05 1.58976e-05 1.11836e-05 
37 1 1.92852e-06 8.42e-05 4.06e-05 2.02e-05 
19 1 1.50467e-06 5.89e-05 3.55e-06 3.29e-05 
27 1 1.65302e-06 6.03e-05 4.77e-05 3.32e-05 
48 1 1.51518e-06 7.25487e-05 1.59373e-05 4.35963e-05 
28 1 1.84375e-06 7.58e-05 4.8e-05 4.55e-05 
52 1 1.71845e-06 7.18057e-05 1.45795e-05 4.3178e-05 
47 1 1.84375e-06 6.9e-05 7.98e-05 3.38e-06 
40 1 1.86494e-06 9.76e-05 5.52e-05 4.44e-06 
1 1 1.57884e-06 7.37e-05 9.3e-05 8.7e-06 
20 1 1.58944e-06 7.83e-05 5.27e-05 1.06e-05 
9 1 1.93911e-06 5.22e-05 6.23e-05 1.1e-05 
30 1 1.78017e-06 7.53e-05 5.7e-05 1.47e-05 
36 1 1.88613e-06 5.13e-05 6.53e-05 1.75e-05 
10 1 1.90733e-06 5.36e-05 9.23e-05 2.46e-05 
11 1 1.71659e-06 7.42e-05 6.86e-05 2.71e-05 
50 1 1.6954e-06 8.93e-05 6.15e-05 2.78e-05 
44 1 1.79077e-06 9.53e-05 8.14e-05 3.33e-05 
39 1 1.49407e-06 9.67e-05 8.75e-05 3.44e-05 
46 1 1.51518e-06 5.90487e-05 5.98373e-05 3.68963e-05 
24 1 1.75898e-06 9.02e-05 9.3e-05 4.14e-05 
53 1 1.71845e-06 5.83057e-05 5.84795e-05 3.6478e-05 
ITEM: TIMESTEP
1000
ITEM: NUMBER OF ATOMS
59
ITEM: BOX BOUNDS ff ff ff
0.0000000000000000e+00 1.0000000000000000e-04
0.0000000000000000e+00 1.0000000000000000e-04
0.0000000000000000e+00 5.0000000000000002e-05
ITEM: ATOMS id type diameter x y z 
12 1 1.66369e-06 2.58e-05 9.67e-06 6.97e-06 
14 1 1.55704e-06 1.48e-05 4.7e-05 6.69e-06 
15 1 1.749e-06 3.77e-06 3.77e-05 1.54e-05 
2 1 1.46106e-06 9.18e-06 6.13e-06 1.76e-05 
51 1 1.72954e-06 3.78057e-05 2.94795e-05 1.8078e-05 
32 1 1.52496e-06 3.85487e-05 3.08373e-05 1.84963e-05 
35 1 1.86632e-06 3.56e-06 2.06e-05 1.92e-05 
49 1 1.64236e-06 3.83e-05 4.08e-05 2e-05 
8 1 1.71701e-06 3.31e-05 3.62e-05 2.57e-05 
34 1 1.52505e-06 2.82e-05 2.49e-05 2.69e-05 
41 1 1.95163e-06 4.91e-05 1.67e-05 2.71e-05 
7 1 1.88764e-06 4.89e-05 4.09e-05 3.17e-05 
31 1 1.52505e-06 4.22e-05 1.4e-05 3.34e-05 
21 1 1.80233e-06 2.55e-05 1.16e-05 3.59e-05 
18 1 1.68502e-06 1.38e-05 3.22e-05 4.37e-05 
43 1 1.88764e-06 1.61e-05 6.57e-06 4.44e-05 
57 1 1.68474e-06 4.08152e-05 4.32968e-05 4.73833e-05 
3 1 1.48545e-06 4.15393e-05 4.462e-05 4.7791e-05 
4 1 1.63169e-06 3.74e-05 9.73e-05 2.32e-06 
54 1 1.70266e-06 4.29068e-05 9.39814e-05 3.40863e-06 
38 1 1.50126e-06 4.36478e-05 9.53356e-05 3.82581e-06 
45 1 1.85565e-06 2.18e-05 6.09e-05 1.6e-05 
42 1 1.9303e-06 4.17e-05 5.11e-05 1.87e-05 
33 1 1.91964e-06 4.44e-05 9.47e-05 2.15e-05 
5 1 1.79166e-06 4.91e-05 6.34e-05 2.55e-05 
13 1 1.67435e-06 1.29e-05 8.52e-05 2.67e-05 
16 1 1.55581e-06 4.65081e-05 6.80109e-05 2.76633e-05 
58 1 1.60903e-06 4.6695e-05 6.75819e-05 2.91619e-05 
26 1 1.83432e-06 3.18e-05 9.51e-05 3.31e-05 
55 1 1.71162e-06 4.12048e-05 9.11777e-05 3.39775e-05 
25 1 1.50916e-06 4.19496e-05 9.25388e-05 3.43968e-05 
59 1 1.66307e-06 2.8371e-05 7.80587e-05 3.72862e-05 
17 1 1.4936e-06 2.86159e-05 7.81371e-05 3.88309e-05 
29 1 1.57837e-06 2.04e-05 7.59e-05 3.94e-05 
6 1 1.95163e-06 2.43e-05 7.88e-05 4.77e-05 
22 1 1.69568e-06 6.53e-05 4.78e-05 1.02e-05 
56 1 1.6937e-06 8.60063e-05 1.58806e-05 1.11784e-05 
23 1 1.49336e-06 8.67482e-05 1.72363e-05 1.1596e-05 
37 1 1.94097e-06 8.42e-05 4.06e-05 2.02e-05 
19 1 1.51438e-06 5.89e-05 3.55e-06 3.29e-05 
27 1 1.66369e-06 6.03e-05 4.77e-05 3.32e-05 
52 1 1.72954e-06 7.18057e-05 1.45795e-05 4.3178e-05 
48 1 1.52496e-06 7.25487e-05 1.59373e-05 4.35963e-05 
28 1 1.85565e-06 7.58e-05 4.8e-05 4.55e-05 
47 1 1.85565e-06 6.9e-05 7.98e-05 3.38e-06 
40 1 1.87698e-06 9.76e-05 5.52e-05 4.44e-06 
1 1 1.58903e-06 7.37e-05 9.3e-05 8.7e-06 
20 1 1.5997e-06 7.83e-05 5.27e-05 1.06e-05 
9 1 1.95163e-06 5.22e-05 6.23e-05 1.1e-05 
30 1 1.79166e-06 7.53e-05 5.7e-05 1.47e-05 
36 1 1.89831e-06 5.13e-05 6.53e-05 1.75e-05 
10 1 1.91964e-06 5.36e-05 9.23e-05 2.46e-05 
11 1 1.72768e-06 7.42e-05 6.86e-05 2.71e-05 
50 1 1.70635e-06 8.93e-05 6.15e-05 2.78e-05 
44 1 1.80233e-06 9.53e-05 8.14e-05 3.33e-05 
39 1 1.50372e-06 9.67e-05 8.75e-05 3.44e-05 
53 1 1.72954e-06 5.83057e-05 5.84795e-05 3.6478e-05 
46 1 1.52496e-06 5.90487e-05 5.98373e-05 3.68963e-05 
24 1 1.77033e-06 9.02e-05 9.3e-05 4.14e-05 
ITEM: TIMESTEP
1100
ITEM: NUMBER OF ATOMS
59
ITEM: BOX BOUNDS ff ff ff
0.0000000000000000e+00 1.0000000000000000e-04
0.0000000000000000e+00 1.0000000000000000e-04
0.0000000000000000e+00 5.0000000000000002e-05
ITEM: ATOMS id type diameter x y z 
12 1 1.67443e-06 2.58e-05 9.67e-06 6.97e-06 
14 1 1.56709e-06 1.48e-05 4.7e-05 6.69e-06 
15 1 1.7603e-06 3.77e-06 3.77e-05 1.54e-05 
2 1 1.47049e-06 9.18e-06 6.13e-06 1.76e-05 