 NUFEB Simulation

     100 atoms 
     2 atom types 
     4 nutrients 

  0.0e-4   1.00e-04  xlo xhi 
  0.0e-4   1.00e-04  ylo yhi 
  0.0e-4   1.00e-05  zlo zhi 

 Atoms 

     1 1 1.58e-06  370 4.85e-05 7.15e-05 6.42e-06 1.58e-06 
     2 1 1.78e-06  370 5.49e-05 9.02e-06 2.69e-06 1.78e-06 
     3 1 1.72e-06  370 8.07e-05 2.31e-05 1.73e-06 1.72e-06 
     4 1 1.85e-06  370 4.76e-05 9.77e-05 6.06e-06 1.85e-06 
     5 1 1.70e-06  370 5.16e-05 5.23e-06 8.25e-06 1.70e-06 
     6 1 1.53e-06  370 2.36e-05 3.22e-05 2.46e-06 1.53e-06 
     7 1 1.90e-06  370 3.54e-05 6.84e-05 5.98e-06 1.90e-06 
     8 1 1.53e-06  370 8.46e-05 4.71e-05 3.60e-06 1.53e-06 
     9 1 1.54e-06  370 7.40e-05 4.94e-05 8.42e-06 1.54e-06 
     10 1 1.90e-06  370 8.18e-05 6.22e-05 5.95e-06 1.90e-06 
     11 1 1.65e-06  370 1.99e-05 4.44e-05 3.96e-06 1.65e-06 
     12 1 1.52e-06  370 2.04e-05 9.49e-05 5.32e-06 1.52e-06 
     13 1 1.53e-06  370 6.63e-05 9.77e-05 7.55e-06 1.53e-06 
     14 1 1.56e-06  370 5.47e-05 6.66e-05 8.23e-06 1.56e-06 
     15 1 1.91e-06  370 7.60e-05 5.74e-05 2.10e-06 1.91e-06 
     16 1 1.92e-06  370 7.38e-05 8.01e-05 5.90e-06 1.92e-06 
     17 1 1.52e-06  370 8.20e-05 9.56e-05 5.58e-06 1.52e-06 
     18 1 1.44e-06  370 1.17e-05 1.53e-05 5.85e-06 1.44e-06 
     19 1 1.68e-06  370 8.97e-05 6.43e-05 3.65e-06 1.68e-06 
     20 1 1.77e-06  370 4.65e-05 4.47e-05 7.62e-06 1.77e-06 
     21 1 1.38e-06  370 7.43e-05 2.10e-05 3.82e-06 1.38e-06 
     22 1 1.73e-06  370 3.61e-05 1.30e-05 6.82e-06 1.73e-06 
     23 1 1.84e-06  370 9.80e-06 9.72e-05 5.63e-06 1.84e-06 
     24 1 1.47e-06  370 8.30e-06 8.96e-05 7.33e-06 1.47e-06 
     25 1 1.59e-06  370 2.68e-05 5.03e-05 8.00e-06 1.59e-06 
     26 1 1.54e-06  370 8.30e-05 6.51e-05 5.97e-06 1.54e-06 
     27 1 1.93e-06  370 4.23e-05 5.44e-06 5.64e-06 1.93e-06 
     28 1 1.82e-06  370 5.78e-05 9.48e-05 3.34e-06 1.82e-06 
     29 1 1.48e-06  370 7.68e-05 8.69e-05 3.00e-06 1.48e-06 
     30 1 1.52e-06  370 6.09e-05 2.69e-05 2.77e-06 1.52e-06 
     31 1 1.56e-06  370 5.36e-05 9.34e-05 2.33e-06 1.56e-06 
     32 1 1.70e-06  370 8.22e-05 5.24e-05 5.38e-06 1.70e-06 
     33 1 1.45e-06  370 8.14e-05 3.35e-05 3.62e-06 1.45e-06 
     34 1 1.43e-06  370 7.41e-05 1.71e-05 4.01e-06 1.43e-06 
     35 1 1.89e-06  370 9.72e-05 9.14e-05 5.67e-06 1.89e-06 
     36 1 1.47e-06  370 5.24e-05 6.79e-05 3.19e-06 1.47e-06 
     37 1 1.68e-06  370 4.87e-05 7.41e-05 5.21e-06 1.68e-06 
     38 1 1.79e-06  370 2.81e-05 5.48e-05 3.48e-06 1.79e-06 
     39 1 1.47e-06  370 9.70e-06 2.79e-05 3.78e-06 1.47e-06 
     40 1 1.62e-06  370 2.82e-05 3.05e-05 3.21e-06 1.62e-06 
     41 1 1.83e-06  370 7.69e-05 2.13e-05 6.68e-06 1.83e-06 
     42 1 1.44e-06  370 1.70e-05 6.61e-05 4.96e-06 1.44e-06 
     43 1 1.40e-06  370 6.41e-05 8.92e-06 5.15e-06 1.40e-06 
     44 1 1.62e-06  370 8.27e-06 2.37e-05 6.07e-06 1.62e-06 
     45 1 1.65e-06  370 4.59e-05 1.63e-05 7.24e-06 1.65e-06 
     46 1 1.60e-06  370 6.27e-05 7.91e-05 6.34e-06 1.60e-06 
     47 1 1.78e-06  370 2.25e-06 2.61e-05 7.13e-06 1.78e-06 
     48 1 1.55e-06  370 5.61e-05 2.51e-05 4.08e-06 1.55e-06 
     49 1 1.83e-06  370 8.33e-05 6.48e-05 7.57e-06 1.83e-06 
     50 1 1.65e-06  370 4.68e-06 6.34e-05 5.30e-06 1.65e-06 
     51 2 1.05e-06  230 8.99e-05 4.05e-05 5.56e-06 1.05e-06 
     52 2 1.16e-06  230 6.42e-05 2.98e-05 2.20e-06 1.16e-06 
     53 2 1.29e-06  230 7.92e-05 4.74e-05 6.37e-06 1.29e-06 
     54 2 1.20e-06  230 1.53e-05 8.44e-05 1.20e-06 1.20e-06 
     55 2 1.07e-06  230 8.32e-05 1.42e-05 7.24e-06 1.07e-06 
     56 2 1.35e-06  230 2.98e-05 4.22e-05 6.45e-06 1.35e-06 
     57 2 1.16e-06  230 1.52e-06 7.21e-05 1.62e-06 1.16e-06 
     58 2 9.89e-07  230 3.78e-05 9.51e-05 6.85e-06 9.89e-07 
     59 2 1.12e-06  230 7.90e-05 9.87e-05 1.39e-06 1.12e-06 
     60 2 9.27e-07  230 4.18e-05 6.99e-05 6.64e-06 9.27e-07 
     61 2 9.02e-07  230 4.96e-05 9.20e-05 9.42e-07 9.02e-07 
     62 2 1.39e-06  230 8.54e-05 4.11e-05 6.73e-06 1.39e-06 
     63 2 1.21e-06  230 9.64e-05 2.35e-06 6.73e-06 1.21e-06 
     64 2 1.29e-06  230 9.78e-06 9.01e-05 5.57e-06 1.29e-06 
     65 2 1.19e-06  230 8.66e-05 8.76e-05 6.96e-06 1.19e-06 
     66 2 1.12e-06  230 8.95e-05 6.79e-06 4.93e-06 1.12e-06 
     67 2 1.20e-06  230 5.96e-05 6.03e-05 5.88e-06 1.20e-06 
     68 2 1.04e-06  230 9.75e-06 9.40e-05 6.92e-06 1.04e-06 
     69 2 1.21e-06  230 9.40e-05 4.94e-05 3.99e-06 1.21e-06 
     70 2 9.96e-07  230 7.78e-05 6.29e-05 1.41e-06 9.96e-07 
     71 2 1.01e-06  230 6.29e-05 3.92e-05 1.18e-06 1.01e-06 
     72 2 1.03e-06  230 7.09e-05 5.28e-05 5.10e-06 1.03e-06 
     73 2 1.17e-06  230 6.09e-05 8.38e-05 6.67e-06 1.17e-06 
     74 2 1.25e-06  230 8.10e-05 7.88e-05 4.36e-06 1.25e-06 
     75 2 1.04e-06  230 7.78e-06 3.42e-05 3.89e-06 1.04e-06 
     76 2 1.29e-06  230 1.68e-05 6.57e-06 7.10e-06 1.29e-06 
     77 2 1.37e-06  230 8.07e-05 4.06e-05 3.66e-06 1.37e-06 
     78 2 1.02e-06  230 5.44e-05 4.94e-05 2.92e-06 1.02e-06 
     79 2 1.30e-06  230 3.40e-05 4.22e-05 2.96e-06 1.30e-06 
     80 2 1.29e-06  230 6.55e-06 1.87e-06 3.40e-06 1.29e-06 
     81 2 9.91e-07  230 2.94e-05 3.33e-05 6.40e-06 9.91e-07 
     82 2 1.22e-06  230 5.67e-05 1.87e-06 2.82e-06 1.22e-06 
     83 2 1.20e-06  230 4.08e-05 1.20e-05 4.08e-06 1.20e-06 
     84 2 1.19e-06  230 5.58e-05 9.23e-05 4.24e-06 1.19e-06 
     85 2 9.05e-07  230 2.49e-05 9.60e-05 4.02e-06 9.05e-07 
     86 2 1.03e-06  230 5.38e-05 2.64e-05 6.06e-06 1.03e-06 
     87 2 1.11e-06  230 1.10e-05 3.25e-05 1.85e-06 1.11e-06 
     88 2 1.32e-06  230 7.15e-06 9.00e-05 5.74e-06 1.32e-06 
     89 2 1.11e-06  230 8.12e-05 6.98e-05 5.96e-06 1.11e-06 
     90 2 1.35e-06  230 1.96e-05 4.56e-06 4.16e-06 1.35e-06 
     91 2 1.09e-06  230 5.83e-05 9.02e-05 7.55e-06 1.09e-06 
     92 2 1.28e-06  230 9.20e-05 1.53e-05 2.21e-06 1.28e-06 
     93 2 1.38e-06  230 5.45e-06 6.43e-05 3.28e-06 1.38e-06 
     94 2 1.09e-06  230 1.27e-05 6.83e-05 5.41e-06 1.09e-06 
     95 2 1.31e-06  230 1.29e-05 7.89e-05 3.67e-06 1.31e-06 
     96 2 1.04e-06  230 6.67e-05 5.81e-06 1.15e-06 1.04e-06 
     97 2 1.30e-06  230 7.92e-05 7.86e-05 1.82e-06 1.30e-06 
     98 2 1.36e-06  230 2.03e-05 3.50e-05 2.64e-06 1.36e-06 
     99 2 1.22e-06  230 7.96e-05 9.32e-05 4.90e-06 1.22e-06 
     100 2 1.36e-06  230 5.42e-05 6.08e-05 7.59e-06 1.36e-06 

 Nutrients 

     1 sub g nn nn nn 1.00e-01 1.00e-01 
     2 o2 l nn nn nd 9.00e-03 9.00e-03 
     3 suc l nn nn nn 3.42e-20 3.42e-20 
     4 co2 l nn nn nd 2.99e-02 2.99e-02 

 Type Name 

     1 cyano  
     2 ecw  

 Diffusion Coeffs 

     sub 0 
     o2 2.3e-09 
     suc 5.2e-10 
     co2 1.9e-09 

 Growth Rate 

     cyano 1.67e-05 
     ecw 1.3e-05 

 Ks 

     cyano 0.00035 0.0002 0.01 0.000138 
     ecw 0 0.001 3.6 0.05 

 Yield 

     cyano 0.55 
     ecw 0.43 

 Maintenance 

     cyano 0 
     ecw 9.5e-07 

 Decay 

     cyano 0 
     ecw 0 



