LAMMPS (20 Nov 2019)
# NUFEB simulation

atom_style	bio
atom_modify	map array sort 1000 5.0e-7
boundary	ff ff ff
newton		off
processors  * * *

comm_modify	vel yes
#variable reps loop 1
read_data_bio atom_50_50_100_1_2021-08-31.in
  orthogonal box = (0 0 0) to (0.0001 0.0001 1e-05)
  8 by 4 by 1 MPI processor grid
  reading atoms ...
  100 atoms
  4 nutrients
#shell mkdir Run_50_50_100_1
#shell cd Run_50_50_100_1
##############Define initial particle distribution##############

lattice sc 1e-6 origin 0 0 0
Lattice spacing in x,y,z = 100 100 100
region reg block 0 1000 0 1000 0 100

group CYANO type 1
50 atoms in group CYANO
group ECW type 2
50 atoms in group ECW

neighbor	5e-7 bin
neigh_modify	delay 0 one 5000

##############Define DEM Variables&Commands##############

pair_style  gran/hooke/history 1.e-4 NULL 1.e-5 NULL 0.0 1
pair_coeff  * *

timestep 10

fix 1 all nve/limit 1e-8
fix fv all viscous 1e-5

fix zw all wall/gran hooke/history 2000 NULL 500.0 NULL 1.5 0 zplane  0.0  1e-05

variable kanc equal 50

variable ke equal 5e+10


##############Define IBm Variables##############

#variables used in fix eps_extract
variable EPSdens equal 30
variable EPSratio equal 1.3

#variables used in fix division
variable divDia1 equal 1.96e-6
variable divDia2 equal 1.04e-6

#variables used in fix kinetics
variable diffT equal 1e-4
variable tol equal 1e-11
variable etaHET equal 0.6
variable layer equal -1

#variables used in fix death
#variable deadDia equal 9e-7


##############Define IBm Commands##############

fix k1 all kinetics 100 50 50 5 v_diffT v_layer niter 1000000
fix kgm all kinetics/growth/monod sucexp 1.0
fix g1 all kinetics/diffusion v_tol
fix d1 CYANO divide 100 v_EPSdens v_divDia1 778294
fix d2 ECW divide 100 v_EPSdens v_divDia2 41371
#fix d2 all death 1 v_deadDia demflag 0


##############Define IBm Computes##############

compute myNtypes all ntypes
compute myMass all biomass
compute myCon all avg_con

##############Simulation exit condition##############
variable co2 equal c_myCon[4]
fix 10 all halt 100 v_co2 <= 1e-19

variable light equal c_myCon[1]
fix 11 all halt 100 v_light <= 1e-19

##############Simulation Output##############
dump    id all custom 100 output.lammmps id type diameter x y z
dump    du1 all vtk 100 atom_*.vtu id type diameter x y z
dump    du2 all grid 100 grid_%_*.vti con
dump    du3 all bio 100 ntypes biomass avg_con
dump    traj all bio/hdf5 100 trajectory.h5 id type radius x y z con
thermo_style    custom step cpu atoms c_myNtypes[*] c_myMass[*] c_myCon[*]
thermo		100
thermo_modify	lost ignore


run 35000
Model is defined as a closed system. 
Neighbor list info ...
  update every 1 steps, delay 0 steps, check yes
  max neighbors/atom: 5000, page size: 100000
  master list distance cutoff = 2.43e-06
  ghost atom cutoff = 2.43e-06
  binsize = 1.215e-06, bins = 83 83 9
  1 neighbor lists, perpetual/occasional/extra = 1 0 0
  (1) pair gran/hooke/history, perpetual
      attributes: half, newton off, size, history
      pair build: half/size/bin/newtoff
      stencil: half/bin/3d/newtoff
      bin: standard
Per MPI rank memory allocation (min/avg/max) = 5.794 | 10.78 | 12.11 Mbytes
Step CPU Atoms c_myNtypes[1] c_myNtypes[2] c_myMass[1] c_myMass[2] c_myCon[1] c_myCon[2] c_myCon[3] c_myCon[4] 
       0            0      100           50           50 4.430937e-14 1.0024172e-14          0.1        0.009     3.42e-20       0.0299 
number of iterations: 321959 
     100    15.426501      140           50           90 4.4896567e-14 1.0016749e-14          0.1 0.0090007553  0.035592215  0.029898742 
number of iterations: 4000 
     200    15.794001      160           50          110 4.5491547e-14 1.0010422e-14          0.1 0.0090007652  0.070520556  0.029898725 
number of iterations: 2763 
     300     16.08282      160           50          110 4.609441e-14 1.0005189e-14          0.1 0.0090007753   0.10588265  0.029898708 
number of iterations: 2203 
     400    16.334381      160           50          110 4.6705263e-14 1.0001043e-14          0.1 0.0090007855   0.14168704  0.029898691 
number of iterations: 1870 
     500    16.566788      161           51          110 4.7324212e-14 9.9979762e-15          0.1 0.0090007924   0.17794085   0.02989868 
number of iterations: 1665 
     600    16.819639      162           52          110 4.7951362e-14 9.9959803e-15          0.1 0.0090007993   0.21465094  0.029898668 
number of iterations: 1553 
     700    17.040284      163           53          110 4.8586824e-14 9.9950487e-15          0.1 0.0090008115    0.2518241  0.029898648 
number of iterations: 1454 
     800    17.270857      163           53          110 4.9230707e-14 9.9951736e-15          0.1 0.0090008222   0.28946704   0.02989863 
number of iterations: 1376 
     900    17.459434      165           55          110 4.9883123e-14 9.9963479e-15          0.1 0.0090008255   0.32758644  0.029898624 
number of iterations: 1542 
    1000    17.677215      166           56          110 5.0544185e-14 9.9985647e-15          0.1 0.0090008329   0.36618917  0.029898612 
number of iterations: 1408 
    1100    17.884012      166           56          110 5.1214008e-14 1.0001817e-14          0.1 0.0090008439   0.40528221  0.029898594 
number of iterations: 1394 
    1200    18.068789      166           56          110 5.1892707e-14 1.0006099e-14          0.1  0.009000855   0.44487245  0.029898575 
number of iterations: 1397 
    1300    18.285788      166           56          110  5.25804e-14 1.0011404e-14          0.1 0.0090008663   0.48496692  0.029898556 
number of iterations: 1400 
    1400    18.470172      166           56          110 5.3277207e-14 1.0017728e-14          0.1 0.0090008777   0.52557276  0.029898537 
number of iterations: 1628 
    1500    18.673984      167           57          110 5.3983248e-14 1.0025064e-14          0.1 0.0090008942   0.56669717  0.029898509 
number of iterations: 1567 
    1600    18.918517      168           58          110 5.4698646e-14 1.0033408e-14          0.1 0.0090009025   0.60834745  0.029898496 
number of iterations: 1582 
    1700    19.120471      170           60          110 5.5423524e-14 1.0042755e-14          0.1 0.0090009136   0.65053098  0.029898477 
number of iterations: 1374 
    1800    19.308162      171           61          110 5.6158008e-14 1.0053101e-14          0.1 0.0090009233   0.69325523  0.029898461 
number of iterations: 1413 
    1900      19.5052      171           61          110 5.6902227e-14 1.0064441e-14          0.1 0.0090009355   0.73652777   0.02989844 
number of iterations: 1416 
    2000    19.723199      172           61          111 5.7656307e-14 1.0076772e-14          0.1 0.0090009479   0.78035625   0.02989842 
number of iterations: 1419 
    2100    19.916482      172           61          111 5.8420381e-14 1.0090089e-14          0.1 0.0090009604   0.82474842  0.029898399 
number of iterations: 1417 
    2200     20.08364      173           62          111 5.919458e-14 1.010439e-14          0.1 0.0090009731    0.8697121  0.029898378 
number of iterations: 1510 
    2300    20.278161      175           64          111 5.997904e-14 1.0119671e-14          0.1 0.0090009875   0.91525526  0.029898353 
number of iterations: 1427 
    2400    20.467545      175           64          111 6.0773895e-14 1.013593e-14          0.1 0.0090010006   0.96138592  0.029898332 
number of iterations: 1424 
    2500    20.650574      176           65          111 6.1579283e-14 1.0153163e-14          0.1 0.0090010091    1.0081122  0.029898317 
number of iterations: 1433 
    2600    20.849177      176           65          111 6.2395345e-14 1.0171369e-14          0.1 0.0090010224    1.0554424  0.029898295 
number of iterations: 1479 
    2700    21.021154      176           65          111 6.3222222e-14 1.0190547e-14          0.1  0.009001036    1.1033848  0.029898273 
number of iterations: 1438 
    2800    21.199481      176           65          111 6.4060056e-14 1.0210693e-14          0.1 0.0090010497    1.1519478   0.02989825 
number of iterations: 1441 
    2900    21.382014      176           65          111 6.4908994e-14 1.0231806e-14          0.1 0.0090010635    1.2011401  0.029898226 
number of iterations: 1444 
    3000    21.580601      177           66          111 6.5769181e-14 1.0253884e-14          0.1 0.0090010776    1.2509702  0.029898203 
number of iterations: 1446 
    3100    21.799476      178           67          111 6.6640769e-14 1.0276926e-14          0.1 0.0090010905     1.301447  0.029898181 
number of iterations: 1450 
    3200    21.971866      179           67          112 6.7523906e-14 1.0300931e-14          0.1  0.009001105    1.3525794  0.029898157 
number of iterations: 1453 
    3300     22.14716      179           67          112 6.8418747e-14 1.0325898e-14          0.1 0.0090011196    1.4043763  0.029898133 
number of iterations: 1647 
    3400    22.352073      183           69          114 6.9325447e-14 1.0351831e-14          0.1 0.0090011403    1.4568468  0.029898098 
number of iterations: 1458 
    3500    22.535013      183           69          114 7.0244163e-14 1.0378725e-14          0.1 0.0090011554    1.5100002  0.029898073 
number of iterations: 1461 
    3600    22.727159      183           69          114 7.1175053e-14 1.0406581e-14          0.1 0.0090011707    1.5638457  0.029898048 
number of iterations: 1424 
    3700    22.906584      185           71          114 7.211828e-14 1.0435398e-14          0.1 0.0090011838    1.6183931  0.029898026 
number of iterations: 1465 
    3800    23.092579      185           71          114 7.3074007e-14 1.0465178e-14          0.1 0.0090011995    1.6736518     0.029898 
number of iterations: 1516 
    3900    23.276993      185           71          114 7.4042399e-14 1.0495921e-14          0.1 0.0090012153    1.7296313  0.029897973 
number of iterations: 1471 
    4000    23.469049      186           71          115 7.5023624e-14 1.0527627e-14          0.1 0.0090012314    1.7863416  0.029897946 
number of iterations: 1486 
    4100    23.657395      189           74          115 7.6017853e-14 1.0560299e-14          0.1 0.0090012418    1.8437926  0.029897929 
number of iterations: 1477 
    4200    23.857839      190           74          116 7.7025258e-14 1.0593937e-14          0.1 0.0090012583    1.9019943  0.029897901 
number of iterations: 1480 
    4300    24.029816      190           74          116 7.8046013e-14 1.0628541e-14          0.1 0.0090012749    1.9609569  0.029897874 
number of iterations: 1483 
    4400    24.214501      191           74          117 7.9080295e-14 1.0664115e-14          0.1 0.0090012918    2.0206909  0.029897845 
number of iterations: 1682 
    4500    24.408658      194           76          118 8.0128284e-14 1.070066e-14          0.1 0.0090013138    2.0812067  0.029897809 
number of iterations: 1488 
    4600    24.601601      195           77          118 8.119016e-14 1.0738176e-14          0.1 0.0090013312    2.1425148   0.02989778 
number of iterations: 1563 
    4700    24.800732      196           78          118 8.2266109e-14 1.0776669e-14          0.1 0.0090013488    2.2046261   0.02989775 
number of iterations: 1613 
    4800    24.984409      197           79          118 8.3356317e-14 1.0816139e-14          0.1 0.0090013708    2.2675513  0.029897714 
number of iterations: 1498 
    4900     25.17354      199           81          118 8.4460972e-14 1.0856589e-14          0.1 0.0090013832    2.3313016  0.029897693 
number of iterations: 1476 
    5000    25.374403      200           82          118 8.5580267e-14 1.0898021e-14          0.1    0.0090014    2.3958882  0.029897665 
number of iterations: 1595 
    5100    25.599034      202           84          118 8.6714395e-14 1.0940438e-14          0.1 0.0090014235    2.4613222  0.029897626 
number of iterations: 1509 
    5200     25.78529      202           84          118 8.7863552e-14 1.0983842e-14          0.1 0.0090014423    2.5276152  0.029897594 
number of iterations: 1511 
    5300    25.982243      203           84          119 8.9027938e-14 1.1028237e-14          0.1 0.0090014614    2.5947788  0.029897562 
number of iterations: 1616 
    5400    26.170386      206           86          120 9.0207755e-14 1.1073627e-14          0.1 0.0090014873    2.6628247  0.029897519 
number of iterations: 1579 
    5500    26.368572      208           87          121 9.1403206e-14 1.1120015e-14          0.1 0.0090015103    2.7317649  0.029897481 
number of iterations: 1613 
    5600    26.545337      211           90          121 9.2614501e-14 1.1167404e-14          0.1 0.0090015367    2.8016113  0.029897437 
number of iterations: 1497 
    5700    26.740447      213           92          121 9.3841847e-14 1.1215798e-14          0.1 0.0090015522    2.8723764  0.029897411 
number of iterations: 1536 
    5800    26.938876      217           96          121 9.5085459e-14  1.12652e-14          0.1 0.0090015685    2.9440725  0.029897383 
number of iterations: 1487 
    5900    27.135018      220           99          121 9.6345551e-14 1.1315616e-14          0.1 0.0090015823     3.016712   0.02989736 
number of iterations: 1593 
    6000    27.340468      221          100          121 9.7622342e-14 1.1367049e-14          0.1 0.0090016047    3.0903077  0.029897323 
number of iterations: 1534 
    6100    27.532865      223          100          123 9.8916054e-14 1.1419507e-14          0.1 0.0090016259    3.1648724  0.029897288 
number of iterations: 1536 
    6200    27.725497      223          100          123 1.0022691e-13 1.1472993e-14          0.1 0.0090016475    3.2404191  0.029897252 
number of iterations: 1539 
    6300    27.939826      223          100          123 1.0155514e-13 1.1527511e-14          0.1 0.0090016693    3.3169612  0.029897215 
number of iterations: 1542 
    6400     28.13969      224          100          124 1.0290097e-13 1.1583067e-14          0.1 0.0090016914    3.3945119  0.029897178 
number of iterations: 1655 
    6500    28.328365      227          102          125 1.0426463e-13 1.1639667e-14          0.1 0.0090017168    3.4730848  0.029897136 
number of iterations: 1661 
    6600    28.507883      232          105          127 1.0564637e-13 1.1697315e-14          0.1 0.0090017363    3.5526935  0.029897104 
number of iterations: 1567 
    6700    28.681841      236          108          128 1.0704641e-13 1.1756016e-14          0.1 0.0090017564    3.6333522   0.02989707 
number of iterations: 1554 
    6800    28.941172      237          108          129 1.0846502e-13 1.1815777e-14          0.1 0.0090017797    3.7150748  0.029897031 
number of iterations: 1675 
    6900    29.134707      239          109          130 1.0990242e-13 1.1876603e-14          0.1 0.0090018092    3.7978757  0.029896982 
number of iterations: 1561 
    7000    29.305675      240          110          130 1.1135887e-13 1.1938503e-14          0.1 0.0090018303    3.8817693  0.029896947 
number of iterations: 1620 
    7100    29.503757      244          113          131 1.1283462e-13 1.200148e-14          0.1 0.0090018552    3.9667703  0.029896905 
number of iterations: 1556 
    7200    29.691456      248          116          132 1.1432992e-13 1.206554e-14          0.1 0.0090018758    4.0528937  0.029896871 
number of iterations: 1629 
    7300    29.869893      250          117          133 1.1584505e-13 1.2130692e-14          0.1 0.0090019039    4.1401544  0.029896824 
number of iterations: 1589 
    7400    30.046577      252          118          134 1.1738025e-13 1.2196941e-14          0.1 0.0090019291    4.2285676  0.029896782 
number of iterations: 1613 
    7500     30.25184      254          119          135 1.189358e-13 1.2264294e-14          0.1 0.0090019567    4.3181489  0.029896736 
number of iterations: 1601 
    7600    30.425496      258          121          137 1.2051196e-13 1.2332759e-14          0.1 0.0090019827    4.4089135  0.029896692 
number of iterations: 1580 
    7700    30.620696      258          121          137  1.22109e-13 1.2402343e-14          0.1 0.0090020089    4.5008775  0.029896649 
number of iterations: 1682 
    7800    30.815925      261          124          137 1.2372722e-13 1.2473052e-14          0.1 0.0090020404    4.5940569  0.029896596 
number of iterations: 1585 
    7900    31.014481      263          125          138 1.2536688e-13 1.2544895e-14          0.1 0.0090020642    4.6884682  0.029896556 
number of iterations: 1654 
    8000    31.201741      266          126          140 1.2702826e-13 1.261788e-14          0.1 0.0090020922    4.7841278   0.02989651 
number of iterations: 1606 
    8100    31.424051      268          128          140 1.2871167e-13 1.2692014e-14          0.1 0.0090021199    4.8810523  0.029896463 
number of iterations: 1595 
    8200     31.59546      273          132          141 1.3041738e-13 1.2767308e-14          0.1 0.0090021433    4.9792582  0.029896425 
number of iterations: 1598 
    8300    31.869666      274          133          141 1.321457e-13 1.2843768e-14          0.1 0.0090021652    5.0787633  0.029896388 
number of iterations: 1602 
    8400    32.040294      274          133          141 1.3389692e-13 1.2921401e-14          0.1 0.0090021939    5.1795849   0.02989634 
number of iterations: 1704 
    8500    32.248594      276          135          141 1.3567135e-13 1.3000218e-14          0.1 0.0090022262    5.2817408  0.029896286 
number of iterations: 1580 
    8600    32.427057      278          137          141 1.3746929e-13 1.3080226e-14          0.1 0.0090022539    5.3852484   0.02989624 
number of iterations: 1610 
    8700    32.614623      279          138          141 1.3929106e-13 1.3161434e-14          0.1 0.0090022838    5.4901261   0.02989619 
number of iterations: 1652 
    8800     32.79476      281          140          141 1.4113697e-13 1.3243852e-14          0.1  0.009002318    5.5963923  0.029896133 
number of iterations: 1616 
    8900    32.974055      281          140          141 1.4300735e-13 1.3327489e-14          0.1 0.0090023487    5.7040655  0.029896082 
number of iterations: 1710 
    9000    33.158429      284          142          142 1.4490251e-13 1.3412353e-14          0.1 0.0090023833    5.8131642  0.029896024 
number of iterations: 1660 
    9100    33.364779      286          144          142 1.4682279e-13 1.3498454e-14          0.1 0.0090024169    5.9237076  0.029895968 
number of iterations: 1666 
    9200    33.566911      289          147          142 1.4876851e-13  1.35858e-14          0.1 0.0090024476     6.035715  0.029895917 
number of iterations: 1627 
    9300    33.754426      291          147          144 1.5074002e-13 1.3674405e-14          0.1   0.00900248     6.149206  0.029895863 
number of iterations: 1609 
    9400    33.949165      292          148          144 1.5273766e-13 1.3764278e-14          0.1 0.0090025084    6.2642005  0.029895815 
number of iterations: 1628 
    9500    34.131224      295          150          145 1.5476177e-13 1.3855429e-14          0.1 0.0090025417    6.3807184   0.02989576 
number of iterations: 1709 
    9600    34.314939      297          152          145 1.568127e-13 1.3947868e-14          0.1  0.009002578    6.4987801  0.029895699 
number of iterations: 1611 
    9700    34.516563      298          153          145 1.5889081e-13 1.4041606e-14          0.1 0.0090026106    6.6184062  0.029895645 
number of iterations: 1679 
    9800    34.698377      302          155          147 1.6099646e-13 1.4136653e-14          0.1 0.0090026441    6.7396176  0.029895589 
number of iterations: 1656 
    9900    34.895418      309          158          151 1.6313002e-13 1.4233019e-14          0.1 0.0090026793    6.8624357   0.02989553 
number of iterations: 1662 
   10000    35.083961      311          159          152 1.6529185e-13 1.4330716e-14          0.1 0.0090027148    6.9868817  0.029895471 
number of iterations: 1682 
   10100     35.28468      315          162          153 1.6748233e-13 1.4429757e-14          0.1 0.0090027507     7.112977  0.029895411 
number of iterations: 1605 
   10200    35.469475      319          164          155 1.6970184e-13 1.4530151e-14          0.1 0.0090027822    7.2407439  0.029895359 
number of iterations: 1648 
   10300    35.714685      321          166          155 1.7195076e-13 1.4631909e-14          0.1 0.0090028191    7.3702045  0.029895297 
number of iterations: 1667 
   10400    35.906509      321          166          155 1.7422949e-13 1.4735044e-14          0.1 0.0090028565    7.5013815  0.029895235 
number of iterations: 1717 
   10500     36.10268      324          168          156 1.7653841e-13 1.4839569e-14          0.1 0.0090028969     7.634298  0.029895167 
number of iterations: 1732 
   10600    36.283783      327          171          156 1.7887793e-13 1.4945495e-14          0.1 0.0090029396    7.7689769  0.029895096 
number of iterations: 1692 
   10700    36.470534      331          175          156 1.8124845e-13 1.5052835e-14          0.1 0.0090029827    7.9054421  0.029895024 
number of iterations: 1671 
   10800    36.675804      336          177          159 1.8365039e-13 1.5161601e-14          0.1 0.0090030181    8.0437171  0.029894965 
number of iterations: 1791 
   10900    36.882415      338          178          160 1.8608416e-13 1.5271805e-14          0.1 0.0090030607    8.1838258  0.029894894 
number of iterations: 1700 
   11000    37.074967      342          181          161 1.8855019e-13 1.5383461e-14          0.1 0.0090030993     8.325793   0.02989483 
number of iterations: 1703 
   11100    37.308784      350          186          164 1.9104889e-13 1.5496584e-14          0.1 0.0090031436    8.4696433  0.029894756 
number of iterations: 1684 
   11200    37.491727      353          187          166 1.9358071e-13 1.5611185e-14          0.1 0.0090031852    8.6154019  0.029894686 
number of iterations: 1687 
   11300    37.694224      358          190          168 1.9614607e-13 1.5727277e-14          0.1 0.0090032248    8.7630944   0.02989462 
number of iterations: 1760 
   11400    37.890456      362          193          169 1.9874544e-13 1.5844875e-14          0.1 0.0090032715    8.9127461  0.029894543 
number of iterations: 1706 
   11500    38.106034      368          199          169 2.0137925e-13 1.596399e-14          0.1 0.0090033119    9.0643834  0.029894475 
number of iterations: 1696 
   11600    38.295021      372          200          172 2.0404797e-13 1.6084638e-14          0.1 0.0090033542     9.218033  0.029894405 
number of iterations: 1721 
   11700    38.495492      375          202          173 2.0675205e-13 1.6206831e-14          0.1 0.0090033986    9.3737214   0.02989433 
number of iterations: 1651 
   11800    38.686215      379          205          174 2.0949197e-13 1.6330585e-14          0.1 0.0090034307    9.5314759  0.029894277 
number of iterations: 1699 
   11900    38.924845      386          211          175 2.1226819e-13 1.6455914e-14          0.1 0.0090034787    9.6913239  0.029894197 
number of iterations: 1708 
   12000    39.135506      388          213          175 2.1508121e-13 1.6582833e-14          0.1 0.0090035131    9.8532934  0.029894139 
number of iterations: 1733 
   12100    39.380727      394          217          177 2.1793151e-13 1.6711357e-14          0.1  0.009003565    10.017412  0.029894053 
number of iterations: 1740 
   12200    39.591687      398          219          179 2.2081958e-13  1.68415e-14          0.1 0.0090036172     10.18371  0.029893966 
number of iterations: 1701 
   12300    39.777487      406          225          181 2.2374592e-13 1.697328e-14          0.1 0.0090036631    10.352214  0.029893889 
number of iterations: 1769 
   12400    39.980966      412          231          181 2.2671104e-13 1.7106712e-14          0.1 0.0090037085    10.522956  0.029893814 
number of iterations: 1734 
   12500    40.175792      415          233          182 2.2971546e-13 1.7241811e-14          0.1 0.0090037577    10.695964  0.029893732 
number of iterations: 1834 
   12600    40.373026      422          237          185 2.3275969e-13 1.7378592e-14          0.1 0.0090038222    10.871268  0.029893624 
number of iterations: 1807 
   12700    40.563726      426          240          186 2.3584426e-13 1.7517072e-14          0.1 0.0090038812    11.048901  0.029893526 
number of iterations: 1732 
   12800    40.762327      431          243          188 2.3896971e-13 1.7657267e-14          0.1 0.0090039352    11.228891  0.029893436 
number of iterations: 1746 
   12900    40.950734      436          246          190 2.4213658e-13 1.7799194e-14          0.1 0.0090039864    11.411272   0.02989335 
number of iterations: 1712 
   13000    41.155403      440          249          191 2.4534542e-13 1.794287e-14          0.1 0.0090040367    11.596073  0.029893266 
number of iterations: 1867 
   13100    41.372217      444          249          195 2.4859678e-13 1.8088312e-14          0.1 0.0090040951    11.783329  0.029893169 
number of iterations: 1712 
   13200    41.557351      446          251          195 2.5189123e-13 1.8235536e-14          0.1 0.0090041287    11.973071  0.029893113 
number of iterations: 1805 
   13300    41.770366      453          257          196 2.5522934e-13 1.8384561e-14          0.1 0.0090041886    12.165332  0.029893013 
number of iterations: 1751 
   13400    41.952096      459          259          200 2.5861169e-13 1.8535404e-14          0.1 0.0090042452    12.360147  0.029892918 
number of iterations: 1773 
   13500    42.136529      463          262          201 2.6203886e-13 1.8688082e-14          0.1 0.0090043004    12.557549  0.029892826 
number of iterations: 1740 
   13600    42.337354      464          263          201 2.6551144e-13 1.8842614e-14          0.1 0.0090043509    12.757572  0.029892742 
number of iterations: 1760 
   13700    42.527166      468          265          203 2.6903005e-13 1.8999017e-14          0.1 0.0090044045    12.960252  0.029892653 
number of iterations: 1720 
   13800    42.737342      473          268          205 2.7259528e-13 1.915731e-14          0.1 0.0090044536    13.165623  0.029892571 
number of iterations: 1796 
   13900    42.969496      478          271          207 2.7620776e-13 1.9317514e-14          0.1 0.0090045294    13.373722  0.029892445 
number of iterations: 1758 
   14000    43.156271      483          274          209 2.7986812e-13 1.9479646e-14          0.1 0.0090045873    13.584585  0.029892348 
number of iterations: 1736 
   14100    43.378859      486          277          209 2.8357698e-13 1.9643725e-14          0.1 0.0090046413    13.798248  0.029892258 
number of iterations: 1756 
   14200    43.587974      491          280          211 2.8733499e-13 1.980977e-14          0.1 0.0090047005     14.01475  0.029892159 
number of iterations: 1787 
   14300    43.788929      496          285          211 2.9114281e-13 1.9977803e-14          0.1 0.0090047615    14.234127  0.029892058 
number of iterations: 1861 
   14400    43.975717      503          290          213 2.9500108e-13 2.0147841e-14          0.1 0.0090048393    14.456418  0.029891928 
number of iterations: 1857 
   14500    44.178762      508          294          214 2.9891049e-13 2.0319906e-14          0.1 0.0090049207    14.681662  0.029891792 
number of iterations: 1871 
   14600    44.381892      514          297          217 3.028717e-13 2.0494018e-14          0.1 0.0090049838    14.909898  0.029891687 
number of iterations: 1788 
   14700    44.567294      520          301          219 3.0688541e-13 2.0670199e-14          0.1 0.0090050419    15.141166   0.02989159 
number of iterations: 1817 
   14800    44.780212      523          303          220 3.1095231e-13 2.0848469e-14          0.1 0.0090051167    15.375506  0.029891465 
number of iterations: 1795 
   14900    44.993528      526          306          220 3.150731e-13 2.1028848e-14          0.1 0.0090051878    15.612959  0.029891347 
number of iterations: 1792 
   15000    45.176402      532          311          221 3.192485e-13 2.1211359e-14          0.1 0.0090052497    15.853567  0.029891243 
number of iterations: 1829 
   15100    45.387385      536          315          221 3.2347924e-13 2.1396022e-14          0.1 0.0090053241    16.097371  0.029891119 
number of iterations: 1805 
   15200    45.612163      544          317          227 3.2776604e-13 2.1582861e-14          0.1 0.0090053969    16.344414  0.029890998 
number of iterations: 1762 
   15300    45.812379      553          322          231 3.3210965e-13 2.1771897e-14          0.1  0.009005463     16.59474  0.029890888 
number of iterations: 1765 
   15400    46.007445      564          328          236 3.3651083e-13 2.1963153e-14          0.1 0.0090055332    16.848391  0.029890771 
number of iterations: 1794 
   15500    46.207283      573          332          241 3.4097032e-13 2.215665e-14          0.1 0.0090056056    17.105412   0.02989065 
number of iterations: 1777 
   15600    46.407818      580          335          245 3.4548892e-13 2.2352412e-14          0.1 0.0090056721    17.365848  0.029890539 
number of iterations: 1782 
   15700    46.614245      587          340          247 3.500674e-13 2.2550463e-14          0.1 0.0090057442    17.629745  0.029890419 
number of iterations: 1837 
   15800    46.827162      594          345          249 3.5470655e-13 2.2750826e-14          0.1 0.0090058198    17.897147  0.029890293 
number of iterations: 1908 
   15900    47.022423      604          354          250 3.5940718e-13 2.2953524e-14          0.1 0.0090058936    18.168102   0.02989017 
number of iterations: 1811 
   16000     47.22216      609          357          252 3.641701e-13 2.3158583e-14          0.1 0.0090059704    18.442658  0.029890042 
number of iterations: 1827 
   16100    47.416312      613          360          253 3.6899615e-13 2.3366025e-14          0.1 0.0090060472    18.720862  0.029889914 
number of iterations: 1797 
   16200    47.621613      617          363          254 3.7388614e-13 2.3575875e-14          0.1 0.0090061202    19.002762  0.029889792 
number of iterations: 1856 
   16300      47.8452      623          368          255 3.7884094e-13 2.3788159e-14          0.1 0.0090062004    19.288408  0.029889658 
number of iterations: 1826 
   16400    48.034634      636          378          258 3.8386141e-13 2.4002901e-14          0.1 0.0090062773    19.577848   0.02988953 
number of iterations: 1840 
   16500    48.251822      642          382          260 3.889484e-13 2.4220127e-14          0.1 0.0090063625    19.871135  0.029889388 
number of iterations: 1909 
   16600    48.443216      648          388          260 3.9410281e-13 2.4439864e-14          0.1 0.0090064623    20.168319  0.029889221 
number of iterations: 1792 
   16700    48.629358      654          391          263 3.9932552e-13 2.4662137e-14          0.1  0.009006535    20.469451    0.0298891 
number of iterations: 1827 
   16800    48.853186      663          399          264 4.0461745e-13 2.4886972e-14          0.1 0.0090066165    20.774585  0.029888964 
number of iterations: 1847 
   16900    49.054495      668          402          266 4.099795e-13 2.5114397e-14          0.1 0.0090066962    21.083773  0.029888831 
number of iterations: 1878 
   17000    49.294989      674          407          267 4.1541262e-13 2.5344437e-14          0.1 0.0090067851     21.39707  0.029888683 
number of iterations: 1857 
   17100    49.511183      686          415          271 4.2091773e-13 2.5577122e-14          0.1 0.0090068708    21.714529   0.02988854 
number of iterations: 1851 
   17200     49.73684      692          419          273 4.264958e-13 2.5812476e-14          0.1 0.0090069596    22.036207  0.029888392 
number of iterations: 1859 
   17300     49.93008      705          429          276 4.3214779e-13 2.605053e-14          0.1 0.0090070503     22.36216  0.029888241 
number of iterations: 1911 
   17400    50.132558      715          437          278 4.3787468e-13 2.629131e-14          0.1 0.0090071434    22.692443  0.029888086 
number of iterations: 1844 
   17500    50.349495      723          442          281 4.4367746e-13 2.6534845e-14          0.1 0.0090072396    23.027115  0.029887925 
number of iterations: 1869 
   17600    50.548143      736          450          286 4.4955715e-13 2.6781165e-14          0.1 0.0090073311    23.366235  0.029887773 
number of iterations: 1841 
   17700     50.73997      748          460          288 4.5551475e-13 2.7030299e-14          0.1 0.0090074208     23.70986  0.029887623 
number of iterations: 1865 
   17800    50.956079      753          464          289 4.615513e-13 2.7282275e-14          0.1 0.0090075204    24.058051  0.029887457 
number of iterations: 1949 
   17900    51.192413      760          468          292 4.6766785e-13 2.7537125e-14          0.1 0.0090076279     24.41087  0.029887278 
number of iterations: 1889 
   18000    51.423426      767          474          293 4.7386546e-13 2.7794879e-14          0.1 0.0090077307    24.768376  0.029887106 
number of iterations: 1858 
   18100    51.610465      776          479          297 4.8014519e-13 2.8055565e-14          0.1 0.0090078309    25.130633  0.029886939 
number of iterations: 1885 
   18200    51.806436      783          485          298 4.8650815e-13 2.8319216e-14          0.1 0.0090079347    25.497705  0.029886766 
number of iterations: 1847 
   18300    52.004714      791          489          302 4.9295543e-13 2.8585863e-14          0.1  0.009008035    25.869654  0.029886599 
number of iterations: 1891 
   18400    52.214895      801          497          304 4.9948815e-13 2.8855536e-14          0.1 0.0090081429    26.246547  0.029886419 
number of iterations: 1878 
   18500    52.424944      812          504          308 5.0610744e-13 2.9128268e-14          0.1 0.0090082416    26.628449  0.029886255 
number of iterations: 1895 
   18600    52.645181      822          511          311 5.1281445e-13 2.9404092e-14          0.1 0.0090083421    27.015425  0.029886087 
number of iterations: 1949 
   18700    52.866736      833          520          313 5.1961034e-13 2.968304e-14          0.1 0.0090084571    27.407544  0.029885895 
number of iterations: 1913 
   18800    53.065258      845          528          317 5.2649629e-13 2.9965146e-14          0.1 0.0090085799    27.804874   0.02988569 
number of iterations: 1932 
   18900    53.274824      855          534          321 5.334735e-13 3.0250443e-14          0.1 0.0090086941    28.207485    0.0298855 
number of iterations: 1954 
   19000    53.481797      858          537          321 5.4054317e-13 3.0538965e-14          0.1  0.009008821    28.615447  0.029885288 
number of iterations: 1906 
   19100    53.677423      872          545          327 5.4770652e-13 3.0830745e-14          0.1 0.0090089348     29.02883  0.029885099 
number of iterations: 1865 
   19200     53.86729      882          552          330 5.5496481e-13 3.1125818e-14          0.1  0.009009043    29.447706  0.029884918 
number of iterations: 1953 
   19300    54.058666      888          556          332 5.6231928e-13 3.1424219e-14          0.1  0.009009164     29.87215  0.029884716 
number of iterations: 1938 
   19400      54.2651      895          560          335 5.6977121e-13 3.1725982e-14          0.1 0.0090092958    30.302233  0.029884497 
number of iterations: 1883 
   19500    54.468823      908          565          343 5.773219e-13 3.2031145e-14          0.1 0.0090094086    30.738033  0.029884309 
number of iterations: 1943 
   19600     54.67618      921          574          347 5.8497265e-13 3.2339743e-14          0.1 0.0090095327    31.179626  0.029884102 
number of iterations: 1998 
   19700    54.902548      926          577          349 5.9272479e-13 3.2651813e-14          0.1  0.009009675    31.627086  0.029883865 
number of iterations: 1865 
   19800    55.131892      937          586          351 6.0057966e-13 3.296739e-14          0.1   0.00900978    32.080492  0.029883689 
number of iterations: 1947 
   19900    55.382159      951          595          356 6.0853863e-13 3.3286514e-14          0.1 0.0090098933    32.539924    0.0298835 
number of iterations: 1935 
   20000     55.63324      965          603          362 6.1660306e-13 3.360922e-14          0.1 0.0090100144    33.005461  0.029883298 
number of iterations: 1978 
   20100    55.846921      971          607          364 6.2477437e-13 3.3935547e-14          0.1 0.0090101522    33.477184  0.029883069 
number of iterations: 1944 
   20200    56.058728      987          618          369 6.3305396e-13 3.4265534e-14          0.1 0.0090102885    33.955175  0.029882841 
number of iterations: 1943 
   20300    56.254166     1001          625          376 6.4144328e-13 3.459922e-14          0.1 0.0090104287    34.439519  0.029882608 
number of iterations: 1933 
   20400    56.472629     1013          635          378 6.4994377e-13 3.4936644e-14          0.1  0.009010565    34.930298  0.029882381 
number of iterations: 1964 
   20500    56.688299     1024          642          382 6.5855691e-13 3.5277847e-14          0.1 0.0090107146      35.4276  0.029882131 
number of iterations: 1897 
   20600    56.901598     1033          649          384 6.6728419e-13 3.5622867e-14          0.1 0.0090108441    35.931511  0.029881915 
number of iterations: 1926 
   20700    57.128697     1044          658          386 6.7612713e-13 3.5971747e-14          0.1 0.0090109892    36.442119  0.029881673 
number of iterations: 1912 
   20800    57.371135     1056          668          388 6.8508725e-13 3.6324526e-14          0.1 0.0090111124    36.959512  0.029881468 
number of iterations: 1937 
   20900     57.60616     1068          677          391 6.9416611e-13 3.6681247e-14          0.1 0.0090112586    37.483781  0.029881224 
number of iterations: 1944 
   21000    57.817951     1082          688          394 7.0336529e-13 3.7041953e-14          0.1 0.0090114068    38.015018  0.029880977 
number of iterations: 2019 
   21100    58.054327     1097          699          398 7.1268638e-13 3.7406686e-14          0.1 0.0090115637    38.553314  0.029880715 
number of iterations: 1977 
   21200    58.268858     1113          711          402 7.2213098e-13 3.7775487e-14          0.1 0.0090117201    39.098763  0.029880455 
number of iterations: 1943 
   21300    58.479395     1120          717          403 7.3170075e-13 3.8148403e-14          0.1 0.0090118746    39.651459  0.029880197 
number of iterations: 1990 
   21400    58.686049     1135          726          409 7.4139734e-13 3.8525476e-14          0.1 0.0090120372      40.2115  0.029879926 
number of iterations: 1999 
   21500    58.959621     1150          737          413 7.5122243e-13 3.890675e-14          0.1 0.0090121956    40.778983  0.029879662 
number of iterations: 1991 
   21600      59.1695     1164          747          417 7.6117772e-13 3.9292271e-14          0.1 0.0090123541    41.354007  0.029879397 
number of iterations: 1935 
   21700    59.374264     1181          760          421 7.7126493e-13 3.9682084e-14          0.1 0.0090125049    41.936672  0.029879146 
number of iterations: 2026 
   21800    59.601444     1197          772          425 7.8148583e-13 4.0076236e-14          0.1 0.0090126732    42.527079  0.029878865 
number of iterations: 2012 
   21900    59.841156     1207          779          428 7.9184217e-13 4.0474772e-14          0.1 0.0090128338    43.125332  0.029878598 
number of iterations: 1975 
   22000    60.068597     1227          791          436 8.0233575e-13 4.0877741e-14          0.1 0.0090129881    43.731536   0.02987834 
number of iterations: 2046 
   22100    60.297615     1248          802          446 8.129684e-13 4.128519e-14          0.1 0.0090131746    44.345795   0.02987803 
number of iterations: 1977 
   22200    60.504701     1265          812          453 8.2374195e-13 4.1697165e-14          0.1 0.0090133299    44.968217  0.029877771 
number of iterations: 1970 
   22300    60.719901     1279          822          457 8.3465827e-13 4.2113717e-14          0.1 0.0090135022     45.59891  0.029877483 
number of iterations: 1975 
   22400    60.933497     1288          828          460 8.4426381e-13 4.2534893e-14          0.1 0.0090136436    46.236867  0.029877247 
number of iterations: 1984 
   22500    61.158202     1304          842          462 8.5545209e-13 4.2960744e-14          0.1 0.0090138286    46.883302  0.029876939 
number of iterations: 2012 
   22600    61.374599     1323          856          467 8.6678863e-13 4.3391319e-14          0.1 0.0090140161    47.538328  0.029876626 
number of iterations: 2013 
   22700    61.620615     1341          873          468 8.7827541e-13 4.3826669e-14          0.1 0.0090141793    48.202057  0.029876354 
number of iterations: 2013 
   22800     61.90777     1357          885          472 8.8991441e-13 4.4266845e-14          0.1 0.0090143822    48.874607  0.029876016 
number of iterations: 2013 
   22900    62.133842     1377          901          476 9.0170765e-13 4.4711899e-14          0.1 0.0090145814    49.556095  0.029875684 
number of iterations: 2111 
   23000    62.342645     1389          910          479 9.1365717e-13 4.5161883e-14          0.1 0.0090147829    50.246638  0.029875348 
number of iterations: 2075 
   23100     62.55642     1398          917          481 9.2576505e-13 4.561685e-14          0.1 0.0090150168    50.946356  0.029874958 
number of iterations: 2010 
   23200    62.771812     1412          928          484 9.3803339e-13 4.6076854e-14          0.1 0.0090152164    51.655374  0.029874625 
number of iterations: 2002 
   23300    63.012588     1427          940          487 9.504643e-13 4.6541949e-14          0.1 0.0090154127    52.373813  0.029874298 
number of iterations: 2043 
   23400    63.235726     1448          955          493 9.6305994e-13 4.701219e-14          0.1 0.0090156043      53.1018  0.029873979 
number of iterations: 2003 
   23500    63.447085     1469          968          501 9.7582251e-13 4.7487632e-14          0.1 0.0090158106     53.83946  0.029873635 
number of iterations: 2072 
   23600    63.677207     1482          977          505 9.887542e-13 4.7968331e-14          0.1 0.0090160437    54.586924  0.029873246 
number of iterations: 2037 
   23700    63.903431     1504          991          513 1.0018573e-12 4.8454344e-14          0.1 0.0090162538    55.344319  0.029872896 
number of iterations: 2041 
   23800     64.12291     1526         1006          520 1.015134e-12 4.8945727e-14          0.1 0.0090164578     56.11178  0.029872556 
number of iterations: 2069 
   23900    64.359825     1546         1023          523 1.0285866e-12 4.944254e-14          0.1 0.0090166908    56.889438  0.029872167 
number of iterations: 2048 
   24000    64.572075     1570         1039          531 1.0422175e-12 4.994484e-14          0.1 0.0090169061    57.677429  0.029871809 
number of iterations: 2067 
   24100    64.787748     1585         1049          536 1.0560291e-12 5.0452686e-14          0.1 0.0090171286    58.475892  0.029871438 
number of iterations: 2054 
   24200    65.001043     1600         1062          538 1.0700237e-12 5.0966138e-14          0.1 0.0090173597    59.284966  0.029871052 
number of iterations: 2046 
   24300     65.23757     1622         1077          545 1.0842037e-12 5.1485256e-14          0.1 0.0090176011    60.104789   0.02987065 
number of iterations: 2092 
   24400    65.464827     1641         1092          549 1.0985717e-12  5.20101e-14          0.1 0.0090178361    60.935507  0.029870258 
number of iterations: 2062 
   24500    65.778407     1655         1101          554  1.11313e-12 5.2540734e-14          0.1 0.0090180817    61.777263  0.029869849 
number of iterations: 2125 
   24600    66.030774     1676         1114          562 1.1278813e-12 5.3077219e-14          0.1 0.0090183407    62.630204  0.029869417 
number of iterations: 2047 
   24700    66.246964     1694         1127          567 1.1428281e-12 5.3619619e-14          0.1 0.0090185769    63.494477  0.029869023 
number of iterations: 2065 
   24800    66.464149     1716         1145          571 1.1579729e-12 5.4167996e-14          0.1 0.0090188197    64.370235  0.029868618 
number of iterations: 2078 
   24900    66.693762     1737         1157          580 1.1733185e-12 5.4722417e-14          0.1 0.0090190706    65.257631    0.0298682 
number of iterations: 2066 
   25000    66.960322     1751         1168          583 1.1888674e-12 5.5282946e-14          0.1 0.0090193252    66.156817  0.029867776 
number of iterations: 2068 
   25100    67.201733     1767         1173          594 1.2046223e-12 5.5849649e-14          0.1 0.0090195781    67.067952  0.029867354 
number of iterations: 2071 
   25200    67.433536     1788         1186          602 1.2205861e-12 5.6422594e-14          0.1 0.0090198312    67.991194  0.029866932 
number of iterations: 2081 
   25300     67.65483     1809         1199          610 1.2353892e-12 5.7001846e-14          0.1 0.0090200805    68.925652  0.029866517 
number of iterations: 2036 
   25400    68.013027     1830         1214          616 1.2506931e-12 5.7587474e-14          0.1 0.0090203171     69.87171  0.029866122 
number of iterations: 2081 
   25500    68.237965     1847         1229          618 1.2672674e-12 5.8179546e-14          0.1 0.0090205844     70.83034  0.029865676 
number of iterations: 2076 
   25600    68.452887     1878         1255          623 1.2840613e-12 5.8778132e-14          0.1 0.0090208656    71.801708  0.029865208 
number of iterations: 2088 
   25700    68.671267     1905         1279          626 1.3000633e-12 5.9383302e-14          0.1 0.0090211105    72.785205  0.029864799 
number of iterations: 2121 
   25800    68.928472     1938         1304          634 1.3172918e-12 5.9995127e-14          0.1 0.0090214053    73.781771  0.029864308 
number of iterations: 2086 
   25900    69.188804     1962         1322          640 1.3347487e-12 6.0613677e-14          0.1 0.0090216597    74.791579  0.029863884 
number of iterations: 2103 
   26000    69.428517     1984         1335          649 1.3524368e-12 6.1239027e-14          0.1 0.0090219553    75.814805  0.029863391 
number of iterations: 2087 
   26100    69.655828     2011         1352          659 1.3703594e-12 6.187125e-14          0.1 0.0090222066    76.851626  0.029862972 
number of iterations: 2086 
   26200    69.962731     2042         1373          669 1.3885195e-12 6.2510419e-14          0.1 0.0090224716    77.902225   0.02986253 
number of iterations: 2132 
   26300    70.185844     2069         1392          677 1.4069202e-12 6.3156611e-14          0.1 0.0090227731    78.966782  0.029862028 
number of iterations: 2098 
   26400    70.425766     2091         1404          687 1.4255648e-12 6.3809901e-14          0.1 0.0090230618    80.045484  0.029861546 
number of iterations: 2136 
   26500    70.659015     2117         1423          694 1.4444564e-12 6.4470366e-14          0.1 0.0090233631     81.13852  0.029861044 
number of iterations: 2137 
   26600    70.904784     2134         1435          699 1.4635984e-12 6.5138083e-14          0.1 0.0090236957    82.246078   0.02986049 
number of iterations: 2073 
   26700    71.137379     2158         1454          704 1.4829941e-12 6.5813131e-14          0.1 0.0090239801    83.368351  0.029860016 
number of iterations: 2129 
   26800    71.377906     2189         1480          709 1.5026468e-12 6.649559e-14          0.1 0.0090242962    84.505535  0.029859489 
number of iterations: 2130 
   26900    71.613399     2220         1502          718 1.5205451e-12 6.7185539e-14          0.1 0.0090245807    85.656285  0.029859014 
number of iterations: 2142 
   27000    71.888031     2245         1519          726 1.5406955e-12 6.7883059e-14          0.1 0.0090249065    86.822323  0.029858471 
number of iterations: 2132 
   27100    72.146987     2269         1540          729 1.5611128e-12 6.858823e-14          0.1 0.0090252107    88.003855  0.029857964 
number of iterations: 2164 
   27200    72.370889     2288         1553          735 1.5818007e-12 6.9301138e-14          0.1 0.0090255698    89.201084  0.029857366 
number of iterations: 2162 
   27300    72.605056     2323         1580          743 1.6027628e-12 7.0021865e-14          0.1 0.0090259113    90.414221  0.029856796 
number of iterations: 2134 
   27400    72.840939     2355         1604          751 1.6240027e-12 7.0750495e-14          0.1 0.0090262269    91.643475   0.02985627 
number of iterations: 2134 
   27500    73.102459     2387         1626          761 1.645524e-12 7.1487116e-14          0.1 0.0090265721    92.889063  0.029855695 
number of iterations: 2176 
   27600    73.345317     2409         1642          767 1.6673305e-12 7.2231811e-14          0.1 0.0090269484    94.151201  0.029855067 
number of iterations: 2208 
   27700    73.585612     2448         1667          781 1.689426e-12 7.2984671e-14          0.1 0.0090273173    95.430107  0.029854452 
number of iterations: 2138 
   27800    73.825307     2479         1688          791 1.7118144e-12 7.3745781e-14          0.1 0.0090276734    96.726005  0.029853859 
number of iterations: 2117 
   27900    74.099343     2513         1716          797 1.7344993e-12 7.4515231e-14          0.1  0.009028027    98.039121  0.029853269 
number of iterations: 2170 
   28000    74.346952     2545         1744          801 1.757485e-12 7.5293113e-14          0.1 0.0090284077    99.369682  0.029852635 
number of iterations: 2182 
   28100    74.583906     2576         1767          809 1.7807752e-12 7.6079516e-14          0.1 0.0090287553    100.71792  0.029852055 
number of iterations: 2155 
   28200    74.819698     2604         1788          816 1.804374e-12 7.6874533e-14          0.1 0.0090291267    102.08407  0.029851436 
number of iterations: 2153 
   28300    75.064582     2640         1812          828 1.8282856e-12 7.7678258e-14          0.1  0.009029504    103.46837  0.029850807 
number of iterations: 2177 
   28400    75.304654     2675         1838          837 1.8525141e-12 7.8490784e-14          0.1 0.0090299086    104.87106  0.029850133 
number of iterations: 2145 
   28500    75.564081     2706         1860          846 1.8770636e-12 7.9312208e-14          0.1  0.009030301    106.29239  0.029849479 
number of iterations: 2183 
   28600    75.797342     2744         1888          856 1.9019385e-12 8.0142624e-14          0.1 0.0090306932    107.73261  0.029848825 
number of iterations: 2186 
   28700    76.109443     2771         1908          863 1.927143e-12 8.098213e-14          0.1 0.0090310749    109.19195  0.029848189 
number of iterations: 2226 
   28800    76.382679     2809         1941          868 1.9526814e-12 8.1830827e-14          0.1  0.009031526    110.67069  0.029847437 
number of iterations: 2168 
   28900    76.628523     2830         1956          874 1.9774616e-12 8.2688813e-14          0.1 0.0090319099    112.16823  0.029846797 
number of iterations: 2217 
   29000     76.93788     2862         1979          883 2.0036669e-12 8.3556189e-14          0.1 0.0090323478    113.68566  0.029846067 
number of iterations: 2200 
   29100     77.18029     2894         2006          888 2.0291514e-12 8.4433055e-14          0.1 0.0090327545    115.22244  0.029845389 
number of iterations: 2178 
   29200    77.410873     2924         2025          899 2.0560417e-12 8.5319516e-14          0.1 0.0090332151    116.77963  0.029844621 
number of iterations: 2209 
   29300    77.660932     2965         2057          908 2.0832883e-12 8.6215674e-14          0.1 0.0090336626    118.35751  0.029843875 
number of iterations: 2228 
   29400    77.911391     2998         2076          922 2.110896e-12 8.7121637e-14          0.1 0.0090341267    119.95635  0.029843102 
number of iterations: 2197 
   29500     78.19525     3039         2108          931 2.1388696e-12 8.803751e-14          0.1 0.0090345852    121.57643  0.029842338 
number of iterations: 2210 
   29600    78.443929     3081         2134          947 2.1672138e-12  8.89634e-14          0.1 0.0090350354    123.21804  0.029841587 
number of iterations: 2204 
   29700    78.719365     3119         2162          957 2.1959337e-12 8.9899416e-14          0.1 0.0090355029    124.88145  0.029840808 
number of iterations: 2226 
   29800    79.050509     3160         2194          966 2.2250341e-12 9.0845668e-14          0.1 0.0090359849    126.56696  0.029840005 
number of iterations: 2237 
   29900    79.301052     3203         2222          981 2.2537058e-12 9.1802266e-14          0.1 0.0090364867    128.27424  0.029839168 
number of iterations: 2214 
   30000    79.539542     3235         2251          984 2.2835718e-12 9.2769321e-14          0.1 0.0090369586     130.0042  0.029838381 
number of iterations: 2231 
   30100    79.801571     3271         2279          992 2.3125189e-12 9.3746949e-14          0.1 0.0090374335    131.75613   0.02983759 
number of iterations: 2246 
   30200    80.041072     3313         2310         1003 2.3431643e-12 9.4735265e-14          0.1 0.0090379577    133.53134  0.029836716 
number of iterations: 2238 
   30300    80.339669     3343         2331         1012 2.3715775e-12 9.5734382e-14          0.1 0.0090384415    135.32811   0.02983591 
number of iterations: 2243 
   30400    80.591007     3388         2364         1024 2.4017975e-12 9.6744416e-14          0.1 0.0090388816    137.14782  0.029835176 
number of iterations: 2243 
   30500    80.858752     3429         2395         1034 2.433626e-12 9.7765487e-14          0.1 0.0090394362    138.99171  0.029834252 
number of iterations: 2224 
   30600    81.100276     3464         2423         1041 2.4658763e-12 9.8797714e-14          0.1 0.0090399365    140.86009  0.029833418 
number of iterations: 2203 
   30700    81.382416     3506         2452         1054 2.498554e-12 9.9841219e-14          0.1 0.0090404297    142.75329  0.029832596 
number of iterations: 2254 
   30800    81.628201     3560         2491         1069 2.5305262e-12 1.0089612e-13          0.1 0.0090409742    144.67078  0.029831688 
number of iterations: 2245 
   30900    81.873346     3609         2527         1082 2.5640606e-12 1.0196255e-13          0.1 0.0090415364    146.61373  0.029830751 
number of iterations: 2256 
   31000     82.22158     3645         2553         1092  2.59698e-12 1.0304063e-13          0.1 0.0090420546    148.58168  0.029829887 
number of iterations: 2207 
   31100    82.504373     3679         2576         1103 2.6299055e-12 1.0413048e-13          0.1 0.0090425534    150.57464  0.029829056 
number of iterations: 2265 
   31200    82.777701     3735         2618         1117 2.6647568e-12 1.0523223e-13          0.1 0.0090431393    152.59407  0.029828079 
number of iterations: 2259 
   31300    83.053157     3779         2648         1131  2.70007e-12 1.0634602e-13          0.1 0.0090437041    154.64033  0.029827138 
number of iterations: 2228 
   31400    83.336935     3824         2680         1144 2.7334194e-12 1.0747197e-13          0.1 0.0090442604    156.71191   0.02982621 
number of iterations: 2231 
   31500     83.60504     3881         2727         1154 2.7671744e-12 1.0861021e-13          0.1 0.0090448297    158.80912  0.029825261 
number of iterations: 2287 
   31600    83.866191     3921         2752         1169 2.8038447e-12 1.0976088e-13          0.1 0.0090454459    160.93418  0.029824234 
number of iterations: 2297 
   31700     84.12378     3970         2787         1183 2.8398525e-12 1.1092411e-13          0.1 0.0090460394    163.08659  0.029823245 
number of iterations: 2231 
   31800    84.399249     4014         2820         1194 2.8753209e-12 1.1210004e-13          0.1 0.0090465845    165.26594  0.029822336 
number of iterations: 2277 
   31900    84.689477     4070         2858         1212 2.9134244e-12 1.132888e-13          0.1 0.0090472341    167.47424  0.029821254 
number of iterations: 2259 
   32000    84.950904     4122         2896         1226 2.9506491e-12 1.1449054e-13          0.1 0.0090478581    169.71081  0.029820214 
number of iterations: 2258 
   32100    85.217371     4173         2937         1236 2.9897508e-12 1.157054e-13          0.1 0.0090484624     171.9771  0.029819207 
number of iterations: 2307 
   32200    85.476897     4240         2995         1245 3.0293707e-12 1.1693351e-13          0.1 0.0090491369    174.27349  0.029818082 
number of iterations: 2281 
   32300     85.77598     4293         3033         1260 3.0681567e-12 1.1817503e-13          0.1 0.0090498071    176.59934  0.029816965 
number of iterations: 2285 
   32400    86.027447     4339         3067         1272 3.1088156e-12 1.194301e-13          0.1 0.0090504478    178.95608  0.029815897 
number of iterations: 2325 
   32500    86.309382     4393         3109         1284 3.1487167e-12 1.2069886e-13          0.1 0.0090511317    181.34314  0.029814757 
number of iterations: 2299 
   32600    86.616713     4452         3150         1302 3.1904431e-12 1.2198146e-13          0.1 0.0090517849    183.76191  0.029813669 
number of iterations: 2305 
   32700    86.889495     4502         3190         1312 3.231659e-12 1.2327806e-13          0.1 0.0090524878      186.212  0.029812497 
number of iterations: 2264 
   32800    87.231476     4553         3222         1331 3.2732258e-12 1.2458881e-13          0.1 0.0090530876    188.69366  0.029811497 
number of iterations: 2290 
   32900    87.499532     4609         3269         1340 3.3158062e-12 1.2591385e-13          0.1 0.0090537496    191.20767  0.029810394 
number of iterations: 2292 
   33000    87.768815     4663         3315         1348 3.3561826e-12 1.2725335e-13          0.1 0.0090544525    193.75235  0.029809222 
number of iterations: 2291 
   33100    88.041071     4713         3355         1358 3.4006583e-12 1.2860745e-13          0.1 0.0090551228    196.33083  0.029808105 
number of iterations: 2316 
   33200    88.306779     4772         3399         1373 3.4457233e-12 1.2997633e-13          0.1 0.0090558153    198.94357  0.029806951 
number of iterations: 2318 
   33300    88.609612     4825         3438         1387 3.4913856e-12 1.3136014e-13          0.1 0.0090565608    201.59101  0.029805708 
number of iterations: 2347 
   33400    88.961485     4887         3485         1402 3.537653e-12 1.3275904e-13          0.1 0.0090573085    204.27361  0.029804462 
number of iterations: 2292 
   33500    89.235749     4948         3528         1420 3.5831594e-12 1.3417319e-13          0.1 0.0090580124     206.9908  0.029803289 
number of iterations: 2287 
   33600    89.488375     5007         3571         1436 3.6306429e-12 1.3560277e-13          0.1 0.0090587631    209.74408  0.029802037 
number of iterations: 2329 
   33700    89.765899     5085         3624         1461 3.6773834e-12 1.3704794e-13          0.1 0.0090594966    212.53288  0.029800815 
number of iterations: 2297 
   33800     90.03128     5149         3679         1470 3.7227272e-12 1.3850887e-13          0.1 0.0090601749    215.35613  0.029799684 
number of iterations: 2291 
   33900    90.308649     5223         3729         1494 3.7667179e-12 1.3998572e-13          0.1  0.009060885     218.2128  0.029798501 
number of iterations: 2353 
   34000    90.609656     5283         3774         1509 3.8154865e-12 1.4147868e-13          0.1 0.0090617239    221.10654  0.029797103 
number of iterations: 2328 
   34100    90.895322     5345         3822         1523 3.8652433e-12 1.4298792e-13          0.1 0.0090625403    224.03808  0.029795742 
number of iterations: 2335 
   34200     91.18116     5421         3878         1543 3.9164648e-12 1.4451362e-13          0.1 0.0090634035    227.00856  0.029794303 
number of iterations: 2349 
   34300    91.446922     5503         3939         1564 3.9670998e-12 1.4605595e-13          0.1 0.0090642269    230.01753  0.029792931 
number of iterations: 2345 
   34400    91.714761     5572         3989         1583 4.0196711e-12 1.476151e-13          0.1 0.0090650926    233.06647  0.029791488 
number of iterations: 2318 
   34500    92.023241     5639         4042         1597 4.0719248e-12 1.4919124e-13          0.1 0.0090658721    236.15513  0.029790189 
number of iterations: 2329 
   34600    92.314862     5698         4089         1609 4.1246157e-12 1.5078456e-13          0.1 0.0090666798    239.28385  0.029788842 
number of iterations: 2354 
   34700    92.619678     5756         4136         1620 4.178045e-12 1.5239525e-13          0.1 0.0090675296    242.45318  0.029787426 
number of iterations: 2356 
   34800    92.927009     5821         4181         1640 4.2334117e-12 1.540235e-13          0.1 0.0090684406     245.6646  0.029785908 
number of iterations: 2351 
   34900    93.224611     5886         4226         1660 4.2875066e-12 1.556695e-13          0.1 0.0090692952    248.91713  0.029784483 
number of iterations: 2319 
   35000    93.502201     5934         4259         1675 4.3395183e-12 1.5733343e-13          0.1 0.0090701811    252.20921  0.029783007 
Loop time of 93.5022 on 32 procs for 35000 steps with 5934 atoms

Performance: 323414716.125 tau/day, 374.323 timesteps/s
92.2% CPU use with 32 MPI tasks x no OpenMP threads

MPI task timing breakdown:
Section |  min time  |  avg time  |  max time  |%varavg| %total
---------------------------------------------------------------
Pair    | 0.0076069  | 0.086376   | 0.33402    |  20.1 |  0.09
Neigh   | 0.0041493  | 0.027528   | 0.08397    |   9.7 |  0.03
Comm    | 0.071656   | 0.16515    | 0.26935    |  13.6 |  0.18
Output  | 22.454     | 22.455     | 22.462     |   0.0 | 24.02
Modify  | 70.057     | 70.117     | 70.223     |   0.4 | 74.99
Other   |            | 0.6515     |            |       |  0.70

Nlocal:    185.438 ave 501 max 15 min
Histogram: 2 6 6 9 4 0 4 0 0 1
Nghost:    97.5312 ave 194 max 24 min
Histogram: 4 3 2 5 4 6 5 1 0 2
Neighs:    712.312 ave 2335 max 53 min
Histogram: 2 8 10 6 1 4 0 0 0 1

Total # of neighbors = 22794
Ave neighs/atom = 3.84125
Neighbor list builds = 685
Dangerous builds = 0
#shell cd ..
#clear
#next reps
#jump SELF
Total wall time: 0:01:33
