 NUFEB Simulation

     50 atoms 
     2 atom types 
     4 nutrients 

  0.0e-4   1.00e-04  xlo xhi 
  0.0e-4   1.00e-04  ylo yhi 
  0.0e-4   5.00e-05  zlo zhi 

 Atoms 

     1 1 1.72e-06  370 1.44e-05 6.95e-05 4.26e-05 1.72e-06 
     2 1 1.69e-06  370 2.56e-05 8.50e-05 8.07e-06 1.69e-06 
     3 1 1.64e-06  370 7.02e-06 5.47e-05 8.18e-06 1.64e-06 
     4 1 1.39e-06  370 1.63e-05 8.31e-05 1.87e-05 1.39e-06 
     5 1 1.84e-06  370 5.90e-05 8.31e-06 2.49e-05 1.84e-06 
     6 1 1.38e-06  370 6.92e-05 6.22e-05 8.67e-06 1.38e-06 
     7 1 1.69e-06  370 8.87e-05 5.42e-05 7.42e-06 1.69e-06 
     8 1 1.82e-06  370 6.93e-06 2.45e-05 4.03e-05 1.82e-06 
     9 1 1.45e-06  370 7.04e-05 8.82e-05 4.07e-05 1.45e-06 
     10 1 1.52e-06  370 2.43e-05 7.79e-05 9.02e-06 1.52e-06 
     11 1 1.39e-06  370 9.54e-05 4.88e-05 2.75e-06 1.39e-06 
     12 1 1.67e-06  370 4.08e-05 3.79e-06 2.37e-05 1.67e-06 
     13 1 1.57e-06  370 4.19e-05 6.80e-05 4.18e-05 1.57e-06 
     14 1 1.91e-06  370 3.54e-05 3.37e-05 2.18e-05 1.91e-06 
     15 1 1.75e-06  370 9.04e-05 9.64e-05 2.58e-05 1.75e-06 
     16 1 1.88e-06  370 4.93e-05 4.17e-05 2.88e-05 1.88e-06 
     17 1 1.92e-06  370 4.44e-05 6.99e-05 7.53e-06 1.92e-06 
     18 1 1.61e-06  370 8.86e-05 1.55e-05 1.94e-05 1.61e-06 
     19 1 1.88e-06  370 8.35e-05 5.98e-05 4.76e-05 1.88e-06 
     20 1 1.44e-06  370 8.03e-05 8.20e-05 1.57e-05 1.44e-06 
     21 1 1.51e-06  370 7.10e-05 6.46e-05 5.99e-06 1.51e-06 
     22 1 1.70e-06  370 3.17e-05 9.20e-05 6.74e-06 1.70e-06 
     23 1 1.61e-06  370 6.47e-06 2.79e-05 3.70e-06 1.61e-06 
     24 1 1.74e-06  370 2.09e-06 8.63e-05 4.15e-05 1.74e-06 
     25 1 1.91e-06  370 5.34e-06 3.07e-05 3.97e-05 1.91e-06 
     26 1 1.64e-06  370 8.60e-05 1.66e-05 1.32e-05 1.64e-06 
     27 1 1.40e-06  370 5.95e-05 6.35e-05 3.01e-05 1.40e-06 
     28 1 1.70e-06  370 8.08e-05 8.50e-05 1.12e-05 1.70e-06 
     29 1 1.91e-06  370 2.94e-05 7.07e-05 3.68e-05 1.91e-06 
     30 1 1.47e-06  370 4.65e-05 6.16e-05 8.61e-06 1.47e-06 
     31 1 1.67e-06  370 6.78e-05 6.53e-05 3.86e-06 1.67e-06 
     32 1 1.82e-06  370 6.99e-05 2.90e-05 2.56e-05 1.82e-06 
     33 1 1.52e-06  370 4.36e-05 8.67e-05 7.76e-06 1.52e-06 
     34 1 1.52e-06  370 1.79e-05 2.16e-05 1.19e-05 1.52e-06 
     35 1 1.64e-06  370 8.06e-05 6.01e-05 9.23e-06 1.64e-06 
     36 1 1.65e-06  370 1.50e-05 2.75e-05 2.60e-05 1.65e-06 
     37 1 1.74e-06  370 2.25e-05 8.09e-05 2.35e-05 1.74e-06 
     38 1 1.48e-06  370 2.49e-05 9.51e-05 1.32e-05 1.48e-06 
     39 1 1.52e-06  370 4.89e-06 3.44e-05 4.74e-06 1.52e-06 
     40 1 1.60e-06  370 5.91e-05 4.39e-05 1.65e-05 1.60e-06 
     41 1 1.91e-06  370 5.39e-05 2.51e-06 2.19e-05 1.91e-06 
     42 1 1.58e-06  370 6.96e-05 2.98e-05 8.48e-06 1.58e-06 
     43 1 1.82e-06  370 5.87e-05 2.06e-05 4.80e-05 1.82e-06 
     44 1 1.86e-06  370 1.38e-05 8.01e-05 4.77e-05 1.86e-06 
     45 1 1.50e-06  370 1.66e-05 4.26e-05 4.19e-05 1.50e-06 
     46 1 1.61e-06  370 5.07e-05 8.19e-05 4.74e-06 1.61e-06 
     47 1 1.61e-06  370 7.08e-06 9.12e-05 2.24e-05 1.61e-06 
     48 1 1.53e-06  370 6.76e-05 7.68e-05 1.99e-05 1.53e-06 
     49 1 1.78e-06  370 1.53e-05 5.35e-05 3.13e-05 1.78e-06 
     50 1 1.80e-06  370 7.88e-05 5.61e-05 7.33e-06 1.80e-06 

 Nutrients 

     1 sub g nn nn nn 1.00e-01 1.00e-01 
     2 o2 l nn nn nd 9.00e-03 9.00e-03 
     3 suc l nn nn nn 3.42e-20 3.42e-20 
     4 co2 l nn nn nd 2.99e-02 2.99e-02 

 Type Name 

     1 cyano  
     2 ecw  

 Diffusion Coeffs 

     sub 0 
     o2 2.3e-09 
     suc 5.2e-10 
     co2 1.9e-09 

 Growth Rate 

     cyano 2.047e-05 
     ecw 6.71e-05 

 Ks 

     cyano 0.00035 0.0002 0.01 0.000138 
     ecw 0 0.001 3.6 0.05 

 Yield 

     cyano 0.55 
     ecw 0.43 

 Maintenance 

     cyano 0 
     ecw 9.5e-07 

 Decay 

     cyano 0 
     ecw 0 



