ITEM: TIMESTEP
0
ITEM: NUMBER OF ATOMS
50
ITEM: BOX BOUNDS ff ff ff
0.0000000000000000e+00 1.0000000000000000e-04
0.0000000000000000e+00 1.0000000000000000e-04
0.0000000000000000e+00 5.0000000000000002e-05
ITEM: ATOMS id type diameter x y z 
23 1 1.61e-06 6.47e-06 2.79e-05 3.7e-06 
39 1 1.52e-06 4.89e-06 3.44e-05 4.74e-06 
34 1 1.52e-06 1.79e-05 2.16e-05 1.19e-05 
14 1 1.91e-06 3.54e-05 3.37e-05 2.18e-05 
12 1 1.67e-06 4.08e-05 3.79e-06 2.37e-05 
36 1 1.65e-06 1.5e-05 2.75e-05 2.6e-05 
16 1 1.88e-06 4.93e-05 4.17e-05 2.88e-05 
25 1 1.91e-06 5.34e-06 3.07e-05 3.97e-05 
8 1 1.82e-06 6.93e-06 2.45e-05 4.03e-05 
45 1 1.5e-06 1.66e-05 4.26e-05 4.19e-05 
22 1 1.7e-06 3.17e-05 9.2e-05 6.74e-06 
17 1 1.92e-06 4.44e-05 6.99e-05 7.53e-06 
33 1 1.52e-06 4.36e-05 8.67e-05 7.76e-06 
3 1 1.64e-06 7.02e-06 5.47e-05 8.18e-06 
2 1 1.69e-06 2.56e-05 8.5e-05 8.07e-06 
30 1 1.47e-06 4.65e-05 6.16e-05 8.61e-06 
10 1 1.52e-06 2.43e-05 7.79e-05 9.02e-06 
38 1 1.48e-06 2.49e-05 9.51e-05 1.32e-05 
4 1 1.39e-06 1.63e-05 8.31e-05 1.87e-05 
47 1 1.61e-06 7.08e-06 9.12e-05 2.24e-05 
37 1 1.74e-06 2.25e-05 8.09e-05 2.35e-05 
49 1 1.78e-06 1.53e-05 5.35e-05 3.13e-05 
29 1 1.91e-06 2.94e-05 7.07e-05 3.68e-05 
24 1 1.74e-06 2.09e-06 8.63e-05 4.15e-05 
13 1 1.57e-06 4.19e-05 6.8e-05 4.18e-05 
1 1 1.72e-06 1.44e-05 6.95e-05 4.26e-05 
44 1 1.86e-06 1.38e-05 8.01e-05 4.77e-05 
11 1 1.39e-06 9.54e-05 4.88e-05 2.75e-06 
42 1 1.58e-06 6.96e-05 2.98e-05 8.48e-06 
26 1 1.64e-06 8.6e-05 1.66e-05 1.32e-05 
40 1 1.6e-06 5.91e-05 4.39e-05 1.65e-05 
18 1 1.61e-06 8.86e-05 1.55e-05 1.94e-05 
41 1 1.91e-06 5.39e-05 2.51e-06 2.19e-05 
5 1 1.84e-06 5.9e-05 8.31e-06 2.49e-05 
32 1 1.82e-06 6.99e-05 2.9e-05 2.56e-05 
43 1 1.82e-06 5.87e-05 2.06e-05 4.8e-05 
31 1 1.67e-06 6.78e-05 6.53e-05 3.86e-06 
46 1 1.61e-06 5.07e-05 8.19e-05 4.74e-06 
21 1 1.51e-06 7.1e-05 6.46e-05 5.99e-06 
7 1 1.69e-06 8.87e-05 5.42e-05 7.42e-06 
50 1 1.8e-06 7.88e-05 5.61e-05 7.33e-06 
6 1 1.38e-06 6.92e-05 6.22e-05 8.67e-06 
35 1 1.64e-06 8.06e-05 6.01e-05 9.23e-06 
28 1 1.7e-06 8.08e-05 8.5e-05 1.12e-05 
20 1 1.44e-06 8.03e-05 8.2e-05 1.57e-05 
48 1 1.53e-06 6.76e-05 7.68e-05 1.99e-05 
15 1 1.75e-06 9.04e-05 9.64e-05 2.58e-05 
27 1 1.4e-06 5.95e-05 6.35e-05 3.01e-05 
9 1 1.45e-06 7.04e-05 8.82e-05 4.07e-05 
19 1 1.88e-06 8.35e-05 5.98e-05 4.76e-05 
ITEM: TIMESTEP
100
ITEM: NUMBER OF ATOMS
50
ITEM: BOX BOUNDS ff ff ff
0.0000000000000000e+00 1.0000000000000000e-04
0.0000000000000000e+00 1.0000000000000000e-04
0.0000000000000000e+00 5.0000000000000002e-05
ITEM: ATOMS id type diameter x y z 
23 1 1.62082e-06 6.47e-06 2.79e-05 3.7e-06 
39 1 1.53022e-06 4.89e-06 3.44e-05 4.74e-06 
34 1 1.53022e-06 1.79e-05 2.16e-05 1.19e-05 
14 1 1.92284e-06 3.54e-05 3.37e-05 2.18e-05 
12 1 1.68123e-06 4.08e-05 3.79e-06 2.37e-05 
36 1 1.66109e-06 1.5e-05 2.75e-05 2.6e-05 
16 1 1.89264e-06 4.93e-05 4.17e-05 2.88e-05 
25 1 1.92284e-06 5.34e-06 3.07e-05 3.97e-05 
8 1 1.83224e-06 6.93e-06 2.45e-05 4.03e-05 
45 1 1.51008e-06 1.66e-05 4.26e-05 4.19e-05 
22 1 1.71143e-06 3.17e-05 9.2e-05 6.74e-06 
17 1 1.93291e-06 4.44e-05 6.99e-05 7.53e-06 
33 1 1.53022e-06 4.36e-05 8.67e-05 7.76e-06 
3 1 1.65103e-06 7.02e-06 5.47e-05 8.18e-06 
2 1 1.70136e-06 2.56e-05 8.5e-05 8.07e-06 
30 1 1.47988e-06 4.65e-05 6.16e-05 8.61e-06 
10 1 1.53022e-06 2.43e-05 7.79e-05 9.02e-06 
38 1 1.48995e-06 2.49e-05 9.51e-05 1.32e-05 
4 1 1.39934e-06 1.63e-05 8.31e-05 1.87e-05 
47 1 1.62082e-06 7.08e-06 9.12e-05 2.24e-05 
37 1 1.7517e-06 2.25e-05 8.09e-05 2.35e-05 
49 1 1.79197e-06 1.53e-05 5.35e-05 3.13e-05 
29 1 1.92284e-06 2.94e-05 7.07e-05 3.68e-05 
24 1 1.7517e-06 2.09e-06 8.63e-05 4.15e-05 
13 1 1.58056e-06 4.19e-05 6.8e-05 4.18e-05 
1 1 1.73156e-06 1.44e-05 6.95e-05 4.26e-05 
44 1 1.8725e-06 1.38e-05 8.01e-05 4.77e-05 
11 1 1.39934e-06 9.54e-05 4.88e-05 2.75e-06 
42 1 1.59062e-06 6.96e-05 2.98e-05 8.48e-06 
26 1 1.65103e-06 8.6e-05 1.66e-05 1.32e-05 
40 1 1.61076e-06 5.91e-05 4.39e-05 1.65e-05 
18 1 1.62082e-06 8.86e-05 1.55e-05 1.94e-05 
41 1 1.92284e-06 5.39e-05 2.51e-06 2.19e-05 
5 1 1.85237e-06 5.9e-05 8.31e-06 2.49e-05 
32 1 1.83224e-06 6.99e-05 2.9e-05 2.56e-05 
43 1 1.83224e-06 5.87e-05 2.06e-05 4.8e-05 
31 1 1.68123e-06 6.78e-05 6.53e-05 3.86e-06 
46 1 1.62082e-06 5.07e-05 8.19e-05 4.74e-06 
21 1 1.52015e-06 7.1e-05 6.46e-05 5.99e-06 
7 1 1.70136e-06 8.87e-05 5.42e-05 7.42e-06 
50 1 1.8121e-06 7.88e-05 5.61e-05 7.33e-06 
6 1 1.38928e-06 6.92e-05 6.22e-05 8.67e-06 
35 1 1.65103e-06 8.06e-05 6.01e-05 9.23e-06 
28 1 1.71143e-06 8.08e-05 8.5e-05 1.12e-05 
20 1 1.44968e-06 8.03e-05 8.2e-05 1.57e-05 
48 1 1.54029e-06 6.76e-05 7.68e-05 1.99e-05 
15 1 1.76177e-06 9.04e-05 9.64e-05 2.58e-05 
27 1 1.40941e-06 5.95e-05 6.35e-05 3.01e-05 
9 1 1.45975e-06 7.04e-05 8.82e-05 4.07e-05 
19 1 1.89264e-06 8.35e-05 5.98e-05 4.76e-05 
ITEM: TIMESTEP
200
ITEM: NUMBER OF ATOMS
50
ITEM: BOX BOUNDS ff ff ff
0.0000000000000000e+00 1.0000000000000000e-04
0.0000000000000000e+00 1.0000000000000000e-04
0.0000000000000000e+00 5.0000000000000002e-05
ITEM: ATOMS id type diameter x y z 
23 1 1.63172e-06 6.47e-06 2.79e-05 3.7e-06 
39 1 1.54051e-06 4.89e-06 3.44e-05 4.74e-06 
34 1 1.54051e-06 1.79e-05 2.16e-05 1.19e-05 
14 1 1.93577e-06 3.54e-05 3.37e-05 2.18e-05 
12 1 1.69253e-06 4.08e-05 3.79e-06 2.37e-05 
36 1 1.67226e-06 1.5e-05 2.75e-05 2.6e-05 
16 1 1.90536e-06 4.93e-05 4.17e-05 2.88e-05 
25 1 1.93577e-06 5.34e-06 3.07e-05 3.97e-05 
8 1 1.84455e-06 6.93e-06 2.45e-05 4.03e-05 
45 1 1.52024e-06 1.66e-05 4.26e-05 4.19e-05 
22 1 1.72294e-06 3.17e-05 9.2e-05 6.74e-06 
17 1 1.9459e-06 4.44e-05 6.99e-05 7.53e-06 
33 1 1.54051e-06 4.36e-05 8.67e-05 7.76e-06 
3 1 1.66213e-06 7.02e-06 5.47e-05 8.18e-06 
2 1 1.7128e-06 2.56e-05 8.5e-05 8.07e-06 
30 1 1.48983e-06 4.65e-05 6.16e-05 8.61e-06 
10 1 1.54051e-06 2.43e-05 7.79e-05 9.02e-06 
38 1 1.49997e-06 2.49e-05 9.51e-05 1.32e-05 
4 1 1.40875e-06 1.63e-05 8.31e-05 1.87e-05 
47 1 1.63172e-06 7.08e-06 9.12e-05 2.24e-05 
37 1 1.76347e-06 2.25e-05 8.09e-05 2.35e-05 
49 1 1.80401e-06 1.53e-05 5.35e-05 3.13e-05 
29 1 1.93577e-06 2.94e-05 7.07e-05 3.68e-05 
24 1 1.76347e-06 2.09e-06 8.63e-05 4.15e-05 
13 1 1.59118e-06 4.19e-05 6.8e-05 4.18e-05 
1 1 1.7432e-06 1.44e-05 6.95e-05 4.26e-05 
44 1 1.88509e-06 1.38e-05 8.01e-05 4.77e-05 
11 1 1.40875e-06 9.54e-05 4.88e-05 2.75e-06 
42 1 1.60132e-06 6.96e-05 2.98e-05 8.48e-06 
26 1 1.66213e-06 8.6e-05 1.66e-05 1.32e-05 
40 1 1.62159e-06 5.91e-05 4.39e-05 1.65e-05 
18 1 1.63172e-06 8.86e-05 1.55e-05 1.94e-05 
41 1 1.93577e-06 5.39e-05 2.51e-06 2.19e-05 
5 1 1.86482e-06 5.9e-05 8.31e-06 2.49e-05 
32 1 1.84455e-06 6.99e-05 2.9e-05 2.56e-05 
43 1 1.84455e-06 5.87e-05 2.06e-05 4.8e-05 
31 1 1.69253e-06 6.78e-05 6.53e-05 3.86e-06 
46 1 1.63172e-06 5.07e-05 8.19e-05 4.74e-06 
21 1 1.53037e-06 7.1e-05 6.46e-05 5.99e-06 
7 1 1.7128e-06 8.87e-05 5.42e-05 7.42e-06 
50 1 1.82428e-06 7.88e-05 5.61e-05 7.33e-06 
6 1 1.39862e-06 6.92e-05 6.22e-05 8.67e-06 
35 1 1.66213e-06 8.06e-05 6.01e-05 9.23e-06 
28 1 1.72294e-06 8.08e-05 8.5e-05 1.12e-05 
20 1 1.45943e-06 8.03e-05 8.2e-05 1.57e-05 
48 1 1.55064e-06 6.76e-05 7.68e-05 1.99e-05 
15 1 1.77361e-06 9.04e-05 9.64e-05 2.58e-05 
27 1 1.41889e-06 5.95e-05 6.35e-05 3.01e-05 
9 1 1.46956e-06 7.04e-05 8.82e-05 4.07e-05 
19 1 1.90536e-06 8.35e-05 5.98e-05 4.76e-05 
ITEM: TIMESTEP
300
ITEM: NUMBER OF ATOMS
50
ITEM: BOX BOUNDS ff ff ff
0.0000000000000000e+00 1.0000000000000000e-04
0.0000000000000000e+00 1.0000000000000000e-04
0.0000000000000000e+00 5.0000000000000002e-05
ITEM: ATOMS id type diameter x y z 
23 1 1.64269e-06 6.47e-06 2.79e-05 3.7e-06 
39 1 1.55086e-06 4.89e-06 3.44e-05 4.74e-06 
34 1 1.55086e-06 1.79e-05 2.16e-05 1.19e-05 
14 1 1.94878e-06 3.54e-05 3.37e-05 2.18e-05 
12 1 1.70391e-06 4.08e-05 3.79e-06 2.37e-05 
36 1 1.6835e-06 1.5e-05 2.75e-05 2.6e-05 
16 1 1.91817e-06 4.93e-05 4.17e-05 2.88e-05 
25 1 1.94878e-06 5.34e-06 3.07e-05 3.97e-05 
8 1 1.85695e-06 6.93e-06 2.45e-05 4.03e-05 
45 1 1.53046e-06 1.66e-05 4.26e-05 4.19e-05 
22 1 1.73452e-06 3.17e-05 9.2e-05 6.74e-06 
17 1 1.95899e-06 4.44e-05 6.99e-05 7.53e-06 
33 1 1.55086e-06 4.36e-05 8.67e-05 7.76e-06 
3 1 1.6733e-06 7.02e-06 5.47e-05 8.18e-06 
2 1 1.72432e-06 2.56e-05 8.5e-05 8.07e-06 
30 1 1.49985e-06 4.65e-05 6.16e-05 8.61e-06 
10 1 1.55086e-06 2.43e-05 7.79e-05 9.02e-06 
38 1 1.51005e-06 2.49e-05 9.51e-05 1.32e-05 
4 1 1.41822e-06 1.63e-05 8.31e-05 1.87e-05 
47 1 1.64269e-06 7.08e-06 9.12e-05 2.24e-05 
37 1 1.77533e-06 2.25e-05 8.09e-05 2.35e-05 
49 1 1.81614e-06 1.53e-05 5.35e-05 3.13e-05 
29 1 1.94878e-06 2.94e-05 7.07e-05 3.68e-05 
24 1 1.77533e-06 2.09e-06 8.63e-05 4.15e-05 
13 1 1.60188e-06 4.19e-05 6.8e-05 4.18e-05 
1 1 1.75492e-06 1.44e-05 6.95e-05 4.26e-05 
44 1 1.89777e-06 1.38e-05 8.01e-05 4.77e-05 
11 1 1.41822e-06 9.54e-05 4.88e-05 2.75e-06 
42 1 1.61208e-06 6.96e-05 2.98e-05 8.48e-06 
26 1 1.6733e-06 8.6e-05 1.66e-05 1.32e-05 
40 1 1.63249e-06 5.91e-05 4.39e-05 1.65e-05 
18 1 1.64269e-06 8.86e-05 1.55e-05 1.94e-05 
41 1 1.94878e-06 5.39e-05 2.51e-06 2.19e-05 
5 1 1.87736e-06 5.9e-05 8.31e-06 2.49e-05 
32 1 1.85695e-06 6.99e-05 2.9e-05 2.56e-05 
43 1 1.85695e-06 5.87e-05 2.06e-05 4.8e-05 
31 1 1.70391e-06 6.78e-05 6.53e-05 3.86e-06 
46 1 1.64269e-06 5.07e-05 8.19e-05 4.74e-06 
21 1 1.54066e-06 7.1e-05 6.46e-05 5.99e-06 
7 1 1.72432e-06 8.87e-05 5.42e-05 7.42e-06 
50 1 1.83655e-06 7.88e-05 5.61e-05 7.33e-06 
6 1 1.40802e-06 6.92e-05 6.22e-05 8.67e-06 
35 1 1.6733e-06 8.06e-05 6.01e-05 9.23e-06 
28 1 1.73452e-06 8.08e-05 8.5e-05 1.12e-05 
20 1 1.46924e-06 8.03e-05 8.2e-05 1.57e-05 
48 1 1.56107e-06 6.76e-05 7.68e-05 1.99e-05 
15 1 1.78553e-06 9.04e-05 9.64e-05 2.58e-05 
27 1 1.42843e-06 5.95e-05 6.35e-05 3.01e-05 
9 1 1.47944e-06 7.04e-05 8.82e-05 4.07e-05 
19 1 1.91817e-06 8.35e-05 5.98e-05 4.76e-05 
ITEM: TIMESTEP
400
ITEM: NUMBER OF ATOMS
50
ITEM: BOX BOUNDS ff ff ff
0.0000000000000000e+00 1.0000000000000000e-04
0.0000000000000000e+00 1.0000000000000000e-04
0.0000000000000000e+00 5.0000000000000002e-05
ITEM: ATOMS id type diameter x y z 
23 1 1.65373e-06 6.47e-06 2.79e-05 3.7e-06 
39 1 1.56129e-06 4.89e-06 3.44e-05 4.74e-06 
34 1 1.56129e-06 1.79e-05 2.16e-05 1.19e-05 
14 1 1.96188e-06 3.54e-05 3.37e-05 2.18e-05 
12 1 1.71536e-06 4.08e-05 3.79e-06 2.37e-05 
36 1 1.69482e-06 1.5e-05 2.75e-05 2.6e-05 
16 1 1.93107e-06 4.93e-05 4.17e-05 2.88e-05 
25 1 1.96188e-06 5.34e-06 3.07e-05 3.97e-05 
8 1 1.86944e-06 6.93e-06 2.45e-05 4.03e-05 
45 1 1.54075e-06 1.66e-05 4.26e-05 4.19e-05 
22 1 1.74618e-06 3.17e-05 9.2e-05 6.74e-06 
17 1 1.97216e-06 4.44e-05 6.99e-05 7.53e-06 
33 1 1.56129e-06 4.36e-05 8.67e-05 7.76e-06 
3 1 1.68455e-06 7.02e-06 5.47e-05 8.18e-06 
2 1 1.73591e-06 2.56e-05 8.5e-05 8.07e-06 
30 1 1.50993e-06 4.65e-05 6.16e-05 8.61e-06 
10 1 1.56129e-06 2.43e-05 7.79e-05 9.02e-06 
38 1 1.5202e-06 2.49e-05 9.51e-05 1.32e-05 
4 1 1.42776e-06 1.63e-05 8.31e-05 1.87e-05 
47 1 1.65373e-06 7.08e-06 9.12e-05 2.24e-05 
37 1 1.78727e-06 2.25e-05 8.09e-05 2.35e-05 
49 1 1.82835e-06 1.53e-05 5.35e-05 3.13e-05 
29 1 1.96188e-06 2.94e-05 7.07e-05 3.68e-05 
24 1 1.78727e-06 2.09e-06 8.63e-05 4.15e-05 
13 1 1.61265e-06 4.19e-05 6.8e-05 4.18e-05 
1 1 1.76672e-06 1.44e-05 6.95e-05 4.26e-05 
44 1 1.91053e-06 1.38e-05 8.01e-05 4.77e-05 
11 1 1.42776e-06 9.54e-05 4.88e-05 2.75e-06 
42 1 1.62292e-06 6.96e-05 2.98e-05 8.48e-06 
26 1 1.68455e-06 8.6e-05 1.66e-05 1.32e-05 
40 1 1.64346e-06 5.91e-05 4.39e-05 1.65e-05 
18 1 1.65373e-06 8.86e-05 1.55e-05 1.94e-05 
41 1 1.96188e-06 5.39e-05 2.51e-06 2.19e-05 
5 1 1.88998e-06 5.9e-05 8.31e-06 2.49e-05 
32 1 1.86944e-06 6.99e-05 2.9e-05 2.56e-05 
43 1 1.86944e-06 5.87e-05 2.06e-05 4.8e-05 
31 1 1.71536e-06 6.78e-05 6.53e-05 3.86e-06 
46 1 1.65373e-06 5.07e-05 8.19e-05 4.74e-06 
21 1 1.55102e-06 7.1e-05 6.46e-05 5.99e-06 
7 1 1.73591e-06 8.87e-05 5.42e-05 7.42e-06 
50 1 1.8489e-06 7.88e-05 5.61e-05 7.33e-06 
6 1 1.41749e-06 6.92e-05 6.22e-05 8.67e-06 
35 1 1.68455e-06 8.06e-05 6.01e-05 9.23e-06 
28 1 1.74618e-06 8.08e-05 8.5e-05 1.12e-05 
20 1 1.47912e-06 8.03e-05 8.2e-05 1.57e-05 
48 1 1.57156e-06 6.76e-05 7.68e-05 1.99e-05 
15 1 1.79754e-06 9.04e-05 9.64e-05 2.58e-05 
27 1 1.43803e-06 5.95e-05 6.35e-05 3.01e-05 
9 1 1.48939e-06 7.04e-05 8.82e-05 4.07e-05 
19 1 1.93107e-06 8.35e-05 5.98e-05 4.76e-05 
ITEM: TIMESTEP
500
ITEM: NUMBER OF ATOMS
55
ITEM: BOX BOUNDS ff ff ff
0.0000000000000000e+00 1.0000000000000000e-04
0.0000000000000000e+00 1.0000000000000000e-04
0.0000000000000000e+00 5.0000000000000002e-05
ITEM: ATOMS id type diameter x y z 
23 1 1.66485e-06 6.47e-06 2.79e-05 3.7e-06 
39 1 1.57179e-06 4.89e-06 3.44e-05 4.74e-06 
34 1 1.57179e-06 1.79e-05 2.16e-05 1.19e-05 
14 1 1.55845e-06 3.47435e-05 3.38151e-05 2.2201e-05 
12 1 1.7269e-06 4.08e-05 3.79e-06 2.37e-05 
36 1 1.70622e-06 1.5e-05 2.75e-05 2.6e-05 
16 1 1.94405e-06 4.93e-05 4.17e-05 2.88e-05 
25 1 1.6332e-06 6.09704e-06 3.09828e-05 3.9807e-05 
8 1 1.88201e-06 6.93e-06 2.45e-05 4.03e-05 
45 1 1.55111e-06 1.66e-05 4.26e-05 4.19e-05 
51 1 1.57668e-06 3.60642e-05 3.35836e-05 2.13943e-05 
52 1 1.49603e-06 4.64655e-06 3.04409e-05 3.9602e-05 
22 1 1.75792e-06 3.17e-05 9.2e-05 6.74e-06 
17 1 1.56661e-06 4.374e-05 7.00157e-05 7.93313e-06 
33 1 1.57179e-06 4.36e-05 8.67e-05 7.76e-06 
3 1 1.69587e-06 7.02e-06 5.47e-05 8.18e-06 
2 1 1.74758e-06 2.56e-05 8.5e-05 8.07e-06 
30 1 1.52008e-06 4.65e-05 6.16e-05 8.61e-06 
10 1 1.57179e-06 2.43e-05 7.79e-05 9.02e-06 
38 1 1.53042e-06 2.49e-05 9.51e-05 1.32e-05 
4 1 1.43736e-06 1.63e-05 8.31e-05 1.87e-05 
53 1 1.58494e-06 4.50677e-05 6.9783e-05 7.12215e-06 
47 1 1.66485e-06 7.08e-06 9.12e-05 2.24e-05 
37 1 1.79928e-06 2.25e-05 8.09e-05 2.35e-05 
49 1 1.84064e-06 1.53e-05 5.35e-05 3.13e-05 
29 1 1.55845e-06 2.87435e-05 7.08151e-05 3.7201e-05 
24 1 1.79928e-06 2.09e-06 8.63e-05 4.15e-05 
13 1 1.62349e-06 4.19e-05 6.8e-05 4.18e-05 
1 1 1.7786e-06 1.44e-05 6.95e-05 4.26e-05 
44 1 1.92337e-06 1.38e-05 8.01e-05 4.77e-05 
54 1 1.57668e-06 3.00642e-05 7.05836e-05 3.63943e-05 
11 1 1.43736e-06 9.54e-05 4.88e-05 2.75e-06 
42 1 1.63383e-06 6.96e-05 2.98e-05 8.48e-06 
26 1 1.69587e-06 8.6e-05 1.66e-05 1.32e-05 
40 1 1.65451e-06 5.91e-05 4.39e-05 1.65e-05 
18 1 1.66485e-06 8.86e-05 1.55e-05 1.94e-05 
41 1 1.55845e-06 5.32435e-05 2.62508e-06 2.2301e-05 
5 1 1.90269e-06 5.9e-05 8.31e-06 2.49e-05 
32 1 1.88201e-06 6.99e-05 2.9e-05 2.56e-05 
43 1 1.88201e-06 5.87e-05 2.06e-05 4.8e-05 
55 1 1.57668e-06 5.45642e-05 2.39357e-06 2.14943e-05 
31 1 1.7269e-06 6.78e-05 6.53e-05 3.86e-06 
46 1 1.66485e-06 5.07e-05 8.19e-05 4.74e-06 
21 1 1.56145e-06 7.1e-05 6.46e-05 5.99e-06 
7 1 1.74758e-06 8.87e-05 5.42e-05 7.42e-06 
50 1 1.86133e-06 7.88e-05 5.61e-05 7.33e-06 
6 1 1.42702e-06 6.92e-05 6.22e-05 8.67e-06 
35 1 1.69587e-06 8.06e-05 6.01e-05 9.23e-06 
28 1 1.75792e-06 8.08e-05 8.5e-05 1.12e-05 
20 1 1.48906e-06 8.03e-05 8.2e-05 1.57e-05 
48 1 1.58213e-06 6.76e-05 7.68e-05 1.99e-05 
15 1 1.80962e-06 9.04e-05 9.64e-05 2.58e-05 
27 1 1.4477e-06 5.95e-05 6.35e-05 3.01e-05 
9 1 1.4994e-06 7.04e-05 8.82e-05 4.07e-05 
19 1 1.94405e-06 8.35e-05 5.98e-05 4.76e-05 
ITEM: TIMESTEP
600
ITEM: NUMBER OF ATOMS
55
ITEM: BOX BOUNDS ff ff ff
0.0000000000000000e+00 1.0000000000000000e-04
0.0000000000000000e+00 1.0000000000000000e-04
0.0000000000000000e+00 5.0000000000000002e-05
ITEM: ATOMS id type diameter x y z 
23 1 1.67605e-06 6.47e-06 2.79e-05 3.7e-06 
39 1 1.58235e-06 4.89e-06 3.44e-05 4.74e-06 
34 1 1.58235e-06 1.79e-05 2.16e-05 1.19e-05 
14 1 1.56892e-06 3.47435e-05 3.38151e-05 2.2201e-05 
12 1 1.73851e-06 4.08e-05 3.79e-06 2.37e-05 
36 1 1.71769e-06 1.5e-05 2.75e-05 2.6e-05 
16 1 1.95712e-06 4.93e-05 4.17e-05 2.88e-05 
25 1 1.64418e-06 6.09704e-06 3.09828e-05 3.9807e-05 
8 1 1.89466e-06 6.93e-06 2.45e-05 4.03e-05 
45 1 1.56153e-06 1.66e-05 4.26e-05 4.19e-05 
51 1 1.58728e-06 3.60642e-05 3.35836e-05 2.13943e-05 
52 1 1.50609e-06 4.64655e-06 3.04409e-05 3.9602e-05 
22 1 1.76974e-06 3.17e-05 9.2e-05 6.74e-06 
17 1 1.57714e-06 4.374e-05 7.00157e-05 7.93313e-06 
33 1 1.58235e-06 4.36e-05 8.67e-05 7.76e-06 
3 1 1.70728e-06 7.02e-06 5.47e-05 8.18e-06 
2 1 1.75933e-06 2.56e-05 8.5e-05 8.07e-06 
30 1 1.5303e-06 4.65e-05 6.16e-05 8.61e-06 
10 1 1.58235e-06 2.43e-05 7.79e-05 9.02e-06 
38 1 1.54071e-06 2.49e-05 9.51e-05 1.32e-05 
4 1 1.44702e-06 1.63e-05 8.31e-05 1.87e-05 
53 1 1.59559e-06 4.50677e-05 6.9783e-05 7.12215e-06 
47 1 1.67605e-06 7.08e-06 9.12e-05 2.24e-05 
37 1 1.81138e-06 2.25e-05 8.09e-05 2.35e-05 
49 1 1.85302e-06 1.53e-05 5.35e-05 3.13e-05 
29 1 1.56892e-06 2.87435e-05 7.08151e-05 3.7201e-05 
24 1 1.81138e-06 2.09e-06 8.63e-05 4.15e-05 
13 1 1.6344e-06 4.19e-05 6.8e-05 4.18e-05 
1 1 1.79056e-06 1.44e-05 6.95e-05 4.26e-05 
44 1 1.9363e-06 1.38e-05 8.01e-05 4.77e-05 
54 1 1.58728e-06 3.00642e-05 7.05836e-05 3.63943e-05 
11 1 1.44702e-06 9.54e-05 4.88e-05 2.75e-06 
42 1 1.64481e-06 6.96e-05 2.98e-05 8.48e-06 
26 1 1.70728e-06 8.6e-05 1.66e-05 1.32e-05 
40 1 1.66564e-06 5.91e-05 4.39e-05 1.65e-05 
18 1 1.67605e-06 8.86e-05 1.55e-05 1.94e-05 
41 1 1.56892e-06 5.32435e-05 2.62508e-06 2.2301e-05 
5 1 1.91548e-06 5.9e-05 8.31e-06 2.49e-05 
32 1 1.89466e-06 6.99e-05 2.9e-05 2.56e-05 
43 1 1.89466e-06 5.87e-05 2.06e-05 4.8e-05 
55 1 1.58728e-06 5.45642e-05 2.39357e-06 2.14943e-05 
31 1 1.73851e-06 6.78e-05 6.53e-05 3.86e-06 
46 1 1.67605e-06 5.07e-05 8.19e-05 4.74e-06 
21 1 1.57194e-06 7.1e-05 6.46e-05 5.99e-06 
7 1 1.75933e-06 8.87e-05 5.42e-05 7.42e-06 
50 1 1.87384e-06 7.88e-05 5.61e-05 7.33e-06 
6 1 1.43661e-06 6.92e-05 6.22e-05 8.67e-06 
35 1 1.70728e-06 8.06e-05 6.01e-05 9.23e-06 
28 1 1.76974e-06 8.08e-05 8.5e-05 1.12e-05 
20 1 1.49907e-06 8.03e-05 8.2e-05 1.57e-05 
48 1 1.59276e-06 6.76e-05 7.68e-05 1.99e-05 
15 1 1.82179e-06 9.04e-05 9.64e-05 2.58e-05 
27 1 1.45743e-06 5.95e-05 6.35e-05 3.01e-05 
9 1 1.50948e-06 7.04e-05 8.82e-05 4.07e-05 
19 1 1.95712e-06 8.35e-05 5.98e-05 4.76e-05 
ITEM: TIMESTEP
700
ITEM: NUMBER OF ATOMS
55
ITEM: BOX BOUNDS ff ff ff
0.0000000000000000e+00 1.0000000000000000e-04
0.0000000000000000e+00 1.0000000000000000e-04
0.0000000000000000e+00 5.0000000000000002e-05
ITEM: ATOMS id type diameter x y z 
23 1 1.68731e-06 6.47e-06 2.79e-05 3.7e-06 
39 1 1.59299e-06 4.89e-06 3.44e-05 4.74e-06 
34 1 1.59299e-06 1.79e-05 2.16e-05 1.19e-05 
14 1 1.57947e-06 3.47435e-05 3.38151e-05 2.2201e-05 
12 1 1.75019e-06 4.08e-05 3.79e-06 2.37e-05 
36 1 1.72923e-06 1.5e-05 2.75e-05 2.6e-05 
16 1 1.97028e-06 4.93e-05 4.17e-05 2.88e-05 
25 1 1.65524e-06 6.09704e-06 3.09828e-05 3.9807e-05 
8 1 1.9074e-06 6.93e-06 2.45e-05 4.03e-05 
45 1 1.57203e-06 1.66e-05 4.26e-05 4.19e-05 
51 1 1.59795e-06 3.60642e-05 3.35836e-05 2.13943e-05 
52 1 1.51621e-06 4.64655e-06 3.04409e-05 3.9602e-05 
22 1 1.78164e-06 3.17e-05 9.2e-05 6.74e-06 
17 1 1.58774e-06 4.374e-05 7.00157e-05 7.93313e-06 
33 1 1.59299e-06 4.36e-05 8.67e-05 7.76e-06 
3 1 1.71875e-06 7.02e-06 5.47e-05 8.18e-06 
2 1 1.77116e-06 2.56e-05 8.5e-05 8.07e-06 
30 1 1.54059e-06 4.65e-05 6.16e-05 8.61e-06 
10 1 1.59299e-06 2.43e-05 7.79e-05 9.02e-06 
38 1 1.55107e-06 2.49e-05 9.51e-05 1.32e-05 
4 1 1.45675e-06 1.63e-05 8.31e-05 1.87e-05 
53 1 1.60632e-06 4.50677e-05 6.9783e-05 7.12215e-06 
47 1 1.68731e-06 7.08e-06 9.12e-05 2.24e-05 
37 1 1.82356e-06 2.25e-05 8.09e-05 2.35e-05 
49 1 1.86548e-06 1.53e-05 5.35e-05 3.13e-05 
29 1 1.57947e-06 2.87435e-05 7.08151e-05 3.7201e-05 
24 1 1.82356e-06 2.09e-06 8.63e-05 4.15e-05 
13 1 1.64539e-06 4.19e-05 6.8e-05 4.18e-05 
1 1 1.8026e-06 1.44e-05 6.95e-05 4.26e-05 
44 1 1.94932e-06 1.38e-05 8.01e-05 4.77e-05 
54 1 1.59795e-06 3.00642e-05 7.05836e-05 3.63943e-05 
11 1 1.45675e-06 9.54e-05 4.88e-05 2.75e-06 
42 1 1.65587e-06 6.96e-05 2.98e-05 8.48e-06 
26 1 1.71875e-06 8.6e-05 1.66e-05 1.32e-05 
40 1 1.67683e-06 5.91e-05 4.39e-05 1.65e-05 
18 1 1.68731e-06 8.86e-05 1.55e-05 1.94e-05 
41 1 1.57947e-06 5.32435e-05 2.62508e-06 2.2301e-05 
5 1 1.92836e-06 5.9e-05 8.31e-06 2.49e-05 
32 1 1.9074e-06 6.99e-05 2.9e-05 2.56e-05 
43 1 1.9074e-06 5.87e-05 2.06e-05 4.8e-05 
55 1 1.59795e-06 5.45642e-05 2.39357e-06 2.14943e-05 
31 1 1.75019e-06 6.78e-05 6.53e-05 3.86e-06 
46 1 1.68731e-06 5.07e-05 8.19e-05 4.74e-06 
21 1 1.58251e-06 7.1e-05 6.46e-05 5.99e-06 
7 1 1.77116e-06 8.87e-05 5.42e-05 7.42e-06 
50 1 1.88644e-06 7.88e-05 5.61e-05 7.33e-06 
6 1 1.44627e-06 6.92e-05 6.22e-05 8.67e-06 
35 1 1.71875e-06 8.06e-05 6.01e-05 9.23e-06 
28 1 1.78164e-06 8.08e-05 8.5e-05 1.12e-05 
20 1 1.50915e-06 8.03e-05 8.2e-05 1.57e-05 
48 1 1.60347e-06 6.76e-05 7.68e-05 1.99e-05 
15 1 1.83404e-06 9.04e-05 9.64e-05 2.58e-05 
27 1 1.46723e-06 5.95e-05 6.35e-05 3.01e-05 
9 1 1.51963e-06 7.04e-05 8.82e-05 4.07e-05 
19 1 1.97028e-06 8.35e-05 5.98e-05 4.76e-05 
ITEM: TIMESTEP
800
ITEM: NUMBER OF ATOMS
57
ITEM: BOX BOUNDS ff ff ff
0.0000000000000000e+00 1.0000000000000000e-04
0.0000000000000000e+00 1.0000000000000000e-04
0.0000000000000000e+00 5.0000000000000002e-05
ITEM: ATOMS id type diameter x y z 
23 1 1.69866e-06 6.47e-06 2.79e-05 3.7e-06 
39 1 1.6037e-06 4.89e-06 3.44e-05 4.74e-06 
34 1 1.6037e-06 1.79e-05 2.16e-05 1.19e-05 
14 1 1.59009e-06 3.47266e-05 3.3818e-05 2.22113e-05 
12 1 1.76196e-06 4.08e-05 3.79e-06 2.37e-05 
36 1 1.74086e-06 1.5e-05 2.75e-05 2.6e-05 
16 1 1.55121e-06 4.97119e-05 4.1395e-05 2.93804e-05 
25 1 1.66637e-06 6.11561e-06 3.09898e-05 3.98096e-05 
8 1 1.92022e-06 6.93e-06 2.45e-05 4.03e-05 
45 1 1.5826e-06 1.66e-05 4.26e-05 4.19e-05 
51 1 1.60869e-06 3.60811e-05 3.35806e-05 2.1384e-05 
52 1 1.52641e-06 4.62797e-06 3.0434e-05 3.95994e-05 
56 1 1.59678e-06 4.8876e-05 4.20139e-05 2.82026e-05 
22 1 1.79361e-06 3.17e-05 9.2e-05 6.74e-06 
17 1 1.59842e-06 4.37231e-05 7.00186e-05 7.94344e-06 
33 1 1.6037e-06 4.36e-05 8.67e-05 7.76e-06 
3 1 1.73031e-06 7.02e-06 5.47e-05 8.18e-06 
2 1 1.78306e-06 2.56e-05 8.5e-05 8.07e-06 
30 1 1.55095e-06 4.65e-05 6.16e-05 8.61e-06 
10 1 1.6037e-06 2.43e-05 7.79e-05 9.02e-06 
38 1 1.5615e-06 2.49e-05 9.51e-05 1.32e-05 
4 1 1.46654e-06 1.63e-05 8.31e-05 1.87e-05 
53 1 1.61712e-06 4.50846e-05 6.978e-05 7.11184e-06 
47 1 1.69866e-06 7.08e-06 9.12e-05 2.24e-05 
37 1 1.83582e-06 2.25e-05 8.09e-05 2.35e-05 
49 1 1.87802e-06 1.53e-05 5.35e-05 3.13e-05 
29 1 1.59009e-06 2.87266e-05 7.0818e-05 3.72113e-05 
24 1 1.83582e-06 2.09e-06 8.63e-05 4.15e-05 
13 1 1.65645e-06 4.19e-05 6.8e-05 4.18e-05 
1 1 1.81471e-06 1.44e-05 6.95e-05 4.26e-05 
44 1 1.96242e-06 1.38e-05 8.01e-05 4.77e-05 
54 1 1.60869e-06 3.00811e-05 7.05806e-05 3.6384e-05 
11 1 1.46654e-06 9.54e-05 4.88e-05 2.75e-06 
42 1 1.66701e-06 6.96e-05 2.98e-05 8.48e-06 
26 1 1.73031e-06 8.6e-05 1.66e-05 1.32e-05 
40 1 1.68811e-06 5.91e-05 4.39e-05 1.65e-05 
18 1 1.69866e-06 8.86e-05 1.55e-05 1.94e-05 
41 1 1.59009e-06 5.32266e-05 2.62804e-06 2.23113e-05 
5 1 1.94132e-06 5.9e-05 8.31e-06 2.49e-05 
32 1 1.92022e-06 6.99e-05 2.9e-05 2.56e-05 
43 1 1.92022e-06 5.87e-05 2.06e-05 4.8e-05 
55 1 1.60869e-06 5.45811e-05 2.39061e-06 2.1484e-05 
31 1 1.76196e-06 6.78e-05 6.53e-05 3.86e-06 
46 1 1.69866e-06 5.07e-05 8.19e-05 4.74e-06 
21 1 1.59315e-06 7.1e-05 6.46e-05 5.99e-06 
7 1 1.78306e-06 8.87e-05 5.42e-05 7.42e-06 
50 1 1.89912e-06 7.88e-05 5.61e-05 7.33e-06 
6 1 1.45599e-06 6.92e-05 6.22e-05 8.67e-06 
35 1 1.73031e-06 8.06e-05 6.01e-05 9.23e-06 
28 1 1.79361e-06 8.08e-05 8.5e-05 1.12e-05 
20 1 1.5193e-06 8.03e-05 8.2e-05 1.57e-05 
48 1 1.61425e-06 6.76e-05 7.68e-05 1.99e-05 
15 1 1.84637e-06 9.04e-05 9.64e-05 2.58e-05 
27 1 1.47709e-06 5.95e-05 6.35e-05 3.01e-05 
9 1 1.52985e-06 7.04e-05 8.82e-05 4.07e-05 
19 1 1.56512e-06 8.28407e-05 5.99156e-05 4.80027e-05 
57 1 1.58343e-06 8.41671e-05 5.96831e-05 4.71925e-05 
ITEM: TIMESTEP
900
ITEM: NUMBER OF ATOMS
58
ITEM: BOX BOUNDS ff ff ff
0.0000000000000000e+00 1.0000000000000000e-04
0.0000000000000000e+00 1.0000000000000000e-04
0.0000000000000000e+00 5.0000000000000002e-05
ITEM: ATOMS id type diameter x y z 
23 1 1.71008e-06 6.47e-06 2.79e-05 3.7e-06 
39 1 1.61448e-06 4.89e-06 3.44e-05 4.74e-06 
34 1 1.61448e-06 1.79e-05 2.16e-05 1.19e-05 
14 1 1.60078e-06 3.47266e-05 3.3818e-05 2.22113e-05 
12 1 1.77381e-06 4.08e-05 3.79e-06 2.37e-05 
36 1 1.75256e-06 1.5e-05 2.75e-05 2.6e-05 
16 1 1.56164e-06 4.97119e-05 4.1395e-05 2.93804e-05 
25 1 1.67757e-06 6.11561e-06 3.09898e-05 3.98096e-05 
8 1 1.93313e-06 6.93e-06 2.45e-05 4.03e-05 
45 1 1.59324e-06 1.66e-05 4.26e-05 4.19e-05 
51 1 1.61951e-06 3.60811e-05 3.35806e-05 2.1384e-05 
52 1 1.53667e-06 4.62797e-06 3.0434e-05 3.95994e-05 
56 1 1.60751e-06 4.8876e-05 4.20139e-05 2.82026e-05 
22 1 1.80567e-06 3.17e-05 9.2e-05 6.74e-06 
17 1 1.60916e-06 4.37231e-05 7.00186e-05 7.94344e-06 
33 1 1.61448e-06 4.36e-05 8.67e-05 7.76e-06 
3 1 1.74194e-06 7.02e-06 5.47e-05 8.18e-06 
2 1 1.79505e-06 2.56e-05 8.5e-05 8.07e-06 
30 1 1.56138e-06 4.65e-05 6.16e-05 8.61e-06 
10 1 1.61448e-06 2.43e-05 7.79e-05 9.02e-06 
38 1 1.572e-06 2.49e-05 9.51e-05 1.32e-05 
4 1 1.4764e-06 1.63e-05 8.31e-05 1.87e-05 
53 1 1.62799e-06 4.50846e-05 6.978e-05 7.11184e-06 
47 1 1.71008e-06 7.08e-06 9.12e-05 2.24e-05 
37 1 1.84816e-06 2.25e-05 8.09e-05 2.35e-05 
49 1 1.89064e-06 1.53e-05 5.35e-05 3.13e-05 
29 1 1.60078e-06 2.87266e-05 7.0818e-05 3.72113e-05 
24 1 1.84816e-06 2.09e-06 8.63e-05 4.15e-05 
13 1 1.66759e-06 4.19e-05 6.8e-05 4.18e-05 
1 1 1.82692e-06 1.44e-05 6.95e-05 4.26e-05 
44 1 1.63365e-06 1.45572e-05 8.03829e-05 4.7807e-05 
54 1 1.61951e-06 3.00811e-05 7.05806e-05 3.6384e-05 
58 1 1.49644e-06 1.31064e-05 7.98408e-05 4.7602e-05 
11 1 1.4764e-06 9.54e-05 4.88e-05 2.75e-06 
42 1 1.67821e-06 6.96e-05 2.98e-05 8.48e-06 
26 1 1.74194e-06 8.6e-05 1.66e-05 1.32e-05 
40 1 1.69946e-06 5.91e-05 4.39e-05 1.65e-05 
18 1 1.71008e-06 8.86e-05 1.55e-05 1.94e-05 
41 1 1.60078e-06 5.32266e-05 2.62804e-06 2.23113e-05 
5 1 1.95437e-06 5.9e-05 8.31e-06 2.49e-05 
32 1 1.93313e-06 6.99e-05 2.9e-05 2.56e-05 
43 1 1.93313e-06 5.87e-05 2.06e-05 4.8e-05 
55 1 1.61951e-06 5.45811e-05 2.39061e-06 2.1484e-05 
31 1 1.77381e-06 6.78e-05 6.53e-05 3.86e-06 
46 1 1.71008e-06 5.07e-05 8.19e-05 4.74e-06 
21 1 1.60386e-06 7.1e-05 6.46e-05 5.99e-06 
7 1 1.79505e-06 8.87e-05 5.42e-05 7.42e-06 
50 1 1.91189e-06 7.88e-05 5.61e-05 7.33e-06 
6 1 1.46578e-06 6.92e-05 6.22e-05 8.67e-06 
35 1 1.74194e-06 8.06e-05 6.01e-05 9.23e-06 
28 1 1.80567e-06 8.08e-05 8.5e-05 1.12e-05 
20 1 1.52951e-06 8.03e-05 8.2e-05 1.57e-05 
48 1 1.6251e-06 6.76e-05 7.68e-05 1.99e-05 
15 1 1.85878e-06 9.04e-05 9.64e-05 2.58e-05 
27 1 1.48702e-06 5.95e-05 6.35e-05 3.01e-05 
9 1 1.54013e-06 7.04e-05 8.82e-05 4.07e-05 
19 1 1.57564e-06 8.28407e-05 5.99156e-05 4.80027e-05 
57 1 1.59407e-06 8.41671e-05 5.96831e-05 4.71925e-05 
ITEM: TIMESTEP
1000
ITEM: NUMBER OF ATOMS
58
ITEM: BOX BOUNDS ff ff ff
0.0000000000000000e+00 1.0000000000000000e-04
0.0000000000000000e+00 1.0000000000000000e-04
0.0000000000000000e+00 5.0000000000000002e-05
ITEM: ATOMS id type diameter x y z 
23 1 1.72157e-06 6.47e-06 2.79e-05 3.7e-06 
39 1 1.62534e-06 4.89e-06 3.44e-05 4.74e-06 
34 1 1.62534e-06 1.79e-05 2.16e-05 1.19e-05 
51 1 1.6304e-06 3.60811e-05 3.35806e-05 2.1384e-05 
14 1 1.61154e-06 3.47266e-05 3.3818e-05 2.22113e-05 
12 1 1.78573e-06 4.08e-05 3.79e-06 2.37e-05 
36 1 1.76435e-06 1.5e-05 2.75e-05 2.6e-05 
56 1 1.61832e-06 4.8876e-05 4.20139e-05 2.82026e-05 
16 1 1.57214e-06 4.97119e-05 4.1395e-05 2.93804e-05 
52 1 1.547e-06 4.62797e-06 3.0434e-05 3.95994e-05 
25 1 1.68885e-06 6.11561e-06 3.09898e-05 3.98096e-05 
8 1 1.94613e-06 6.93e-06 2.45e-05 4.03e-05 
45 1 1.60395e-06 1.66e-05 4.26e-05 4.19e-05 
22 1 1.81781e-06 3.17e-05 9.2e-05 6.74e-06 
53 1 1.63893e-06 4.50846e-05 6.978e-05 7.11184e-06 
17 1 1.61998e-06 4.37231e-05 7.00186e-05 7.94344e-06 
33 1 1.62534e-06 4.36e-05 8.67e-05 7.76e-06 
3 1 1.75365e-06 7.02e-06 5.47e-05 8.18e-06 
2 1 1.80712e-06 2.56e-05 8.5e-05 8.07e-06 
30 1 1.57187e-06 4.65e-05 6.16e-05 8.61e-06 
10 1 1.62534e-06 2.43e-05 7.79e-05 9.02e-06 
38 1 1.58257e-06 2.49e-05 9.51e-05 1.32e-05 
4 1 1.48633e-06 1.63e-05 8.31e-05 1.87e-05 
47 1 1.72157e-06 7.08e-06 9.12e-05 2.24e-05 
37 1 1.86058e-06 2.25e-05 8.09e-05 2.35e-05 
49 1 1.90336e-06 1.53e-05 5.35e-05 3.13e-05 
54 1 1.6304e-06 3.00811e-05 7.05806e-05 3.6384e-05 
29 1 1.61154e-06 2.87266e-05 7.0818e-05 3.72113e-05 
24 1 1.86058e-06 2.09e-06 8.63e-05 4.15e-05 
13 1 1.6788e-06 4.19e-05 6.8e-05 4.18e-05 
1 1 1.8392e-06 1.44e-05 6.95e-05 4.26e-05 
58 1 1.5065e-06 1.31064e-05 7.98408e-05 4.7602e-05 
44 1 1.64464e-06 1.45572e-05 8.03829e-05 4.7807e-05 
11 1 1.48633e-06 9.54e-05 4.88e-05 2.75e-06 
42 1 1.6895e-06 6.96e-05 2.98e-05 8.48e-06 
26 1 1.75365e-06 8.6e-05 1.66e-05 1.32e-05 
40 1 1.71088e-06 5.91e-05 4.39e-05 1.65e-05 
18 1 1.72157e-06 8.86e-05 1.55e-05 1.94e-05 
55 1 1.6304e-06 5.45811e-05 2.39061e-06 2.1484e-05 
41 1 1.61154e-06 5.32266e-05 2.62804e-06 2.23113e-05 
5 1 1.96751e-06 5.9e-05 8.31e-06 2.49e-05 
32 1 1.94613e-06 6.99e-05 2.9e-05 2.56e-05 
43 1 1.94613e-06 5.87e-05 2.06e-05 4.8e-05 
31 1 1.78573e-06 6.78e-05 6.53e-05 3.86e-06 
46 1 1.72157e-06 5.07e-05 8.19e-05 4.74e-06 
21 1 1.61464e-06 7.1e-05 6.46e-05 5.99e-06 
7 1 1.80712e-06 8.87e-05 5.42e-05 7.42e-06 
50 1 1.92474e-06 7.88e-05 5.61e-05 7.33e-06 
6 1 1.47564e-06 6.92e-05 6.22e-05 8.67e-06 
35 1 1.75365e-06 8.06e-05 6.01e-05 9.23e-06 
28 1 1.81781e-06 8.08e-05 8.5e-05 1.12e-05 
20 1 1.53979e-06 8.03e-05 8.2e-05 1.57e-05 
48 1 1.63603e-06 6.76e-05 7.68e-05 1.99e-05 
15 1 1.87128e-06 9.04e-05 9.64e-05 2.58e-05 
27 1 1.49702e-06 5.95e-05 6.35e-05 3.01e-05 
9 1 1.55049e-06 7.04e-05 8.82e-05 4.07e-05 
57 1 1.60479e-06 8.41671e-05 5.96831e-05 4.71925e-05 
19 1 1.58623e-06 8.28407e-05 5.99156e-05 4.80027e-05 
ITEM: TIMESTEP
1100
ITEM: NUMBER OF ATOMS
59
ITEM: BOX BOUNDS ff ff ff
0.0000000000000000e+00 1.0000000000000000e-04
0.0000000000000000e+00 1.0000000000000000e-04
0.0000000000000000e+00 5.0000000000000002e-05
ITEM: ATOMS id type diameter x y z 
23 1 1.73315e-06 6.47e-06 2.79e-05 3.7e-06 
39 1 1.63626e-06 4.89e-06 3.44e-05 4.74e-06 
34 1 1.63626e-06 1.79e-05 2.16e-05 1.19e-05 
51 1 1.64136e-06 3.60811e-05 3.35806e-05 2.1384e-05 
14 1 1.62238e-06 3.47266e-05 3.3818e-05 2.22113e-05 
12 1 1.79774e-06 4.08e-05 3.79e-06 2.37e-05 
36 1 1.77621e-06 1.5e-05 2.75e-05 2.6e-05 
56 1 1.6292e-06 4.88653e-05 4.20218e-05 2.81876e-05 