LAMMPS (20 Nov 2019)
Reading data file ...
  orthogonal box = (0 0 0) to (0.0001 0.0001 5e-05)
  2 by 2 by 2 MPI processor grid
  reading atoms ...
  50 atoms
  4 nutrients
Lattice spacing in x,y,z = 100 100 100
50 atoms in group CYANO
0 atoms in group ECW
Model is defined as a closed system. 
Neighbor list info ...
  update every 1 steps, delay 0 steps, check yes
  max neighbors/atom: 5000, page size: 100000
  master list distance cutoff = 2.41e-06
  ghost atom cutoff = 2.41e-06
  binsize = 1.205e-06, bins = 83 83 42
  1 neighbor lists, perpetual/occasional/extra = 1 0 0
  (1) pair gran/hooke/history, perpetual
      attributes: half, newton off, size, history
      pair build: half/size/bin/newtoff
      stencil: half/bin/3d/newtoff
      bin: standard
Setting up Verlet run ...
  Unit style    : lj
  Current step  : 0
  Time step     : 10
Per MPI rank memory allocation (min/avg/max) = 6.973 | 10.9 | 12.35 Mbytes
Step CPU Atoms c_myNtypes[1] c_myNtypes[2] c_myMass[1] c_myMass[2] c_myCon[1] c_myCon[2] c_myCon[3] c_myCon[4] 
       0            0       50           50            0 4.4543975e-14            0          0.1        0.009     3.42e-20       0.0299 
number of iterations: 324964 
     100    4.8258553       50           50            0 4.5303721e-14            0          0.1 0.0090037121 0.0070603731   0.02989382 
number of iterations: 24802 
     200    5.4189088       50           50            0 4.6076425e-14            0          0.1 0.0090037755  0.014019594  0.029893714 
number of iterations: 24892 
     300    6.0063235       50           50            0 4.6862309e-14            0          0.1 0.0090038399  0.021095901  0.029893607 
number of iterations: 24981 
     400    6.5978059       50           50            0 4.7661596e-14            0          0.1 0.0090039054  0.028292362  0.029893498 
number of iterations: 25072 
     500    7.1887107       50           50            0 4.8474517e-14            0          0.1  0.009003972  0.035611278  0.029893387 
number of iterations: 22784 
     600    7.7295686       51           51            0 4.9301302e-14            0          0.1 0.0090040142  0.043054846  0.029893317 
number of iterations: 25216 
     700    8.3226174       52           52            0 5.0142189e-14            0          0.1 0.0090040827  0.050625273  0.029893203 
number of iterations: 25321 
     800    8.9117402       55           55            0 5.0997419e-14            0          0.1 0.0090041523  0.058324742  0.029893087 
number of iterations: 25396 
     900    9.5559926       55           55            0 5.1867235e-14            0          0.1 0.0090042231  0.066155468  0.029892969 
number of iterations: 25487 
    1000    10.254942       56           56            0 5.2751887e-14            0          0.1 0.0090042952    0.0741197  0.029892849 
number of iterations: 25577 
    1100      10.9499       56           56            0 5.3651628e-14            0          0.1 0.0090043684  0.082219722  0.029892727 
number of iterations: 25667 
    1200    11.570093       56           56            0 5.4566714e-14            0          0.1 0.0090044429  0.090457856  0.029892603 
number of iterations: 25757 
    1300     12.20284       56           56            0 5.5497409e-14            0          0.1 0.0090045187  0.098836462  0.029892476 
number of iterations: 25847 
    1400    12.816904       57           57            0 5.6443977e-14            0          0.1 0.0090045958   0.10735794  0.029892348 
number of iterations: 25937 
    1500      13.4157       61           61            0 5.740669e-14            0          0.1 0.0090046742   0.11602473  0.029892218 
number of iterations: 26028 
    1600    14.034519       61           61            0 5.8385823e-14            0          0.1 0.0090047539   0.12483931  0.029892085 
number of iterations: 26118 
    1700    14.678304       62           62            0 5.9381656e-14            0          0.1  0.009004835   0.13380421   0.02989195 
number of iterations: 26208 
    1800    15.312146       62           62            0 6.0394475e-14            0          0.1 0.0090049175   0.14292199  0.029891813 
number of iterations: 26298 
    1900    15.920985       63           63            0 6.1424568e-14            0          0.1 0.0090050014   0.15219526  0.029891673 
number of iterations: 27453 
    2000    16.540985       65           65            0 6.247223e-14            0          0.1 0.0090051018   0.16162666  0.029891506 
number of iterations: 26498 
    2100    17.138217       65           65            0 6.3537761e-14            0          0.1 0.0090051889   0.17121891  0.029891361 
number of iterations: 26588 
    2200    17.752258       66           66            0 6.4621466e-14            0          0.1 0.0090052774   0.18097475  0.029891213 
number of iterations: 26682 
    2300    18.355708       67           67            0 6.5723655e-14            0          0.1 0.0090053674   0.19089698  0.029891063 
number of iterations: 26769 
    2400    18.986372       68           68            0 6.6844643e-14            0          0.1 0.0090054589   0.20098843  0.029890911 
number of iterations: 26861 
    2500    19.628384       73           73            0 6.798475e-14            0          0.1 0.0090055521   0.21125197  0.029890756 
number of iterations: 26414 
    2600     20.25144       74           74            0 6.9144303e-14            0          0.1 0.0090056398   0.22169057   0.02989061 
number of iterations: 27031 
    2700    20.862017       74           74            0 7.0323634e-14            0          0.1  0.009005736    0.2323072   0.02989045 
number of iterations: 27122 
    2800     21.48116       74           74            0 7.1523079e-14            0          0.1 0.0090058339   0.24310489  0.029890287 
number of iterations: 27212 
    2900     22.09272       75           75            0 7.2742982e-14            0          0.1 0.0090059334   0.25408674  0.029890121 
number of iterations: 27302 
    3000    22.744746       76           76            0 7.3983692e-14            0          0.1 0.0090060346   0.26525588  0.029889952 
number of iterations: 27393 
    3100    23.384977       77           77            0 7.5245563e-14            0          0.1 0.0090061375   0.27661551  0.029889781 
number of iterations: 27483 
    3200    24.046467       77           77            0 7.6528957e-14            0          0.1 0.0090062422   0.28816888  0.029889607 
number of iterations: 27574 
    3300    24.801295       78           78            0 7.783424e-14            0          0.1 0.0090063487   0.29991929  0.029889429 
number of iterations: 27664 
    3400     25.43732       79           79            0 7.9161787e-14            0          0.1  0.009006457    0.3118701  0.029889249 
number of iterations: 27755 
    3500     26.09162       79           79            0 8.0511976e-14            0          0.1 0.0090065671   0.32402474  0.029889066 
number of iterations: 27845 
    3600    26.711207       79           79            0 8.1885194e-14            0          0.1 0.0090066791   0.33638668  0.029888879 
number of iterations: 27936 
    3700    27.360252       80           80            0 8.3281834e-14            0          0.1  0.009006793   0.34895946   0.02988869 
number of iterations: 28026 
    3800    27.984837       80           80            0 8.4702294e-14            0          0.1 0.0090069089   0.36174666  0.029888497 
number of iterations: 28125 
    3900    28.625009       82           82            0 8.6146983e-14            0          0.1 0.0090070267   0.37475196    0.0298883 
number of iterations: 28207 
    4000    29.277299       82           82            0 8.7616311e-14            0          0.1 0.0090071466   0.38797907  0.029888101 
number of iterations: 27122 
    4100    29.950967       84           84            0 8.9110701e-14            0          0.1  0.009007244   0.40143175  0.029887939 
number of iterations: 28379 
    4200    30.655973       85           85            0 9.0630579e-14            0          0.1 0.0090073676   0.41511387  0.029887733 
number of iterations: 27336 
    4300    31.259242       89           89            0 9.2176381e-14            0          0.1 0.0090074692   0.42902933  0.029887564 
number of iterations: 28534 
    4400    31.905809       89           89            0 9.3748547e-14            0          0.1 0.0090075966   0.44318212  0.029887352 
number of iterations: 28624 
    4500    32.543655       89           89            0 9.5347528e-14            0          0.1 0.0090077262   0.45757629  0.029887136 
number of iterations: 28715 
    4600    33.182228       90           90            0 9.6973782e-14            0          0.1 0.0090078579   0.47221596  0.029886916 
number of iterations: 28806 
    4700    33.822065       90           90            0 9.8627773e-14            0          0.1  0.009007992   0.48710532  0.029886693 
number of iterations: 28901 
    4800    34.495149       93           93            0 1.0030997e-13            0          0.1 0.0090081283   0.50224861  0.029886466 
number of iterations: 28987 
    4900    35.178367       95           95            0 1.0202087e-13            0          0.1 0.0090082669   0.51765018  0.029886235 
number of iterations: 29078 
    5000     35.82888       97           97            0 1.0376094e-13            0          0.1 0.0090084079   0.53331442  0.029886001 
number of iterations: 29168 
    5100    36.511083       97           97            0 1.055307e-13            0          0.1 0.0090085513   0.54924581  0.029885762 
number of iterations: 29259 
    5200     37.16276       98           98            0 1.0733063e-13            0          0.1 0.0090086972   0.56544893  0.029885519 
number of iterations: 29349 
    5300    37.843487      101          101            0 1.0916127e-13            0          0.1 0.0090088455    0.5819284  0.029885272 
number of iterations: 30473 
    5400    38.529289      103          103            0 1.1102313e-13            0          0.1 0.0090090283   0.59868896  0.029884968 
number of iterations: 28211 
    5500    39.188682      106          106            0 1.1291675e-13            0          0.1 0.0090091477   0.61573532  0.029884769 
number of iterations: 29627 
    5600     39.88569      110          110            0 1.1484266e-13            0          0.1 0.0090093037   0.63307242  0.029884509 
number of iterations: 29711 
    5700    40.551959      115          115            0 1.1680143e-13            0          0.1 0.0090094624   0.65070522  0.029884245 
number of iterations: 29170 
    5800    41.216739      119          119            0 1.187936e-13            0          0.1  0.009009609   0.66863876  0.029884001 
number of iterations: 29882 
    5900    41.899329      119          119            0 1.2081975e-13            0          0.1 0.0090097729   0.68687817  0.029883728 
number of iterations: 30359 
    6000    42.588829      122          122            0 1.2288046e-13            0          0.1 0.0090099491   0.70542864  0.029883434 
number of iterations: 30070 
    6100    43.269885      123          123            0 1.2497631e-13            0          0.1 0.0090101188   0.72429549  0.029883152 
number of iterations: 30162 
    6200    43.938653      128          128            0 1.2710791e-13            0          0.1 0.0090102914   0.74348412  0.029882864 
number of iterations: 30252 
    6300    44.647164      134          134            0 1.2927587e-13            0          0.1 0.0090104669   0.76300002  0.029882572 
number of iterations: 30349 
    6400    45.352849      138          138            0 1.3148081e-13            0          0.1 0.0090106454   0.78284878  0.029882275 
number of iterations: 29546 
    6500     46.02651      139          139            0 1.3372335e-13            0          0.1 0.0090108022   0.80303606  0.029882014 
number of iterations: 30510 
    6600    46.746639      140          140            0 1.3600415e-13            0          0.1 0.0090109865   0.82356765  0.029881707 
number of iterations: 30601 
    6700    47.435986      142          142            0 1.3832384e-13            0          0.1 0.0090111739   0.84444942  0.029881395 
number of iterations: 30692 
    6800    48.149743      145          145            0 1.406831e-13            0          0.1 0.0090113644   0.86568735  0.029881078 
number of iterations: 31073 
    6900    48.861384      148          148            0 1.4308259e-13            0          0.1 0.0090115666   0.88728748  0.029880741 
number of iterations: 30646 
    7000    49.596982      149          149            0 1.4552302e-13            0          0.1 0.0090117574   0.90925604  0.029880423 
number of iterations: 30962 
    7100    50.335993      149          149            0 1.4800506e-13            0          0.1 0.0090119579   0.93159932  0.029880089 
number of iterations: 31056 
    7200    51.038273      152          152            0 1.5052944e-13            0          0.1 0.0090121619   0.95432369   0.02987975 
number of iterations: 31147 
    7300    51.742844      155          155            0 1.5309688e-13            0          0.1 0.0090123693   0.97743565  0.029879404 
number of iterations: 30947 
    7400    52.436441      157          157            0 1.5570811e-13            0          0.1 0.0090125717    1.0009418  0.029879068 
number of iterations: 31324 
    7500    53.131751      159          159            0 1.5836387e-13            0          0.1 0.0090127861    1.0248489   0.02987871 
number of iterations: 31415 
    7600    53.830422      162          162            0 1.6106493e-13            0          0.1 0.0090130042    1.0491638  0.029878347 
number of iterations: 31507 
    7700    54.543762      164          164            0 1.6381206e-13            0          0.1  0.009013226    1.0738933  0.029877978 
number of iterations: 31597 
    7800    55.267391      167          167            0 1.6660604e-13            0          0.1 0.0090134516    1.0990446  0.029877602 
number of iterations: 31687 
    7900    55.974462      167          167            0 1.6944768e-13            0          0.1  0.009013681     1.124625   0.02987722 
number of iterations: 31346 
    8000     56.71478      168          168            0 1.7233779e-13            0          0.1 0.0090138996    1.1506416  0.029876856 
number of iterations: 31862 
    8100    57.416985      168          168            0 1.7527719e-13            0          0.1 0.0090141367    1.1771019  0.029876462 
number of iterations: 31556 
    8200    58.105956      171          171            0 1.7826672e-13            0          0.1 0.0090143638    1.2040136  0.029876084 
number of iterations: 32039 
    8300    58.810279      172          172            0 1.8130724e-13            0          0.1 0.0090146087    1.2313842  0.029875676 
number of iterations: 31943 
    8400    59.543464      174          174            0 1.8439962e-13            0          0.1 0.0090148514    1.2592218  0.029875272 
number of iterations: 32216 
    8500    60.312983      180          180            0 1.8754475e-13            0          0.1 0.0090151047    1.2875341   0.02987485 
number of iterations: 32308 
    8600     61.00915      182          182            0 1.9074352e-13            0          0.1 0.0090153624    1.3163292  0.029874421 
number of iterations: 32396 
    8700    61.751744      184          184            0 1.9399684e-13            0          0.1 0.0090156244    1.3456155  0.029873984 
number of iterations: 32490 
    8800    62.506088      188          188            0 1.9730566e-13            0          0.1 0.0090158909    1.3754013  0.029873541 
number of iterations: 32581 
    8900    63.216275      193          193            0 2.0067091e-13            0          0.1 0.0090161619    1.4056951  0.029873089 
number of iterations: 32670 
    9000    63.952702      194          194            0 2.0409356e-13            0          0.1 0.0090164376    1.4365056   0.02987263 
number of iterations: 32761 
    9100    64.692434      196          196            0 2.0757458e-13            0          0.1 0.0090167179    1.4678416  0.029872164 
number of iterations: 33438 
    9200     65.45048      200          200            0 2.1111497e-13            0          0.1 0.0090170359    1.4997121  0.029871634 
number of iterations: 32954 
    9300    66.198334      206          206            0 2.1471575e-13            0          0.1 0.0090173264    1.5321262   0.02987115 
number of iterations: 33044 
    9400    66.960661      210          210            0 2.1837795e-13            0          0.1  0.009017622    1.5650931  0.029870658 
number of iterations: 33571 
    9500    67.722689      214          214            0 2.2210261e-13            0          0.1 0.0090179479    1.5986224  0.029870116 
number of iterations: 32510 
    9600     68.46756      218          218            0 2.2589079e-13            0          0.1 0.0090182178    1.6327235  0.029869666 
number of iterations: 33314 
    9700    69.248673      223          223            0 2.2974359e-13            0          0.1 0.0090185285    1.6674062  0.029869149 
number of iterations: 33347 
    9800    70.043117      227          227            0 2.3366209e-13            0          0.1 0.0090188436    1.7026805  0.029868624 
number of iterations: 33497 
    9900    70.825662      233          233            0 2.3764744e-13            0          0.1  0.009019165    1.7385565  0.029868089 
number of iterations: 33586 
   10000    71.568721      237          237            0 2.4170075e-13            0          0.1 0.0090194919    1.7750443  0.029867545 
Loop time of 71.5688 on 8 procs for 10000 steps with 237 atoms

Performance: 120723050.022 tau/day, 139.726 timesteps/s
88.7% CPU use with 8 MPI tasks x no OpenMP threads

MPI task timing breakdown:
Section |  min time  |  avg time  |  max time  |%varavg| %total
---------------------------------------------------------------
Pair    | 0.0089164  | 0.010317   | 0.012079   |   0.9 |  0.01
Neigh   | 0.0068968  | 0.0078989  | 0.0089995  |   1.0 |  0.01
Comm    | 0.039755   | 0.049939   | 0.056013   |   2.7 |  0.07
Output  | 12.318     | 12.318     | 12.32      |   0.0 | 17.21
Modify  | 59.12      | 59.122     | 59.124     |   0.0 | 82.61
Other   |            | 0.06103    |            |       |  0.09

Nlocal:    29.625 ave 53 max 14 min
Histogram: 2 0 0 2 3 0 0 0 0 1
Nghost:    6.875 ave 12 max 0 min
Histogram: 1 0 0 0 0 4 1 0 1 1
Neighs:    30.625 ave 53 max 15 min
Histogram: 2 0 0 2 2 1 0 0 0 1

Total # of neighbors = 245
Ave neighs/atom = 1.03376
Neighbor list builds = 112
Dangerous builds = 0
Total wall time: 0:01:11
