ITEM: TIMESTEP
0
ITEM: NUMBER OF ATOMS
50
ITEM: BOX BOUNDS ff ff ff
0.0000000000000000e+00 1.0000000000000000e-04
0.0000000000000000e+00 1.0000000000000000e-04
0.0000000000000000e+00 5.0000000000000002e-05
ITEM: ATOMS id type diameter x y z 
33 1 1.72e-06 4.71e-05 2.97e-05 6.83e-06 
40 1 1.9e-06 4.23e-05 3.09e-05 1.34e-05 
39 1 1.82e-06 3.14e-06 3.21e-05 1.67e-05 
44 1 1.77e-06 1.28e-05 3.69e-05 1.79e-05 
20 1 1.82e-06 1.46e-05 1.57e-05 1.88e-05 
6 1 1.51e-06 3.31e-05 2.04e-05 2.16e-05 
36 1 1.47e-06 1.9e-05 3.96e-05 2.53e-05 
1 1 1.37e-06 3.87e-05 1.23e-05 2.93e-05 
25 1 1.82e-06 2.56e-05 4.61e-05 3.26e-05 
15 1 1.74e-06 9.96e-06 2.57e-05 3.58e-05 
4 1 1.44e-06 4.12e-05 3.84e-06 3.83e-05 
24 1 1.39e-06 3.48e-05 2.72e-05 4.41e-05 
46 1 1.5e-06 2.13e-05 3.59e-05 4.58e-05 
16 1 1.89e-06 4e-05 9.32e-05 1.38e-05 
35 1 1.72e-06 2.32e-05 7.94e-05 1.9e-05 
32 1 1.77e-06 2.2e-06 7.75e-05 2e-05 
22 1 1.6e-06 4.88e-05 7.66e-05 2.32e-05 
37 1 1.57e-06 4.96e-05 6.99e-05 3.16e-05 
27 1 1.63e-06 4.45e-05 6.49e-05 3.35e-05 
18 1 1.78e-06 2.19e-05 6.32e-05 3.45e-05 
34 1 1.55e-06 3.62e-06 5.9e-05 3.52e-05 
7 1 1.41e-06 3.06e-05 5.49e-05 4.51e-05 
48 1 1.68e-06 2.5e-05 6.31e-05 4.76e-05 
2 1 1.43e-06 5.73e-05 1.29e-05 9.77e-06 
21 1 1.71e-06 9.74e-05 4.81e-05 9.7e-06 
49 1 1.73e-06 8.89e-05 4.33e-05 1.28e-05 
43 1 1.59e-06 6.51e-05 3.95e-05 1.43e-05 
19 1 1.89e-06 9.61e-05 3.11e-06 2.12e-05 
50 1 1.39e-06 5.11e-05 4.54e-05 2.11e-05 
8 1 1.67e-06 6.45e-05 3.26e-05 2.48e-05 
9 1 1.59e-06 7.44e-05 2.46e-05 2.66e-05 
10 1 1.72e-06 8.66e-05 3.4e-05 2.83e-05 
28 1 1.43e-06 6.5e-05 1.9e-05 3.38e-05 
3 1 1.38e-06 7.54e-05 1.95e-05 3.87e-05 
11 1 1.45e-06 9.5e-05 3.67e-06 3.95e-05 
47 1 1.91e-06 8.86e-05 1.94e-05 3.99e-05 
41 1 1.55e-06 9.62e-05 3.08e-05 3.96e-05 
29 1 1.43e-06 6.48e-05 2.39e-05 4.41e-05 
17 1 1.82e-06 7.96e-05 2.22e-06 4.58e-05 
45 1 1.44e-06 5.55e-05 5.94e-05 9e-06 
38 1 1.66e-06 8.55e-05 8.22e-05 9.47e-06 
5 1 1.87e-06 9.14e-05 6.65e-05 1.1e-05 
30 1 1.75e-06 8.74e-05 7.21e-05 1.57e-05 
12 1 1.89e-06 5.55e-05 8.18e-05 1.9e-05 
13 1 1.43e-06 7.78e-05 7.15e-05 2.61e-05 
26 1 1.72e-06 6.28e-05 7.99e-05 2.62e-05 
23 1 1.64e-06 5.51e-05 8.19e-05 3.47e-05 
42 1 1.83e-06 6.49e-05 8.43e-05 3.76e-05 
31 1 1.72e-06 6.07e-05 6.74e-05 4.4e-05 
14 1 1.8e-06 5.65e-05 8.62e-05 4.62e-05 
ITEM: TIMESTEP
100
ITEM: NUMBER OF ATOMS
50
ITEM: BOX BOUNDS ff ff ff
0.0000000000000000e+00 1.0000000000000000e-04
0.0000000000000000e+00 1.0000000000000000e-04
0.0000000000000000e+00 5.0000000000000002e-05
ITEM: ATOMS id type diameter x y z 
33 1 1.72972e-06 4.71e-05 2.97e-05 6.83e-06 
40 1 1.91074e-06 4.23e-05 3.09e-05 1.34e-05 
39 1 1.83029e-06 3.14e-06 3.21e-05 1.67e-05 
44 1 1.78001e-06 1.28e-05 3.69e-05 1.79e-05 
20 1 1.83029e-06 1.46e-05 1.57e-05 1.88e-05 
6 1 1.51854e-06 3.31e-05 2.04e-05 2.16e-05 
36 1 1.47831e-06 1.9e-05 3.96e-05 2.53e-05 
1 1 1.37775e-06 3.87e-05 1.23e-05 2.93e-05 
25 1 1.83029e-06 2.56e-05 4.61e-05 3.26e-05 
15 1 1.74984e-06 9.96e-06 2.57e-05 3.58e-05 
4 1 1.44814e-06 4.12e-05 3.84e-06 3.83e-05 
24 1 1.39786e-06 3.48e-05 2.72e-05 4.41e-05 
46 1 1.50848e-06 2.13e-05 3.59e-05 4.58e-05 
16 1 1.90068e-06 4e-05 9.32e-05 1.38e-05 
35 1 1.72972e-06 2.32e-05 7.94e-05 1.9e-05 
32 1 1.78001e-06 2.2e-06 7.75e-05 2e-05 
22 1 1.60905e-06 4.88e-05 7.66e-05 2.32e-05 
37 1 1.57888e-06 4.96e-05 6.99e-05 3.16e-05 
27 1 1.63921e-06 4.45e-05 6.49e-05 3.35e-05 
18 1 1.79006e-06 2.19e-05 6.32e-05 3.45e-05 
34 1 1.55876e-06 3.62e-06 5.9e-05 3.52e-05 
7 1 1.41797e-06 3.06e-05 5.49e-05 4.51e-05 
48 1 1.6895e-06 2.5e-05 6.31e-05 4.76e-05 
2 1 1.43808e-06 5.73e-05 1.29e-05 9.77e-06 
21 1 1.71967e-06 9.74e-05 4.81e-05 9.7e-06 
49 1 1.73978e-06 8.89e-05 4.33e-05 1.28e-05 
43 1 1.59899e-06 6.51e-05 3.95e-05 1.43e-05 
19 1 1.90068e-06 9.61e-05 3.11e-06 2.12e-05 
50 1 1.39786e-06 5.11e-05 4.54e-05 2.11e-05 
8 1 1.67944e-06 6.45e-05 3.26e-05 2.48e-05 
9 1 1.59899e-06 7.44e-05 2.46e-05 2.66e-05 
10 1 1.72972e-06 8.66e-05 3.4e-05 2.83e-05 
28 1 1.43808e-06 6.5e-05 1.9e-05 3.38e-05 
3 1 1.3878e-06 7.54e-05 1.95e-05 3.87e-05 
11 1 1.4582e-06 9.5e-05 3.67e-06 3.95e-05 
47 1 1.9208e-06 8.86e-05 1.94e-05 3.99e-05 
41 1 1.55876e-06 9.62e-05 3.08e-05 3.96e-05 
29 1 1.43808e-06 6.48e-05 2.39e-05 4.41e-05 
17 1 1.83029e-06 7.96e-05 2.22e-06 4.58e-05 
45 1 1.44814e-06 5.55e-05 5.94e-05 9e-06 
38 1 1.66938e-06 8.55e-05 8.22e-05 9.47e-06 
5 1 1.88057e-06 9.14e-05 6.65e-05 1.1e-05 
30 1 1.75989e-06 8.74e-05 7.21e-05 1.57e-05 
12 1 1.90068e-06 5.55e-05 8.18e-05 1.9e-05 
13 1 1.43808e-06 7.78e-05 7.15e-05 2.61e-05 
26 1 1.72972e-06 6.28e-05 7.99e-05 2.62e-05 
23 1 1.64927e-06 5.51e-05 8.19e-05 3.47e-05 
42 1 1.84035e-06 6.49e-05 8.43e-05 3.76e-05 
31 1 1.72972e-06 6.07e-05 6.74e-05 4.4e-05 
14 1 1.81018e-06 5.65e-05 8.62e-05 4.62e-05 
ITEM: TIMESTEP
200
ITEM: NUMBER OF ATOMS
50
ITEM: BOX BOUNDS ff ff ff
0.0000000000000000e+00 1.0000000000000000e-04
0.0000000000000000e+00 1.0000000000000000e-04
0.0000000000000000e+00 5.0000000000000002e-05
ITEM: ATOMS id type diameter x y z 
33 1 1.7395e-06 4.71e-05 2.97e-05 6.83e-06 
40 1 1.92154e-06 4.23e-05 3.09e-05 1.34e-05 
39 1 1.84064e-06 3.14e-06 3.21e-05 1.67e-05 
44 1 1.79007e-06 1.28e-05 3.69e-05 1.79e-05 
20 1 1.84064e-06 1.46e-05 1.57e-05 1.88e-05 
6 1 1.52712e-06 3.31e-05 2.04e-05 2.16e-05 
36 1 1.48667e-06 1.9e-05 3.96e-05 2.53e-05 
1 1 1.38553e-06 3.87e-05 1.23e-05 2.93e-05 
25 1 1.84064e-06 2.56e-05 4.61e-05 3.26e-05 
15 1 1.75973e-06 9.96e-06 2.57e-05 3.58e-05 
4 1 1.45633e-06 4.12e-05 3.84e-06 3.83e-05 
24 1 1.40576e-06 3.48e-05 2.72e-05 4.41e-05 
46 1 1.51701e-06 2.13e-05 3.59e-05 4.58e-05 
16 1 1.91143e-06 4e-05 9.32e-05 1.38e-05 
35 1 1.7395e-06 2.32e-05 7.94e-05 1.9e-05 
32 1 1.79007e-06 2.2e-06 7.75e-05 2e-05 
22 1 1.61814e-06 4.88e-05 7.66e-05 2.32e-05 
37 1 1.5878e-06 4.96e-05 6.99e-05 3.16e-05 
27 1 1.64848e-06 4.45e-05 6.49e-05 3.35e-05 
18 1 1.80018e-06 2.19e-05 6.32e-05 3.45e-05 
34 1 1.56757e-06 3.62e-06 5.9e-05 3.52e-05 
7 1 1.42599e-06 3.06e-05 5.49e-05 4.51e-05 
48 1 1.69905e-06 2.5e-05 6.31e-05 4.76e-05 
2 1 1.44621e-06 5.73e-05 1.29e-05 9.77e-06 
21 1 1.72939e-06 9.74e-05 4.81e-05 9.7e-06 
49 1 1.74962e-06 8.89e-05 4.33e-05 1.28e-05 
43 1 1.60803e-06 6.51e-05 3.95e-05 1.43e-05 
19 1 1.91143e-06 9.61e-05 3.11e-06 2.12e-05 
50 1 1.40576e-06 5.11e-05 4.54e-05 2.11e-05 
8 1 1.68894e-06 6.45e-05 3.26e-05 2.48e-05 
9 1 1.60803e-06 7.44e-05 2.46e-05 2.66e-05 
10 1 1.7395e-06 8.66e-05 3.4e-05 2.83e-05 
28 1 1.44621e-06 6.5e-05 1.9e-05 3.38e-05 
3 1 1.39565e-06 7.54e-05 1.95e-05 3.87e-05 
11 1 1.46644e-06 9.5e-05 3.67e-06 3.95e-05 
47 1 1.93166e-06 8.86e-05 1.94e-05 3.99e-05 
41 1 1.56757e-06 9.62e-05 3.08e-05 3.96e-05 
29 1 1.44621e-06 6.48e-05 2.39e-05 4.41e-05 
17 1 1.84064e-06 7.96e-05 2.22e-06 4.58e-05 
45 1 1.45633e-06 5.55e-05 5.94e-05 9e-06 
38 1 1.67882e-06 8.55e-05 8.22e-05 9.47e-06 
5 1 1.8912e-06 9.14e-05 6.65e-05 1.1e-05 
30 1 1.76984e-06 8.74e-05 7.21e-05 1.57e-05 
12 1 1.91143e-06 5.55e-05 8.18e-05 1.9e-05 
13 1 1.44621e-06 7.78e-05 7.15e-05 2.61e-05 
26 1 1.7395e-06 6.28e-05 7.99e-05 2.62e-05 
23 1 1.6586e-06 5.51e-05 8.19e-05 3.47e-05 
42 1 1.85075e-06 6.49e-05 8.43e-05 3.76e-05 
31 1 1.7395e-06 6.07e-05 6.74e-05 4.4e-05 
14 1 1.82041e-06 5.65e-05 8.62e-05 4.62e-05 
ITEM: TIMESTEP
300
ITEM: NUMBER OF ATOMS
50
ITEM: BOX BOUNDS ff ff ff
0.0000000000000000e+00 1.0000000000000000e-04
0.0000000000000000e+00 1.0000000000000000e-04
0.0000000000000000e+00 5.0000000000000002e-05
ITEM: ATOMS id type diameter x y z 
33 1 1.74934e-06 4.71e-05 2.97e-05 6.83e-06 
40 1 1.93241e-06 4.23e-05 3.09e-05 1.34e-05 
39 1 1.85104e-06 3.14e-06 3.21e-05 1.67e-05 
44 1 1.80019e-06 1.28e-05 3.69e-05 1.79e-05 
20 1 1.85104e-06 1.46e-05 1.57e-05 1.88e-05 
6 1 1.53575e-06 3.31e-05 2.04e-05 2.16e-05 
36 1 1.49507e-06 1.9e-05 3.96e-05 2.53e-05 
1 1 1.39337e-06 3.87e-05 1.23e-05 2.93e-05 
25 1 1.85104e-06 2.56e-05 4.61e-05 3.26e-05 
15 1 1.76968e-06 9.96e-06 2.57e-05 3.58e-05 
4 1 1.46456e-06 4.12e-05 3.84e-06 3.83e-05 
24 1 1.41371e-06 3.48e-05 2.72e-05 4.41e-05 
46 1 1.52558e-06 2.13e-05 3.59e-05 4.58e-05 
16 1 1.92224e-06 4e-05 9.32e-05 1.38e-05 
35 1 1.74934e-06 2.32e-05 7.94e-05 1.9e-05 
32 1 1.80019e-06 2.2e-06 7.75e-05 2e-05 
22 1 1.62729e-06 4.88e-05 7.66e-05 2.32e-05 
37 1 1.59678e-06 4.96e-05 6.99e-05 3.16e-05 
27 1 1.6578e-06 4.45e-05 6.49e-05 3.35e-05 
18 1 1.81036e-06 2.19e-05 6.32e-05 3.45e-05 
34 1 1.57644e-06 3.62e-06 5.9e-05 3.52e-05 
7 1 1.43405e-06 3.06e-05 5.49e-05 4.51e-05 
48 1 1.70865e-06 2.5e-05 6.31e-05 4.76e-05 
2 1 1.45439e-06 5.73e-05 1.29e-05 9.77e-06 
21 1 1.73917e-06 9.74e-05 4.81e-05 9.7e-06 
49 1 1.75951e-06 8.89e-05 4.33e-05 1.28e-05 
43 1 1.61712e-06 6.51e-05 3.95e-05 1.43e-05 
19 1 1.92224e-06 9.61e-05 3.11e-06 2.12e-05 
50 1 1.41371e-06 5.11e-05 4.54e-05 2.11e-05 
8 1 1.69848e-06 6.45e-05 3.26e-05 2.48e-05 
9 1 1.61712e-06 7.44e-05 2.46e-05 2.66e-05 
10 1 1.74934e-06 8.66e-05 3.4e-05 2.83e-05 
28 1 1.45439e-06 6.5e-05 1.9e-05 3.38e-05 
3 1 1.40354e-06 7.54e-05 1.95e-05 3.87e-05 
11 1 1.47473e-06 9.5e-05 3.67e-06 3.95e-05 
47 1 1.94258e-06 8.86e-05 1.94e-05 3.99e-05 
41 1 1.57644e-06 9.62e-05 3.08e-05 3.96e-05 
29 1 1.45439e-06 6.48e-05 2.39e-05 4.41e-05 
17 1 1.85104e-06 7.96e-05 2.22e-06 4.58e-05 
45 1 1.46456e-06 5.55e-05 5.94e-05 9e-06 
38 1 1.68831e-06 8.55e-05 8.22e-05 9.47e-06 
5 1 1.90189e-06 9.14e-05 6.65e-05 1.1e-05 
30 1 1.77985e-06 8.74e-05 7.21e-05 1.57e-05 
12 1 1.92224e-06 5.55e-05 8.18e-05 1.9e-05 
13 1 1.45439e-06 7.78e-05 7.15e-05 2.61e-05 
26 1 1.74934e-06 6.28e-05 7.99e-05 2.62e-05 
23 1 1.66797e-06 5.51e-05 8.19e-05 3.47e-05 
42 1 1.86121e-06 6.49e-05 8.43e-05 3.76e-05 
31 1 1.74934e-06 6.07e-05 6.74e-05 4.4e-05 
14 1 1.8307e-06 5.65e-05 8.62e-05 4.62e-05 
ITEM: TIMESTEP
400
ITEM: NUMBER OF ATOMS
50
ITEM: BOX BOUNDS ff ff ff
0.0000000000000000e+00 1.0000000000000000e-04
0.0000000000000000e+00 1.0000000000000000e-04
0.0000000000000000e+00 5.0000000000000002e-05
ITEM: ATOMS id type diameter x y z 
33 1 1.75923e-06 4.71e-05 2.97e-05 6.83e-06 
40 1 1.94333e-06 4.23e-05 3.09e-05 1.34e-05 
39 1 1.86151e-06 3.14e-06 3.21e-05 1.67e-05 
44 1 1.81037e-06 1.28e-05 3.69e-05 1.79e-05 
20 1 1.86151e-06 1.46e-05 1.57e-05 1.88e-05 
6 1 1.54444e-06 3.31e-05 2.04e-05 2.16e-05 
36 1 1.50352e-06 1.9e-05 3.96e-05 2.53e-05 
1 1 1.40124e-06 3.87e-05 1.23e-05 2.93e-05 
25 1 1.86151e-06 2.56e-05 4.61e-05 3.26e-05 
15 1 1.77968e-06 9.96e-06 2.57e-05 3.58e-05 
4 1 1.47284e-06 4.12e-05 3.84e-06 3.83e-05 
24 1 1.4217e-06 3.48e-05 2.72e-05 4.41e-05 
46 1 1.53421e-06 2.13e-05 3.59e-05 4.58e-05 
16 1 1.9331e-06 4e-05 9.32e-05 1.38e-05 
35 1 1.75923e-06 2.32e-05 7.94e-05 1.9e-05 
32 1 1.81037e-06 2.2e-06 7.75e-05 2e-05 
22 1 1.63649e-06 4.88e-05 7.66e-05 2.32e-05 
37 1 1.60581e-06 4.96e-05 6.99e-05 3.16e-05 
27 1 1.66717e-06 4.45e-05 6.49e-05 3.35e-05 
18 1 1.82059e-06 2.19e-05 6.32e-05 3.45e-05 
34 1 1.58535e-06 3.62e-06 5.9e-05 3.52e-05 
7 1 1.44216e-06 3.06e-05 5.49e-05 4.51e-05 
48 1 1.71831e-06 2.5e-05 6.31e-05 4.76e-05 
2 1 1.46261e-06 5.73e-05 1.29e-05 9.77e-06 
21 1 1.749e-06 9.74e-05 4.81e-05 9.7e-06 
49 1 1.76945e-06 8.89e-05 4.33e-05 1.28e-05 
43 1 1.62626e-06 6.51e-05 3.95e-05 1.43e-05 
19 1 1.9331e-06 9.61e-05 3.11e-06 2.12e-05 
50 1 1.4217e-06 5.11e-05 4.54e-05 2.11e-05 
8 1 1.70809e-06 6.45e-05 3.26e-05 2.48e-05 
9 1 1.62626e-06 7.44e-05 2.46e-05 2.66e-05 
10 1 1.75923e-06 8.66e-05 3.4e-05 2.83e-05 
28 1 1.46261e-06 6.5e-05 1.9e-05 3.38e-05 
3 1 1.41147e-06 7.54e-05 1.95e-05 3.87e-05 
11 1 1.48307e-06 9.5e-05 3.67e-06 3.95e-05 
47 1 1.95356e-06 8.86e-05 1.94e-05 3.99e-05 
41 1 1.58535e-06 9.62e-05 3.08e-05 3.96e-05 
29 1 1.46261e-06 6.48e-05 2.39e-05 4.41e-05 
17 1 1.86151e-06 7.96e-05 2.22e-06 4.58e-05 
45 1 1.47284e-06 5.55e-05 5.94e-05 9e-06 
38 1 1.69786e-06 8.55e-05 8.22e-05 9.47e-06 
5 1 1.91265e-06 9.14e-05 6.65e-05 1.1e-05 
30 1 1.78991e-06 8.74e-05 7.21e-05 1.57e-05 
12 1 1.9331e-06 5.55e-05 8.18e-05 1.9e-05 
13 1 1.46261e-06 7.78e-05 7.15e-05 2.61e-05 
26 1 1.75923e-06 6.28e-05 7.99e-05 2.62e-05 
23 1 1.6774e-06 5.51e-05 8.19e-05 3.47e-05 
42 1 1.87173e-06 6.49e-05 8.43e-05 3.76e-05 
31 1 1.75923e-06 6.07e-05 6.74e-05 4.4e-05 
14 1 1.84105e-06 5.65e-05 8.62e-05 4.62e-05 
ITEM: TIMESTEP
500
ITEM: NUMBER OF ATOMS
50
ITEM: BOX BOUNDS ff ff ff
0.0000000000000000e+00 1.0000000000000000e-04
0.0000000000000000e+00 1.0000000000000000e-04
0.0000000000000000e+00 5.0000000000000002e-05
ITEM: ATOMS id type diameter x y z 
33 1 1.76917e-06 4.71e-05 2.97e-05 6.83e-06 
40 1 1.95432e-06 4.23e-05 3.09e-05 1.34e-05 
39 1 1.87203e-06 3.14e-06 3.21e-05 1.67e-05 
44 1 1.8206e-06 1.28e-05 3.69e-05 1.79e-05 
20 1 1.87203e-06 1.46e-05 1.57e-05 1.88e-05 
6 1 1.55317e-06 3.31e-05 2.04e-05 2.16e-05 
36 1 1.51202e-06 1.9e-05 3.96e-05 2.53e-05 
1 1 1.40917e-06 3.87e-05 1.23e-05 2.93e-05 
25 1 1.87203e-06 2.56e-05 4.61e-05 3.26e-05 
15 1 1.78974e-06 9.96e-06 2.57e-05 3.58e-05 
4 1 1.48117e-06 4.12e-05 3.84e-06 3.83e-05 
24 1 1.42974e-06 3.48e-05 2.72e-05 4.41e-05 
46 1 1.54288e-06 2.13e-05 3.59e-05 4.58e-05 
16 1 1.94403e-06 4e-05 9.32e-05 1.38e-05 
35 1 1.76917e-06 2.32e-05 7.94e-05 1.9e-05 
32 1 1.8206e-06 2.2e-06 7.75e-05 2e-05 
22 1 1.64574e-06 4.88e-05 7.66e-05 2.32e-05 
37 1 1.61488e-06 4.96e-05 6.99e-05 3.16e-05 
27 1 1.6766e-06 4.45e-05 6.49e-05 3.35e-05 
18 1 1.83089e-06 2.19e-05 6.32e-05 3.45e-05 
34 1 1.59431e-06 3.62e-06 5.9e-05 3.52e-05 
7 1 1.45031e-06 3.06e-05 5.49e-05 4.51e-05 
48 1 1.72803e-06 2.5e-05 6.31e-05 4.76e-05 
2 1 1.47088e-06 5.73e-05 1.29e-05 9.77e-06 
21 1 1.75889e-06 9.74e-05 4.81e-05 9.7e-06 
49 1 1.77946e-06 8.89e-05 4.33e-05 1.28e-05 
43 1 1.63546e-06 6.51e-05 3.95e-05 1.43e-05 
19 1 1.94403e-06 9.61e-05 3.11e-06 2.12e-05 
50 1 1.42974e-06 5.11e-05 4.54e-05 2.11e-05 
8 1 1.71774e-06 6.45e-05 3.26e-05 2.48e-05 
9 1 1.63546e-06 7.44e-05 2.46e-05 2.66e-05 
10 1 1.76917e-06 8.66e-05 3.4e-05 2.83e-05 
28 1 1.47088e-06 6.5e-05 1.9e-05 3.38e-05 
3 1 1.41945e-06 7.54e-05 1.95e-05 3.87e-05 
11 1 1.49145e-06 9.5e-05 3.67e-06 3.95e-05 
47 1 1.9646e-06 8.86e-05 1.94e-05 3.99e-05 
41 1 1.59431e-06 9.62e-05 3.08e-05 3.96e-05 
29 1 1.47088e-06 6.48e-05 2.39e-05 4.41e-05 
17 1 1.87203e-06 7.96e-05 2.22e-06 4.58e-05 
45 1 1.48117e-06 5.55e-05 5.94e-05 9e-06 
38 1 1.70746e-06 8.55e-05 8.22e-05 9.47e-06 
5 1 1.92346e-06 9.14e-05 6.65e-05 1.1e-05 
30 1 1.80003e-06 8.74e-05 7.21e-05 1.57e-05 
12 1 1.94403e-06 5.55e-05 8.18e-05 1.9e-05 
13 1 1.47088e-06 7.78e-05 7.15e-05 2.61e-05 
26 1 1.76917e-06 6.28e-05 7.99e-05 2.62e-05 
23 1 1.68688e-06 5.51e-05 8.19e-05 3.47e-05 
42 1 1.88232e-06 6.49e-05 8.43e-05 3.76e-05 
31 1 1.76917e-06 6.07e-05 6.74e-05 4.4e-05 
14 1 1.85146e-06 5.65e-05 8.62e-05 4.62e-05 
ITEM: TIMESTEP
600
ITEM: NUMBER OF ATOMS
51
ITEM: BOX BOUNDS ff ff ff
0.0000000000000000e+00 1.0000000000000000e-04
0.0000000000000000e+00 1.0000000000000000e-04
0.0000000000000000e+00 5.0000000000000002e-05
ITEM: ATOMS id type diameter x y z 
33 1 1.77917e-06 4.71e-05 2.97e-05 6.83e-06 
40 1 1.96537e-06 4.23e-05 3.09e-05 1.34e-05 
39 1 1.88261e-06 3.14e-06 3.21e-05 1.67e-05 
44 1 1.83089e-06 1.28e-05 3.69e-05 1.79e-05 
20 1 1.88261e-06 1.46e-05 1.57e-05 1.88e-05 
6 1 1.56195e-06 3.31e-05 2.04e-05 2.16e-05 
36 1 1.52057e-06 1.9e-05 3.96e-05 2.53e-05 
1 1 1.41713e-06 3.87e-05 1.23e-05 2.93e-05 
25 1 1.88261e-06 2.56e-05 4.61e-05 3.26e-05 
15 1 1.79986e-06 9.96e-06 2.57e-05 3.58e-05 
4 1 1.48954e-06 4.12e-05 3.84e-06 3.83e-05 
24 1 1.43782e-06 3.48e-05 2.72e-05 4.41e-05 
46 1 1.5516e-06 2.13e-05 3.59e-05 4.58e-05 
16 1 1.95502e-06 4e-05 9.32e-05 1.38e-05 
35 1 1.77917e-06 2.32e-05 7.94e-05 1.9e-05 
32 1 1.83089e-06 2.2e-06 7.75e-05 2e-05 
22 1 1.65504e-06 4.88e-05 7.66e-05 2.32e-05 
37 1 1.62401e-06 4.96e-05 6.99e-05 3.16e-05 
27 1 1.68608e-06 4.45e-05 6.49e-05 3.35e-05 
18 1 1.84124e-06 2.19e-05 6.32e-05 3.45e-05 
34 1 1.60332e-06 3.62e-06 5.9e-05 3.52e-05 
7 1 1.45851e-06 3.06e-05 5.49e-05 4.51e-05 
48 1 1.7378e-06 2.5e-05 6.31e-05 4.76e-05 
2 1 1.4792e-06 5.73e-05 1.29e-05 9.77e-06 
21 1 1.76883e-06 9.74e-05 4.81e-05 9.7e-06 
49 1 1.78952e-06 8.89e-05 4.33e-05 1.28e-05 
43 1 1.6447e-06 6.51e-05 3.95e-05 1.43e-05 
19 1 1.95502e-06 9.61e-05 3.11e-06 2.12e-05 
50 1 1.43782e-06 5.11e-05 4.54e-05 2.11e-05 
8 1 1.72745e-06 6.45e-05 3.26e-05 2.48e-05 
9 1 1.6447e-06 7.44e-05 2.46e-05 2.66e-05 
10 1 1.77917e-06 8.66e-05 3.4e-05 2.83e-05 
28 1 1.4792e-06 6.5e-05 1.9e-05 3.38e-05 
3 1 1.42748e-06 7.54e-05 1.95e-05 3.87e-05 
11 1 1.49988e-06 9.5e-05 3.67e-06 3.95e-05 
47 1 1.50623e-06 8.84456e-05 2.00713e-05 4.02033e-05 
41 1 1.60332e-06 9.62e-05 3.08e-05 3.96e-05 
29 1 1.4792e-06 6.48e-05 2.39e-05 4.41e-05 
17 1 1.88261e-06 7.96e-05 2.22e-06 4.58e-05 
51 1 1.62548e-06 8.87666e-05 1.86756e-05 3.95727e-05 
45 1 1.48954e-06 5.55e-05 5.94e-05 9e-06 
38 1 1.71711e-06 8.55e-05 8.22e-05 9.47e-06 
5 1 1.93433e-06 9.14e-05 6.65e-05 1.1e-05 
30 1 1.81021e-06 8.74e-05 7.21e-05 1.57e-05 
12 1 1.95502e-06 5.55e-05 8.18e-05 1.9e-05 
13 1 1.4792e-06 7.78e-05 7.15e-05 2.61e-05 
26 1 1.77917e-06 6.28e-05 7.99e-05 2.62e-05 
23 1 1.69642e-06 5.51e-05 8.19e-05 3.47e-05 
42 1 1.89296e-06 6.49e-05 8.43e-05 3.76e-05 
31 1 1.77917e-06 6.07e-05 6.74e-05 4.4e-05 
14 1 1.86193e-06 5.65e-05 8.62e-05 4.62e-05 
ITEM: TIMESTEP
700
ITEM: NUMBER OF ATOMS
52
ITEM: BOX BOUNDS ff ff ff
0.0000000000000000e+00 1.0000000000000000e-04
0.0000000000000000e+00 1.0000000000000000e-04
0.0000000000000000e+00 5.0000000000000002e-05
ITEM: ATOMS id type diameter x y z 
33 1 1.78923e-06 4.71e-05 2.97e-05 6.83e-06 
40 1 1.50682e-06 4.21456e-05 3.15715e-05 1.37034e-05 
39 1 1.89326e-06 3.14e-06 3.21e-05 1.67e-05 
44 1 1.84124e-06 1.28e-05 3.69e-05 1.79e-05 
20 1 1.89326e-06 1.46e-05 1.57e-05 1.88e-05 
52 1 1.62611e-06 4.24667e-05 3.01753e-05 1.30725e-05 
6 1 1.57078e-06 3.31e-05 2.04e-05 2.16e-05 
36 1 1.52917e-06 1.9e-05 3.96e-05 2.53e-05 
1 1 1.42514e-06 3.87e-05 1.23e-05 2.93e-05 
25 1 1.89326e-06 2.56e-05 4.61e-05 3.26e-05 
15 1 1.81004e-06 9.96e-06 2.57e-05 3.58e-05 
4 1 1.49796e-06 4.12e-05 3.84e-06 3.83e-05 
24 1 1.44595e-06 3.48e-05 2.72e-05 4.41e-05 
46 1 1.56038e-06 2.13e-05 3.59e-05 4.58e-05 
16 1 1.96607e-06 4e-05 9.32e-05 1.38e-05 
35 1 1.78923e-06 2.32e-05 7.94e-05 1.9e-05 
32 1 1.84124e-06 2.2e-06 7.75e-05 2e-05 
22 1 1.6644e-06 4.88e-05 7.66e-05 2.32e-05 
37 1 1.63319e-06 4.96e-05 6.99e-05 3.16e-05 
27 1 1.69561e-06 4.45e-05 6.49e-05 3.35e-05 
18 1 1.85165e-06 2.19e-05 6.32e-05 3.45e-05 
34 1 1.61239e-06 3.62e-06 5.9e-05 3.52e-05 
7 1 1.46675e-06 3.06e-05 5.49e-05 4.51e-05 
48 1 1.74762e-06 2.5e-05 6.31e-05 4.76e-05 
2 1 1.48756e-06 5.73e-05 1.29e-05 9.77e-06 
21 1 1.77883e-06 9.74e-05 4.81e-05 9.7e-06 
49 1 1.79963e-06 8.89e-05 4.33e-05 1.28e-05 
43 1 1.654e-06 6.51e-05 3.95e-05 1.43e-05 
19 1 1.96607e-06 9.61e-05 3.11e-06 2.12e-05 
50 1 1.44595e-06 5.11e-05 4.54e-05 2.11e-05 
8 1 1.73722e-06 6.45e-05 3.26e-05 2.48e-05 
9 1 1.654e-06 7.44e-05 2.46e-05 2.66e-05 
10 1 1.78923e-06 8.66e-05 3.4e-05 2.83e-05 
28 1 1.48756e-06 6.5e-05 1.9e-05 3.38e-05 
3 1 1.43555e-06 7.54e-05 1.95e-05 3.87e-05 
11 1 1.50836e-06 9.5e-05 3.67e-06 3.95e-05 
47 1 1.51475e-06 8.84456e-05 2.00713e-05 4.02033e-05 
41 1 1.61239e-06 9.62e-05 3.08e-05 3.96e-05 
29 1 1.48756e-06 6.48e-05 2.39e-05 4.41e-05 
17 1 1.89326e-06 7.96e-05 2.22e-06 4.58e-05 
51 1 1.63467e-06 8.87666e-05 1.86756e-05 3.95727e-05 
45 1 1.49796e-06 5.55e-05 5.94e-05 9e-06 
38 1 1.72682e-06 8.55e-05 8.22e-05 9.47e-06 
5 1 1.94527e-06 9.14e-05 6.65e-05 1.1e-05 
30 1 1.82044e-06 8.74e-05 7.21e-05 1.57e-05 
12 1 1.96607e-06 5.55e-05 8.18e-05 1.9e-05 
13 1 1.48756e-06 7.78e-05 7.15e-05 2.61e-05 
26 1 1.78923e-06 6.28e-05 7.99e-05 2.62e-05 
23 1 1.70601e-06 5.51e-05 8.19e-05 3.47e-05 
42 1 1.90366e-06 6.49e-05 8.43e-05 3.76e-05 
31 1 1.78923e-06 6.07e-05 6.74e-05 4.4e-05 
14 1 1.87245e-06 5.65e-05 8.62e-05 4.62e-05 
ITEM: TIMESTEP
800
ITEM: NUMBER OF ATOMS
55
ITEM: BOX BOUNDS ff ff ff
0.0000000000000000e+00 1.0000000000000000e-04
0.0000000000000000e+00 1.0000000000000000e-04
0.0000000000000000e+00 5.0000000000000002e-05
ITEM: ATOMS id type diameter x y z 
33 1 1.79935e-06 4.71e-05 2.97e-05 6.83e-06 
40 1 1.51534e-06 4.21456e-05 3.15715e-05 1.37034e-05 
39 1 1.90396e-06 3.14e-06 3.21e-05 1.67e-05 
44 1 1.85165e-06 1.28e-05 3.69e-05 1.79e-05 
20 1 1.90396e-06 1.46e-05 1.57e-05 1.88e-05 
52 1 1.6353e-06 4.24667e-05 3.01753e-05 1.30725e-05 
6 1 1.57966e-06 3.31e-05 2.04e-05 2.16e-05 
36 1 1.53781e-06 1.9e-05 3.96e-05 2.53e-05 
1 1 1.4332e-06 3.87e-05 1.23e-05 2.93e-05 
25 1 1.90396e-06 2.56e-05 4.61e-05 3.26e-05 
15 1 1.82027e-06 9.96e-06 2.57e-05 3.58e-05 
4 1 1.50643e-06 4.12e-05 3.84e-06 3.83e-05 
24 1 1.45412e-06 3.48e-05 2.72e-05 4.41e-05 
46 1 1.5692e-06 2.13e-05 3.59e-05 4.58e-05 
16 1 1.50736e-06 3.98455e-05 9.38718e-05 1.41035e-05 
35 1 1.79935e-06 2.32e-05 7.94e-05 1.9e-05 
53 1 1.62669e-06 4.01667e-05 9.2475e-05 1.34724e-05 
32 1 1.85165e-06 2.2e-06 7.75e-05 2e-05 
22 1 1.67381e-06 4.88e-05 7.66e-05 2.32e-05 
37 1 1.64243e-06 4.96e-05 6.99e-05 3.16e-05 
27 1 1.70519e-06 4.45e-05 6.49e-05 3.35e-05 
18 1 1.86211e-06 2.19e-05 6.32e-05 3.45e-05 
34 1 1.6215e-06 3.62e-06 5.9e-05 3.52e-05 
7 1 1.47505e-06 3.06e-05 5.49e-05 4.51e-05 
48 1 1.7575e-06 2.5e-05 6.31e-05 4.76e-05 
2 1 1.49597e-06 5.73e-05 1.29e-05 9.77e-06 
21 1 1.78889e-06 9.74e-05 4.81e-05 9.7e-06 
49 1 1.80981e-06 8.89e-05 4.33e-05 1.28e-05 
43 1 1.66335e-06 6.51e-05 3.95e-05 1.43e-05 
19 1 1.54503e-06 9.5415e-05 3.16908e-06 2.15511e-05 
50 1 1.45412e-06 5.11e-05 4.54e-05 2.11e-05 
8 1 1.74704e-06 6.45e-05 3.26e-05 2.48e-05 
9 1 1.66335e-06 7.44e-05 2.46e-05 2.66e-05 
10 1 1.79935e-06 8.66e-05 3.4e-05 2.83e-05 
28 1 1.49597e-06 6.5e-05 1.9e-05 3.38e-05 
3 1 1.44366e-06 7.54e-05 1.95e-05 3.87e-05 
11 1 1.51689e-06 9.5e-05 3.67e-06 3.95e-05 
47 1 1.52331e-06 8.84456e-05 2.00713e-05 4.02033e-05 
41 1 1.6215e-06 9.62e-05 3.08e-05 3.96e-05 
29 1 1.49597e-06 6.48e-05 2.39e-05 4.41e-05 
17 1 1.90396e-06 7.96e-05 2.22e-06 4.58e-05 
51 1 1.64391e-06 8.87666e-05 1.86756e-05 3.95727e-05 
54 1 1.59283e-06 9.68062e-05 3.04909e-06 2.0838e-05 
45 1 1.50643e-06 5.55e-05 5.94e-05 9e-06 
38 1 1.73658e-06 8.55e-05 8.22e-05 9.47e-06 
5 1 1.95627e-06 9.14e-05 6.65e-05 1.1e-05 
30 1 1.83073e-06 8.74e-05 7.21e-05 1.57e-05 
12 1 1.50736e-06 5.53455e-05 8.24718e-05 1.93035e-05 
55 1 1.62669e-06 5.56667e-05 8.1075e-05 1.86724e-05 
13 1 1.49597e-06 7.78e-05 7.15e-05 2.61e-05 
26 1 1.79935e-06 6.28e-05 7.99e-05 2.62e-05 
23 1 1.71566e-06 5.51e-05 8.19e-05 3.47e-05 
42 1 1.91442e-06 6.49e-05 8.43e-05 3.76e-05 
31 1 1.79935e-06 6.07e-05 6.74e-05 4.4e-05 
14 1 1.88304e-06 5.65e-05 8.62e-05 4.62e-05 
ITEM: TIMESTEP
900
ITEM: NUMBER OF ATOMS
55
ITEM: BOX BOUNDS ff ff ff
0.0000000000000000e+00 1.0000000000000000e-04
0.0000000000000000e+00 1.0000000000000000e-04
0.0000000000000000e+00 5.0000000000000002e-05
ITEM: ATOMS id type diameter x y z 
33 1 1.80952e-06 4.71e-05 2.97e-05 6.83e-06 
40 1 1.5239e-06 4.21456e-05 3.15715e-05 1.37034e-05 
39 1 1.91472e-06 3.14e-06 3.21e-05 1.67e-05 
44 1 1.86212e-06 1.28e-05 3.69e-05 1.79e-05 
20 1 1.91472e-06 1.46e-05 1.57e-05 1.88e-05 
52 1 1.64455e-06 4.24667e-05 3.01753e-05 1.30725e-05 
6 1 1.58859e-06 3.31e-05 2.04e-05 2.16e-05 
36 1 1.54651e-06 1.9e-05 3.96e-05 2.53e-05 
1 1 1.4413e-06 3.87e-05 1.23e-05 2.93e-05 
25 1 1.91472e-06 2.56e-05 4.61e-05 3.26e-05 
15 1 1.83056e-06 9.96e-06 2.57e-05 3.58e-05 
4 1 1.51495e-06 4.12e-05 3.84e-06 3.83e-05 
24 1 1.46234e-06 3.48e-05 2.72e-05 4.41e-05 
46 1 1.57807e-06 2.13e-05 3.59e-05 4.58e-05 
16 1 1.51588e-06 3.98455e-05 9.38718e-05 1.41035e-05 
35 1 1.80952e-06 2.32e-05 7.94e-05 1.9e-05 
53 1 1.63589e-06 4.01667e-05 9.2475e-05 1.34724e-05 
32 1 1.86212e-06 2.2e-06 7.75e-05 2e-05 
22 1 1.68327e-06 4.88e-05 7.66e-05 2.32e-05 
37 1 1.65171e-06 4.96e-05 6.99e-05 3.16e-05 
27 1 1.71483e-06 4.45e-05 6.49e-05 3.35e-05 
18 1 1.87264e-06 2.19e-05 6.32e-05 3.45e-05 
34 1 1.63067e-06 3.62e-06 5.9e-05 3.52e-05 
7 1 1.48338e-06 3.06e-05 5.49e-05 4.51e-05 
48 1 1.76744e-06 2.5e-05 6.31e-05 4.76e-05 
2 1 1.50443e-06 5.73e-05 1.29e-05 9.77e-06 
21 1 1.799e-06 9.74e-05 4.81e-05 9.7e-06 
49 1 1.82004e-06 8.89e-05 4.33e-05 1.28e-05 
43 1 1.67275e-06 6.51e-05 3.95e-05 1.43e-05 
19 1 1.55377e-06 9.5415e-05 3.16908e-06 2.15511e-05 
50 1 1.46234e-06 5.11e-05 4.54e-05 2.11e-05 
8 1 1.75692e-06 6.45e-05 3.26e-05 2.48e-05 
9 1 1.67275e-06 7.44e-05 2.46e-05 2.66e-05 
10 1 1.80952e-06 8.66e-05 3.4e-05 2.83e-05 
28 1 1.50443e-06 6.5e-05 1.9e-05 3.38e-05 
3 1 1.45182e-06 7.54e-05 1.95e-05 3.87e-05 
11 1 1.52547e-06 9.5e-05 3.67e-06 3.95e-05 
47 1 1.53192e-06 8.84456e-05 2.00713e-05 4.02033e-05 
41 1 1.63067e-06 9.62e-05 3.08e-05 3.96e-05 
29 1 1.50443e-06 6.48e-05 2.39e-05 4.41e-05 
17 1 1.91472e-06 7.96e-05 2.22e-06 4.58e-05 
51 1 1.6532e-06 8.87666e-05 1.86756e-05 3.95727e-05 
54 1 1.60184e-06 9.68062e-05 3.04909e-06 2.0838e-05 
45 1 1.51495e-06 5.55e-05 5.94e-05 9e-06 
38 1 1.7464e-06 8.55e-05 8.22e-05 9.47e-06 
5 1 1.96733e-06 9.14e-05 6.65e-05 1.1e-05 
30 1 1.84108e-06 8.74e-05 7.21e-05 1.57e-05 
12 1 1.51588e-06 5.53455e-05 8.24718e-05 1.93035e-05 
55 1 1.63589e-06 5.56667e-05 8.1075e-05 1.86724e-05 
13 1 1.50443e-06 7.78e-05 7.15e-05 2.61e-05 
26 1 1.80952e-06 6.28e-05 7.99e-05 2.62e-05 
23 1 1.72536e-06 5.51e-05 8.19e-05 3.47e-05 
42 1 1.92524e-06 6.49e-05 8.43e-05 3.76e-05 
31 1 1.80952e-06 6.07e-05 6.74e-05 4.4e-05 
14 1 1.89368e-06 5.65e-05 8.62e-05 4.62e-05 
ITEM: TIMESTEP
1000
ITEM: NUMBER OF ATOMS
56
ITEM: BOX BOUNDS ff ff ff
0.0000000000000000e+00 1.0000000000000000e-04
0.0000000000000000e+00 1.0000000000000000e-04
0.0000000000000000e+00 5.0000000000000002e-05
ITEM: ATOMS id type diameter x y z 
33 1 1.81975e-06 4.71e-05 2.97e-05 6.83e-06 
52 1 1.65384e-06 4.24667e-05 3.01753e-05 1.30725e-05 
40 1 1.53252e-06 4.21456e-05 3.15715e-05 1.37034e-05 
39 1 1.92555e-06 3.14e-06 3.21e-05 1.67e-05 
44 1 1.87265e-06 1.28e-05 3.69e-05 1.79e-05 
20 1 1.92555e-06 1.46e-05 1.57e-05 1.88e-05 
6 1 1.59757e-06 3.31e-05 2.04e-05 2.16e-05 
36 1 1.55525e-06 1.9e-05 3.96e-05 2.53e-05 
1 1 1.44945e-06 3.87e-05 1.23e-05 2.93e-05 
25 1 1.92555e-06 2.56e-05 4.61e-05 3.26e-05 
15 1 1.84091e-06 9.96e-06 2.57e-05 3.58e-05 
4 1 1.52351e-06 4.12e-05 3.84e-06 3.83e-05 
24 1 1.47061e-06 3.48e-05 2.72e-05 4.41e-05 
46 1 1.58699e-06 2.13e-05 3.59e-05 4.58e-05 
53 1 1.64514e-06 4.01667e-05 9.2475e-05 1.34724e-05 
16 1 1.52445e-06 3.98455e-05 9.38718e-05 1.41035e-05 
35 1 1.81975e-06 2.32e-05 7.94e-05 1.9e-05 
32 1 1.87265e-06 2.2e-06 7.75e-05 2e-05 
22 1 1.69279e-06 4.88e-05 7.66e-05 2.32e-05 
37 1 1.66105e-06 4.96e-05 6.99e-05 3.16e-05 
27 1 1.72453e-06 4.45e-05 6.49e-05 3.35e-05 
18 1 1.88323e-06 2.19e-05 6.32e-05 3.45e-05 
34 1 1.63989e-06 3.62e-06 5.9e-05 3.52e-05 
7 1 1.49177e-06 3.06e-05 5.49e-05 4.51e-05 
48 1 1.77743e-06 2.5e-05 6.31e-05 4.76e-05 
2 1 1.51293e-06 5.73e-05 1.29e-05 9.77e-06 
21 1 1.80917e-06 9.74e-05 4.81e-05 9.7e-06 
49 1 1.83033e-06 8.89e-05 4.33e-05 1.28e-05 
43 1 1.68221e-06 6.51e-05 3.95e-05 1.43e-05 
54 1 1.61089e-06 9.68062e-05 3.04909e-06 2.0838e-05 
50 1 1.47061e-06 5.11e-05 4.54e-05 2.11e-05 
19 1 1.56255e-06 9.5415e-05 3.16908e-06 2.15511e-05 
8 1 1.76685e-06 6.45e-05 3.26e-05 2.48e-05 
9 1 1.68221e-06 7.44e-05 2.46e-05 2.66e-05 
10 1 1.81975e-06 8.66e-05 3.4e-05 2.83e-05 
28 1 1.51293e-06 6.5e-05 1.9e-05 3.38e-05 
3 1 1.46003e-06 7.54e-05 1.95e-05 3.87e-05 
11 1 1.53409e-06 9.5e-05 3.67e-06 3.95e-05 
51 1 1.66255e-06 8.87707e-05 1.86577e-05 3.95646e-05 
41 1 1.63989e-06 9.62e-05 3.08e-05 3.96e-05 
47 1 1.54058e-06 8.84415e-05 2.00891e-05 4.02114e-05 
29 1 1.51293e-06 6.48e-05 2.39e-05 4.41e-05 
17 1 1.92555e-06 7.96e-05 2.22e-06 4.58e-05 
45 1 1.52351e-06 5.55e-05 5.94e-05 9e-06 
38 1 1.75627e-06 8.55e-05 8.22e-05 9.47e-06 
56 1 1.59385e-06 9.21067e-05 6.6439e-05 1.06378e-05 
5 1 1.54602e-06 9.07145e-05 6.65591e-05 1.13513e-05 
30 1 1.85149e-06 8.74e-05 7.21e-05 1.57e-05 
55 1 1.64514e-06 5.56667e-05 8.1075e-05 1.86724e-05 
12 1 1.52445e-06 5.53455e-05 8.24718e-05 1.93035e-05 
13 1 1.51293e-06 7.78e-05 7.15e-05 2.61e-05 
26 1 1.81975e-06 6.28e-05 7.99e-05 2.62e-05 
23 1 1.73511e-06 5.51e-05 8.19e-05 3.47e-05 
42 1 1.93613e-06 6.49e-05 8.43e-05 3.76e-05 
31 1 1.81975e-06 6.07e-05 6.74e-05 4.4e-05 
14 1 1.90439e-06 5.65e-05 8.62e-05 4.62e-05 
ITEM: TIMESTEP
1100
ITEM: NUMBER OF ATOMS
56
ITEM: BOX BOUNDS ff ff ff
0.0000000000000000e+00 1.0000000000000000e-04
0.0000000000000000e+00 1.0000000000000000e-04
0.0000000000000000e+00 5.0000000000000002e-05
ITEM: ATOMS id type diameter x y z 
33 1 1.83004e-06 4.71e-05 2.97e-05 6.83e-06 
52 1 1.66319e-06 4.24708e-05 3.01575e-05 1.30645e-05 
40 1 1.54118e-06 4.21415e-05 3.15894e-05 1.37115e-05 
39 1 1.93643e-06 3.14e-06 3.21e-05 1.67e-05 
44 1 1.88324e-06 1.28e-05 3.69e-05 1.79e-05 
20 1 1.93643e-06 1.46e-05 1.57e-05 1.88e-05 
6 1 1.6066e-06 3.31e-05 2.04e-05 2.16e-05 
36 1 1.56404e-06 1.9e-05 3.96e-05 2.53e-05 
1 1 1.45765e-06 3.87e-05 1.23e-05 2.93e-05 
25 1 1.93643e-06 2.56e-05 4.61e-05 3.26e-05 
15 1 1.85132e-06 9.96e-06 2.57e-05 3.58e-05 
4 1 1.53212e-06 4.12e-05 3.84e-06 3.83e-05 
24 1 1.47892e-06 3.48e-05 2.72e-05 4.41e-05 
46 1 1.59596e-06 2.13e-05 3.59e-05 4.58e-05 
53 1 1.65444e-06 4.01667e-05 9.2475e-05 1.34724e-05 
16 1 1.53307e-06 3.98455e-05 9.38718e-05 1.41035e-05 
35 1 1.83004e-06 2.32e-05 7.94e-05 1.9e-05 
32 1 1.88324e-06 2.2e-06 7.75e-05 2e-05 
22 1 1.70236e-06 4.88e-05 7.66e-05 2.32e-05 
37 1 1.67044e-06 4.96e-05 6.99e-05 3.16e-05 
27 1 1.73428e-06 4.45e-05 6.49e-05 3.35e-05 
18 1 1.89388e-06 2.19e-05 6.32e-05 3.45e-05 
34 1 1.64916e-06 3.62e-06 5.9e-05 3.52e-05 
7 1 1.5002e-06 3.06e-05 5.49e-05 4.51e-05 
48 1 1.78748e-06 2.5e-05 6.31e-05 4.76e-05 
2 1 1.52148e-06 5.73e-05 1.29e-05 9.77e-06 
21 1 1.8194e-06 9.74e-05 4.81e-05 9.7e-06 
49 1 1.84068e-06 8.89e-05 4.33e-05 1.28e-05 
43 1 1.69172e-06 6.51e-05 3.95e-05 1.43e-05 
54 1 1.62e-06 9.68062e-05 3.04909e-06 2.0838e-05 
50 1 1.47892e-06 5.11e-05 4.54e-05 2.11e-05 
19 1 1.57138e-06 9.5415e-05 3.16908e-06 2.15511e-05 
8 1 1.77684e-06 6.45e-05 3.26e-05 2.48e-05 
9 1 1.69172e-06 7.44e-05 2.46e-05 2.66e-05 
10 1 1.83004e-06 8.66e-05 3.4e-05 2.83e-05 
28 1 1.52148e-06 6.5e-05 1.9e-05 3.38e-05 