 NUFEB Simulation

     100 atoms 
     2 atom types 
     4 nutrients 

  0.0e-4   1.00e-04  xlo xhi 
  0.0e-4   1.00e-04  ylo yhi 
  0.0e-4   1.00e-05  zlo zhi 

 Atoms 

     1 1 1.47e-06  370 6.33e-05 6.36e-05 5.36e-06 1.47e-06 
     2 1 1.89e-06  370 7.55e-05 2.19e-06 4.11e-06 1.89e-06 
     3 1 1.80e-06  370 6.62e-05 6.70e-05 2.29e-06 1.80e-06 
     4 1 1.92e-06  370 6.13e-05 1.96e-06 4.12e-06 1.92e-06 
     5 1 1.89e-06  370 3.33e-05 2.58e-05 6.65e-06 1.89e-06 
     6 1 1.88e-06  370 3.73e-05 9.73e-05 3.78e-06 1.88e-06 
     7 1 1.52e-06  370 9.43e-05 3.92e-05 7.42e-06 1.52e-06 
     8 1 1.72e-06  370 3.68e-05 8.14e-06 6.01e-06 1.72e-06 
     9 1 1.92e-06  370 7.81e-05 7.17e-05 6.33e-06 1.92e-06 
     10 1 1.80e-06  370 4.78e-05 2.59e-05 5.43e-06 1.80e-06 
     11 1 1.77e-06  370 5.25e-05 5.91e-05 3.78e-06 1.77e-06 
     12 1 1.37e-06  370 3.72e-05 3.58e-05 2.86e-06 1.37e-06 
     13 1 1.64e-06  370 4.41e-05 2.34e-05 5.09e-06 1.64e-06 
     14 1 1.76e-06  370 1.96e-05 8.50e-05 3.27e-06 1.76e-06 
     15 1 1.88e-06  370 6.56e-05 6.70e-05 4.53e-06 1.88e-06 
     16 1 1.94e-06  370 7.74e-05 9.64e-05 6.48e-06 1.94e-06 
     17 1 1.43e-06  370 4.09e-05 8.98e-05 2.84e-06 1.43e-06 
     18 1 1.51e-06  370 6.81e-05 3.03e-05 5.37e-06 1.51e-06 
     19 1 1.75e-06  370 9.25e-05 9.59e-05 2.48e-06 1.75e-06 
     20 1 1.73e-06  370 6.59e-05 2.12e-05 5.49e-06 1.73e-06 
     21 1 1.74e-06  370 9.87e-06 9.23e-05 6.76e-06 1.74e-06 
     22 1 1.61e-06  370 8.04e-06 3.59e-05 4.07e-06 1.61e-06 
     23 1 1.50e-06  370 9.52e-06 3.06e-05 3.27e-06 1.50e-06 
     24 1 1.73e-06  370 4.76e-05 9.54e-05 2.84e-06 1.73e-06 
     25 1 1.60e-06  370 7.54e-05 1.77e-05 4.74e-06 1.60e-06 
     26 1 1.72e-06  370 2.26e-05 4.19e-05 7.39e-06 1.72e-06 
     27 1 1.85e-06  370 6.39e-05 3.64e-05 3.56e-06 1.85e-06 
     28 1 1.60e-06  370 3.65e-05 3.78e-05 5.40e-06 1.60e-06 
     29 1 1.50e-06  370 7.74e-05 5.76e-05 4.10e-06 1.50e-06 
     30 1 1.40e-06  370 5.32e-05 4.40e-05 6.30e-06 1.40e-06 
     31 1 1.44e-06  370 3.28e-05 9.39e-05 6.13e-06 1.44e-06 
     32 1 1.40e-06  370 4.41e-05 1.57e-05 5.51e-06 1.40e-06 
     33 1 1.68e-06  370 2.70e-05 6.99e-05 6.11e-06 1.68e-06 
     34 1 1.87e-06  370 9.92e-06 8.05e-05 6.77e-06 1.87e-06 
     35 1 1.49e-06  370 8.83e-05 1.26e-05 1.87e-06 1.49e-06 
     36 1 1.55e-06  370 6.44e-05 2.04e-06 2.37e-06 1.55e-06 
     37 1 1.91e-06  370 5.32e-06 7.67e-05 1.97e-06 1.91e-06 
     38 1 1.89e-06  370 5.51e-05 6.51e-05 2.44e-06 1.89e-06 
     39 1 1.69e-06  370 3.63e-05 2.60e-06 3.42e-06 1.69e-06 
     40 1 1.52e-06  370 3.98e-05 1.79e-05 7.18e-06 1.52e-06 
     41 1 1.70e-06  370 9.63e-05 3.18e-05 7.47e-06 1.70e-06 
     42 1 1.79e-06  370 9.47e-05 5.56e-05 2.21e-06 1.79e-06 
     43 1 1.62e-06  370 7.64e-05 6.72e-05 7.69e-06 1.62e-06 
     44 1 1.79e-06  370 6.74e-05 2.87e-05 4.87e-06 1.79e-06 
     45 1 1.66e-06  370 9.54e-05 1.41e-05 3.43e-06 1.66e-06 
     46 1 1.37e-06  370 2.47e-05 8.03e-05 4.89e-06 1.37e-06 
     47 1 1.63e-06  370 1.95e-06 6.76e-06 7.97e-06 1.63e-06 
     48 1 1.81e-06  370 2.53e-05 4.39e-05 6.17e-06 1.81e-06 
     49 1 1.50e-06  370 2.27e-05 8.36e-05 8.20e-06 1.50e-06 
     50 1 1.75e-06  370 5.97e-06 1.26e-05 7.91e-06 1.75e-06 
     51 2 8.88e-07  230 2.91e-05 7.46e-05 9.32e-07 8.88e-07 
     52 2 1.37e-06  230 2.00e-05 1.06e-05 2.30e-06 1.37e-06 
     53 2 1.17e-06  230 2.80e-05 4.28e-05 5.27e-06 1.17e-06 
     54 2 1.14e-06  230 1.97e-05 3.24e-05 4.36e-06 1.14e-06 
     55 2 1.32e-06  230 7.38e-05 4.54e-05 7.50e-06 1.32e-06 
     56 2 1.17e-06  230 7.71e-05 7.47e-05 5.66e-06 1.17e-06 
     57 2 1.16e-06  230 9.35e-05 6.92e-05 3.69e-06 1.16e-06 
     58 2 1.18e-06  230 4.84e-05 3.04e-05 5.76e-06 1.18e-06 
     59 2 1.03e-06  230 6.37e-05 8.82e-05 6.90e-06 1.03e-06 
     60 2 1.34e-06  230 1.86e-06 2.01e-05 3.09e-06 1.34e-06 
     61 2 8.97e-07  230 3.18e-05 5.85e-06 3.25e-06 8.97e-07 
     62 2 1.08e-06  230 7.68e-05 1.16e-05 5.90e-06 1.08e-06 
     63 2 1.01e-06  230 2.64e-05 4.11e-05 2.59e-06 1.01e-06 
     64 2 9.58e-07  230 1.73e-05 5.63e-05 7.56e-06 9.58e-07 
     65 2 9.64e-07  230 4.64e-05 1.84e-05 7.54e-06 9.64e-07 
     66 2 1.34e-06  230 8.47e-05 8.64e-05 1.89e-06 1.34e-06 
     67 2 1.20e-06  230 4.95e-05 3.43e-05 1.25e-06 1.20e-06 
     68 2 1.26e-06  230 7.53e-05 2.75e-06 1.47e-06 1.26e-06 
     69 2 1.34e-06  230 8.90e-05 4.88e-05 3.05e-06 1.34e-06 
     70 2 9.76e-07  230 1.09e-05 5.96e-05 1.09e-06 9.76e-07 
     71 2 8.80e-07  230 3.55e-05 1.28e-05 8.02e-06 8.80e-07 
     72 2 1.20e-06  230 3.94e-05 1.86e-05 8.03e-06 1.20e-06 
     73 2 9.12e-07  230 7.61e-05 6.74e-05 3.06e-06 9.12e-07 
     74 2 1.38e-06  230 1.28e-05 5.71e-06 3.99e-06 1.38e-06 
     75 2 1.26e-06  230 1.65e-05 4.73e-05 3.43e-06 1.26e-06 
     76 2 1.00e-06  230 3.41e-05 4.61e-05 1.90e-06 1.00e-06 
     77 2 8.80e-07  230 2.32e-05 4.41e-05 1.81e-06 8.80e-07 
     78 2 8.89e-07  230 8.29e-05 5.54e-05 6.75e-06 8.89e-07 
     79 2 1.33e-06  230 8.53e-05 4.82e-05 7.25e-06 1.33e-06 
     80 2 1.37e-06  230 7.12e-05 9.36e-05 1.55e-06 1.37e-06 
     81 2 1.37e-06  230 7.89e-05 2.34e-05 3.99e-06 1.37e-06 
     82 2 9.39e-07  230 9.65e-06 7.88e-05 4.63e-06 9.39e-07 
     83 2 1.23e-06  230 2.87e-05 1.90e-05 7.32e-06 1.23e-06 
     84 2 1.14e-06  230 4.78e-06 3.22e-05 5.97e-06 1.14e-06 
     85 2 1.11e-06  230 2.59e-05 2.61e-05 8.87e-06 1.11e-06 
     86 2 1.02e-06  230 3.62e-06 8.09e-05 2.70e-06 1.02e-06 
     87 2 1.15e-06  230 5.16e-05 3.02e-05 4.56e-06 1.15e-06 
     88 2 1.02e-06  230 3.88e-05 7.28e-05 4.33e-06 1.02e-06 
     89 2 1.10e-06  230 8.39e-05 6.59e-05 7.79e-06 1.10e-06 
     90 2 1.31e-06  230 2.89e-05 3.31e-05 3.13e-06 1.31e-06 
     91 2 1.13e-06  230 9.75e-05 5.91e-05 5.34e-06 1.13e-06 
     92 2 1.38e-06  230 4.91e-05 5.34e-05 2.92e-06 1.38e-06 
     93 2 1.03e-06  230 8.02e-05 7.70e-05 5.52e-06 1.03e-06 
     94 2 1.32e-06  230 3.63e-05 7.14e-05 5.05e-06 1.32e-06 
     95 2 1.19e-06  230 7.09e-05 2.26e-05 5.35e-06 1.19e-06 
     96 2 1.14e-06  230 9.05e-05 3.28e-05 6.91e-06 1.14e-06 
     97 2 1.14e-06  230 4.09e-05 3.04e-05 8.12e-06 1.14e-06 
     98 2 1.12e-06  230 9.64e-05 1.67e-05 7.50e-06 1.12e-06 
     99 2 9.71e-07  230 5.14e-06 8.97e-06 3.42e-06 9.71e-07 
     100 2 1.37e-06  230 2.08e-05 4.75e-05 7.07e-06 1.37e-06 

 Nutrients 

     1 sub g nn nn nn 1.00e-01 1.00e-01 
     2 o2 l nn nn nd 9.00e-03 9.00e-03 
     3 suc l nn nn nn 3.42e-20 3.42e-20 
     4 co2 l nn nn nd 2.99e-02 2.99e-02 

 Type Name 

     1 cyano  
     2 ecw  

 Diffusion Coeffs 

     sub 0 
     o2 2.3e-09 
     suc 5.2e-10 
     co2 1.9e-09 

 Growth Rate 

     cyano 1.67e-05 
     ecw 3e-05 

 Ks 

     cyano 0.00035 0.0002 0.01 0.000138 
     ecw 0 0.001 3.6 0.05 

 Yield 

     cyano 0.55 
     ecw 0.43 

 Maintenance 

     cyano 0 
     ecw 9.5e-07 

 Decay 

     cyano 0 
     ecw 0 



