LAMMPS (20 Nov 2019)
Reading data file ...
  orthogonal box = (0 0 0) to (0.0001 0.0001 1e-05)
  8 by 4 by 1 MPI processor grid
  reading atoms ...
  100 atoms
  4 nutrients
Lattice spacing in x,y,z = 100 100 100
50 atoms in group CYANO
50 atoms in group ECW
Model is defined as a closed system. 
Neighbor list info ...
  update every 1 steps, delay 0 steps, check yes
  max neighbors/atom: 5000, page size: 100000
  master list distance cutoff = 2.44e-06
  ghost atom cutoff = 2.44e-06
  binsize = 1.22e-06, bins = 82 82 9
  1 neighbor lists, perpetual/occasional/extra = 1 0 0
  (1) pair gran/hooke/history, perpetual
      attributes: half, newton off, size, history
      pair build: half/size/bin/newtoff
      stencil: half/bin/3d/newtoff
      bin: standard
Setting up Verlet run ...
  Unit style    : lj
  Current step  : 0
  Time step     : 10
Per MPI rank memory allocation (min/avg/max) = 5.796 | 10.45 | 12.11 Mbytes
Step CPU Atoms c_myNtypes[1] c_myNtypes[2] c_myMass[1] c_myMass[2] c_myCon[1] c_myCon[2] c_myCon[3] c_myCon[4] 
       0            0      100           50           50 4.711059e-14 9.4723763e-15          0.1        0.009     3.42e-20       0.0299 
number of iterations: 320366 
     100     15.35103      133           50           83 4.7734909e-14 9.4669373e-15          0.1  0.009000815  0.037835436  0.029898642 
number of iterations: 3052 
     200    15.644925      157           50          107 4.8367502e-14 9.4639783e-15          0.1 0.0090008256  0.074933813  0.029898625 
number of iterations: 2291 
     300    15.893736      157           50          107 4.9008479e-14 9.463538e-15          0.1 0.0090008364   0.11246271  0.029898606 
number of iterations: 1948 
     400    16.131659      158           51          107 4.965795e-14 9.4656002e-15          0.1 0.0090008474   0.15043056  0.029898588 
number of iterations: 1718 
     500    16.355124      158           51          107 5.0316028e-14 9.4701462e-15          0.1 0.0090008584   0.18884485  0.029898569 
number of iterations: 1568 
     600    16.591988      160           53          107 5.0982826e-14 9.4771588e-15          0.1 0.0090008697   0.22771304  0.029898551 
number of iterations: 1436 
     700    16.789044      161           54          107 5.1658462e-14 9.4866219e-15          0.1 0.0090008798   0.26704227  0.029898534 
number of iterations: 1411 
     800    17.003169      161           54          107 5.2343051e-14 9.4985219e-15          0.1 0.0090008913   0.30683975  0.029898514 
number of iterations: 1414 
     900    17.313025      161           54          107 5.3036712e-14 9.5128468e-15          0.1  0.009000903   0.34711274  0.029898495 
number of iterations: 1499 
    1000    17.515458      164           57          107 5.3739566e-14 9.5295872e-15          0.1 0.0090009148   0.38786852  0.029898475 
number of iterations: 1419 
    1100    17.726448      166           59          107 5.4451734e-14 9.5487365e-15          0.1 0.0090009268   0.42911446  0.029898455 
number of iterations: 1422 
    1200    17.907669      167           60          107 5.517334e-14 9.5702844e-15          0.1  0.009000939   0.47085816  0.029898434 
number of iterations: 1425 
    1300    18.095498      167           60          107 5.5904509e-14 9.5942274e-15          0.1 0.0090009513   0.51310695  0.029898413 
number of iterations: 1428 
    1400    18.293529      168           60          108 5.6645368e-14 9.6205617e-15          0.1 0.0090009638   0.55586833  0.029898393 
number of iterations: 1440 
    1500    18.487778      169           61          108 5.7396044e-14 9.6492864e-15          0.1 0.0090009764   0.59914987  0.029898371 
number of iterations: 1433 
    1600    18.684024      169           61          108 5.8156669e-14 9.6804024e-15          0.1 0.0090009893   0.64295916   0.02989835 
number of iterations: 1436 
    1700    18.868258      169           61          108 5.8927374e-14 9.7139121e-15          0.1 0.0090010022   0.68730387  0.029898328 
number of iterations: 1439 
    1800    19.045363      169           61          108 5.9708292e-14 9.7498191e-15          0.1 0.0090010154   0.73219175  0.029898306 
number of iterations: 1442 
    1900    19.237295      169           61          108 6.0499559e-14 9.7881291e-15          0.1 0.0090010288   0.77763058  0.029898284 
number of iterations: 1528 
    2000    19.445702      172           62          110 6.1301312e-14 9.8288489e-15          0.1  0.009001047   0.82362823  0.029898253 
number of iterations: 1480 
    2100    19.662293      175           64          111 6.211369e-14 9.8719851e-15          0.1 0.0090010623   0.87019264  0.029898227 
number of iterations: 1451 
    2200    19.870589      177           66          111 6.2936834e-14 9.9175515e-15          0.1 0.0090010763   0.91733199  0.029898204 
number of iterations: 1453 
    2300    20.067472      177           66          111 6.3770886e-14 9.9655588e-15          0.1 0.0090010904   0.96505415   0.02989818 
number of iterations: 1456 
    2400    20.282358      177           66          111 6.4615991e-14 1.001602e-14          0.1 0.0090011048    1.0133673  0.029898156 
number of iterations: 1450 
    2500    20.508979      179           67          112 6.5472296e-14 1.0068953e-14          0.1 0.0090011168    1.0622796  0.029898136 
number of iterations: 1461 
    2600    20.739057      181           68          113 6.6339949e-14 1.0124371e-14          0.1 0.0090011315    1.1117995  0.029898111 
number of iterations: 1467 
    2700    20.920689      183           70          113  6.72191e-14 1.0182293e-14          0.1 0.0090011464    1.1619355  0.029898086 
number of iterations: 1467 
    2800    21.126433      183           70          113 6.8109901e-14 1.0242739e-14          0.1 0.0090011615    1.2126959  0.029898061 
number of iterations: 1723 
    2900    21.330274      184           71          113 6.9012508e-14 1.0305729e-14          0.1 0.0090011812    1.2640892  0.029898028 
number of iterations: 1499 
    3000    21.556885      187           73          114 6.9927077e-14 1.037129e-14          0.1 0.0090011968    1.3161241  0.029898002 
number of iterations: 1628 
    3100    21.775097      191           75          116 7.0853765e-14 1.0439438e-14          0.1  0.009001217    1.3688089  0.029897968 
number of iterations: 1480 
    3200    21.974349      191           75          116 7.1792734e-14 1.0510203e-14          0.1 0.0090012331    1.4221528  0.029897941 
number of iterations: 1482 
    3300    22.159624      191           75          116 7.2744147e-14 1.0583612e-14          0.1 0.0090012493    1.4761646  0.029897914 
number of iterations: 1476 
    3400    22.377408      192           76          116 7.3708167e-14 1.0659695e-14          0.1 0.0090012657    1.5308535  0.029897886 
number of iterations: 1470 
    3500    22.546796      193           77          116 7.4684963e-14 1.0738483e-14          0.1 0.0090012824    1.5862284  0.029897858 
number of iterations: 1490 
    3600    22.728599      194           77          117 7.5674704e-14 1.0820007e-14          0.1 0.0090012993    1.6422985   0.02989783 
number of iterations: 1496 
    3700    22.922074      195           78          117 7.6677561e-14  1.09043e-14          0.1 0.0090013164    1.6990729  0.029897801 
number of iterations: 1496 
    3800    23.092692      195           78          117 7.7693708e-14 1.0991396e-14          0.1 0.0090013338     1.756561  0.029897772 
number of iterations: 1567 
    3900    23.291003      197           79          118 7.8723322e-14 1.1081332e-14          0.1 0.0090013514    1.8147721  0.029897743 
number of iterations: 1502 
    4000    23.504626      199           79          120 7.976658e-14 1.1174145e-14          0.1 0.0090013691     1.873716  0.029897713 
number of iterations: 1483 
    4100    23.681746      199           79          120 8.0823663e-14 1.1269878e-14          0.1 0.0090013872    1.9334022  0.029897683 
number of iterations: 1507 
    4200    23.862299      200           80          120 8.1894755e-14 1.1368571e-14          0.1 0.0090014055    1.9938406  0.029897652 
number of iterations: 1510 
    4300     24.07604      200           80          120 8.2980041e-14 1.1470267e-14          0.1  0.009001424     2.055041  0.029897621 
number of iterations: 1612 
    4400    24.271857      201           81          120 8.407971e-14 1.1575009e-14          0.1 0.0090014378    2.1170135  0.029897598 
number of iterations: 1511 
    4500    24.446806      203           82          121 8.5193952e-14 1.1682843e-14          0.1 0.0090014518    2.1797681  0.029897574 
number of iterations: 1596 
    4600     24.61742      205           83          122 8.632296e-14 1.1793815e-14          0.1 0.0090014739    2.2433146  0.029897537 
number of iterations: 1520 
    4700    24.816826      205           83          122 8.7466929e-14 1.1907978e-14          0.1 0.0090014933    2.3076636  0.029897505 
number of iterations: 1524 
    4800    25.028607      210           85          125 8.8626059e-14 1.202539e-14          0.1  0.009001513    2.3728256  0.029897472 
number of iterations: 1526 
    4900    25.226213      211           85          126 8.980055e-14 1.2146097e-14          0.1  0.009001533    2.4388109  0.029897438 
number of iterations: 1528 
    5000    25.449769      211           85          126 9.0990606e-14 1.2270156e-14          0.1 0.0090015532    2.5056304  0.029897404 
number of iterations: 1666 
    5100    25.653572      214           86          128 9.2196432e-14 1.2397627e-14          0.1 0.0090015783    2.5732945  0.029897362 
number of iterations: 1534 
    5200     25.82899      214           86          128 9.3418238e-14 1.2528565e-14          0.1 0.0090015991    2.6418143  0.029897327 
number of iterations: 1658 
    5300    26.030376      216           88          128 9.4656236e-14 1.2663032e-14          0.1 0.0090016277    2.7112009  0.029897279 
number of iterations: 1542 
    5400    26.210167      217           88          129 9.5910639e-14 1.2801089e-14          0.1 0.0090016492    2.7814651  0.029897243 
number of iterations: 1624 
    5500    26.416832      222           90          132 9.7181667e-14 1.2942804e-14          0.1 0.0090016709    2.8526186  0.029897207 
number of iterations: 1683 
    5600    26.620055      223           91          132 9.8469538e-14 1.3088241e-14          0.1 0.0090016964     2.924672  0.029897164 
number of iterations: 1685 
    5700    26.826441      228           94          134 9.9774477e-14 1.3237468e-14          0.1 0.0090017276    2.9976375  0.029897112 
number of iterations: 1559 
    5800    27.017362      232           96          136 1.0109671e-13 1.3390556e-14          0.1 0.0090017507    3.0715261  0.029897073 
number of iterations: 1571 
    5900    27.255566      236           98          138 1.0243646e-13 1.354758e-14          0.1 0.0090017738    3.1463499  0.029897035 
number of iterations: 1562 
    6000    27.446551      239           98          141 1.0379397e-13 1.3708614e-14          0.1 0.0090017972    3.2221205  0.029896995 
number of iterations: 1558 
    6100    27.647339      240           99          141 1.0516947e-13 1.3873737e-14          0.1 0.0090018169    3.2988495  0.029896962 
number of iterations: 1711 
    6200    27.859166      245          104          141 1.065632e-13 1.4043027e-14          0.1  0.009001851    3.3765498  0.029896905 
number of iterations: 1569 
    6300    28.026471      248          104          144 1.079754e-13 1.4216568e-14          0.1 0.0090018754    3.4552331  0.029896864 
number of iterations: 1546 
    6400    28.215492      250          106          144 1.0940631e-13 1.439444e-14          0.1 0.0090018943     3.534912  0.029896833 
number of iterations: 1672 
    6500    28.410444      256          109          147 1.1085618e-13 1.4576731e-14          0.1 0.0090019207     3.615599  0.029896788 
number of iterations: 1642 
    6600    28.593185      262          111          151 1.1232527e-13 1.4763528e-14          0.1 0.0090019531    3.6973062  0.029896734 
number of iterations: 1582 
    6700    28.777826      269          112          157 1.1381383e-13 1.4954925e-14          0.1 0.0090019789    3.7800467  0.029896691 
number of iterations: 1668 
    6800    28.987176      276          116          160 1.1532211e-13 1.5151017e-14          0.1 0.0090020048    3.8638335  0.029896647 
number of iterations: 1604 
    6900    29.178283      280          118          162 1.1685038e-13 1.5351897e-14          0.1 0.0090020328    3.9486792    0.0298966 
number of iterations: 1591 
    7000     29.36216      286          120          166 1.1839891e-13 1.5557661e-14          0.1 0.0090020565    4.0345972   0.02989656 
number of iterations: 1596 
    7100    29.553211      289          120          169 1.1996795e-13 1.5768416e-14          0.1 0.0090020863    4.1216009   0.02989651 
number of iterations: 1597 
    7200    29.746365      294          121          173 1.2155779e-13 1.5984268e-14          0.1 0.0090021139    4.2097035  0.029896464 
number of iterations: 1576 
    7300     29.96732      298          124          174 1.231687e-13 1.6205323e-14          0.1 0.0090021388    4.2989187  0.029896422 
number of iterations: 1638 
    7400    30.148136      303          126          177 1.2480096e-13 1.6431693e-14          0.1 0.0090021629    4.3892602  0.029896382 
number of iterations: 1666 
    7500    30.340519      308          128          180 1.2645484e-13 1.6663487e-14          0.1 0.0090021877     4.480742   0.02989634 
number of iterations: 1607 
    7600    30.588576      310          128          182 1.2813065e-13 1.6900823e-14          0.1 0.0090022166    4.5733785  0.029896292 
number of iterations: 1559 
    7700    30.796196      315          130          185 1.2982866e-13 1.7143821e-14          0.1 0.0090022412    4.6671837   0.02989625 
number of iterations: 1608 
    7800    30.978526      321          134          187 1.3154918e-13 1.7392606e-14          0.1 0.0090022707     4.762172  0.029896201 
number of iterations: 1590 
    7900    31.150393      327          135          192 1.3329249e-13 1.7647301e-14          0.1 0.0090022961    4.8583577  0.029896158 
number of iterations: 1616 
    8000    31.344588      332          136          196 1.3505891e-13 1.7908034e-14          0.1 0.0090023264    4.9557554  0.029896107 
number of iterations: 1596 
    8100    31.533496      338          138          200 1.3684874e-13 1.8174941e-14          0.1 0.0090023488    5.0543801  0.029896069 
number of iterations: 1626 
    8200    31.727036      341          139          202 1.3866228e-13 1.8448154e-14          0.1 0.0090023798    5.1542466  0.029896017 
number of iterations: 1642 
    8300    31.909759      345          142          203 1.4049986e-13 1.8727813e-14          0.1 0.0090024126      5.25537  0.029895962 
number of iterations: 1669 
    8400    32.096245      351          144          207 1.423618e-13 1.901406e-14          0.1  0.009002445    5.3577656  0.029895908 
number of iterations: 1628 
    8500    32.274453      354          145          209 1.442484e-13 1.9307049e-14          0.1 0.0090024741    5.4614489  0.029895859 
number of iterations: 1669 
    8600    32.497531      360          148          212 1.4616001e-13 1.9606925e-14          0.1 0.0090024959     5.566436  0.029895822 
number of iterations: 1600 
    8700    32.705616      366          150          216 1.4809695e-13 1.9913842e-14          0.1 0.0090025261     5.672742  0.029895771 
number of iterations: 1610 
    8800     32.88579      371          152          219 1.5005956e-13 2.0227957e-14          0.1 0.0090025544    5.7803828  0.029895724 
number of iterations: 1638 
    8900      33.0828      373          153          220 1.5204818e-13 2.0549437e-14          0.1  0.009002588    5.8893748  0.029895667 
number of iterations: 1707 
    9000    33.272048      377          155          222 1.5406315e-13 2.0878446e-14          0.1 0.0090026212    5.9997339  0.029895611 
number of iterations: 1658 
    9100    33.469309      382          156          226 1.5610483e-13 2.121516e-14          0.1 0.0090026557    6.1114766  0.029895553 
number of iterations: 1664 
    9200    33.663734      388          160          228 1.5817356e-13 2.155975e-14          0.1 0.0090026842    6.2246193  0.029895505 
number of iterations: 1633 
    9300    33.839914      391          160          231 1.602697e-13 2.1912395e-14          0.1 0.0090027129     6.339179  0.029895457 
number of iterations: 1651 
    9400    34.031905      394          161          233 1.6239363e-13 2.2273281e-14          0.1 0.0090027459    6.4551726  0.029895401 
number of iterations: 1681 
    9500    34.230614      399          163          236 1.645457e-13 2.2642597e-14          0.1 0.0090027819    6.5726174  0.029895341 
number of iterations: 1661 
    9600    34.454552      408          164          244 1.6672629e-13 2.3020536e-14          0.1 0.0090028194    6.6915303  0.029895278 
number of iterations: 1724 
    9700    34.665828      410          165          245 1.6893578e-13 2.3407297e-14          0.1 0.0090028597    6.8119289   0.02989521 
number of iterations: 1640 
    9800    34.880357      413          167          246 1.7117455e-13 2.3803087e-14          0.1 0.0090028943    6.9338308  0.029895152 
number of iterations: 1638 
    9900    35.076127      420          169          251 1.7344299e-13 2.4208112e-14          0.1 0.0090029198    7.0572534  0.029895109 
number of iterations: 1697 
   10000    35.274501      424          169          255 1.7574149e-13 2.4622589e-14          0.1 0.0090029611     7.182215  0.029895039 
number of iterations: 1669 
   10100    35.469991      428          170          258 1.7807045e-13 2.5046737e-14          0.1 0.0090030001    7.3087338  0.029894974 
number of iterations: 1675 
   10200    35.676709      433          171          262 1.8043027e-13 2.5480781e-14          0.1 0.0090030355     7.436828  0.029894914 
number of iterations: 1686 
   10300    35.865034      441          171          270 1.8282137e-13 2.5924953e-14          0.1 0.0090030796     7.566516   0.02989484 
number of iterations: 1677 
   10400    36.059367      449          172          277 1.8524415e-13 2.6379492e-14          0.1 0.0090031201    7.6978165  0.029894772 
number of iterations: 1659 
   10500    36.278093      459          178          281 1.8769904e-13 2.6844642e-14          0.1 0.0090031442    7.8307485  0.029894731 
number of iterations: 1680 
   10600    36.492242      465          180          285 1.9018646e-13 2.7320655e-14          0.1  0.009003179    7.9653309  0.029894672 
number of iterations: 1676 
   10700    36.735037      476          186          290 1.9270685e-13 2.7807785e-14          0.1 0.0090032102    8.1015822  0.029894619 
number of iterations: 1776 
   10800    36.937128      488          190          298 1.9526064e-13 2.8306296e-14          0.1 0.0090032572    8.2395222   0.02989454 
number of iterations: 1718 
   10900    37.158825      496          192          304 1.9784827e-13 2.8816457e-14          0.1  0.009003303    8.3791707  0.029894463 
number of iterations: 1712 
   11000    37.431135      506          195          311 2.0047019e-13 2.9338542e-14          0.1 0.0090033551    8.5205474  0.029894376 
number of iterations: 1693 
   11100    37.659003      516          198          318 2.0312686e-13 2.9872837e-14          0.1 0.0090033957    8.6636719  0.029894307 
number of iterations: 1697 
   11200    37.838657      521          198          323 2.0581874e-13 3.0419629e-14          0.1 0.0090034357    8.8085647   0.02989424 
number of iterations: 1720 
   11300    38.063668      530          201          329 2.0854628e-13 3.0979213e-14          0.1 0.0090034778    8.9552457  0.029894169 
number of iterations: 1685 
   11400    38.272258      543          207          336 2.1130998e-13 3.1551895e-14          0.1 0.0090035119    9.1037359  0.029894111 
number of iterations: 1687 
   11500    38.458787      558          213          345 2.141103e-13 3.2137986e-14          0.1 0.0090035544     9.254056  0.029894039 
number of iterations: 1692 
   11600    38.664277      565          214          351 2.1694773e-13 3.273781e-14          0.1 0.0090035976    9.4062265  0.029893966 
number of iterations: 1711 
   11700    38.876243      571          215          356 2.1982276e-13 3.3351697e-14          0.1 0.0090036449    9.5602684  0.029893886 
number of iterations: 1759 
   11800    39.084722      581          218          363 2.2273589e-13 3.3979976e-14          0.1 0.0090036919    9.7162028  0.029893807 
number of iterations: 1784 
   11900    39.296475      590          221          369 2.2568763e-13 3.4622996e-14          0.1 0.0090037509    9.8740513  0.029893708 
number of iterations: 1721 
   12000    39.523035      594          222          372 2.2867848e-13 3.528111e-14          0.1 0.0090037947    10.033835  0.029893634 
number of iterations: 1795 
   12100    39.714589      601          223          378 2.3170897e-13 3.5954685e-14          0.1 0.0090038555    10.195576  0.029893531 
number of iterations: 1712 
   12200    39.925413      618          229          389 2.3477962e-13 3.6644092e-14          0.1 0.0090039028    10.359296  0.029893451 
number of iterations: 1761 
   12300    40.139126      629          234          395 2.3789096e-13 3.7349716e-14          0.1 0.0090039564    10.525017  0.029893361 
number of iterations: 1801 
   12400    40.392242      641          237          404 2.4104354e-13 3.8071948e-14          0.1 0.0090040138    10.692762  0.029893264 
number of iterations: 1841 
   12500    40.613104      658          244          414 2.4423789e-13 3.8811187e-14          0.1 0.0090040877    10.862553   0.02989314 
number of iterations: 1811 
   12600    40.822635      667          247          420 2.4747457e-13 3.9567846e-14          0.1 0.0090041463    11.034413  0.029893041 
number of iterations: 1797 
   12700    41.037891      674          248          426 2.5075415e-13 4.0342346e-14          0.1 0.0090042032    11.208364  0.029892945 
number of iterations: 1724 
   12800    41.238561      687          253          434 2.5407719e-13 4.1135113e-14          0.1 0.0090042543     11.38443  0.029892859 
number of iterations: 1747 
   12900    41.441154      699          255          444 2.5744427e-13 4.1946598e-14          0.1 0.0090043101    11.562634  0.029892764 
number of iterations: 1800 
   13000    41.674183      712          262          450 2.6085596e-13 4.277725e-14          0.1 0.0090043629       11.743  0.029892675 
number of iterations: 1859 
   13100    41.876618      724          266          458 2.6431287e-13 4.3627541e-14          0.1 0.0090044276     11.92555  0.029892566 
number of iterations: 1756 
   13200    42.080086      737          269          468 2.6781559e-13 4.4497948e-14          0.1 0.0090044741    12.110309  0.029892487 
number of iterations: 1891 
   13300    42.294585      749          271          478 2.7136473e-13 4.5388959e-14          0.1 0.0090045388      12.2973  0.029892378 
number of iterations: 1743 
   13400    42.488907      760          274          486 2.7496091e-13 4.6301072e-14          0.1 0.0090045892    12.486548  0.029892292 
number of iterations: 1792 
   13500    42.685621      772          277          495 2.7860474e-13 4.7234807e-14          0.1 0.0090046466    12.678077  0.029892195 
number of iterations: 1789 
   13600    42.892195      786          280          506 2.8229686e-13 4.8190688e-14          0.1 0.0090047089    12.871911   0.02989209 
number of iterations: 1852 
   13700    43.105742      802          285          517 2.860379e-13 4.9169262e-14          0.1  0.009004786    13.068075   0.02989196 
number of iterations: 1786 
   13800    43.302712      820          292          528 2.8982853e-13 5.0171081e-14          0.1 0.0090048487    13.266593  0.029891854 
number of iterations: 1816 
   13900    43.506745      837          294          543 2.9366938e-13 5.1196719e-14          0.1 0.0090049104    13.467492  0.029891749 
number of iterations: 1767 
   14000      43.7996      847          296          551 2.9756114e-13 5.2246759e-14          0.1 0.0090049777    13.670795  0.029891636 
number of iterations: 1787 
   14100    43.993612      864          300          564 3.0150447e-13 5.3321798e-14          0.1 0.0090050389    13.876529  0.029891532 
number of iterations: 1775 
   14200    44.190878      874          303          571 3.0550006e-13 5.4422452e-14          0.1 0.0090051049    14.084718   0.02989142 
number of iterations: 1823 
   14300     44.41168      887          305          582 3.095486e-13 5.5549351e-14          0.1 0.0090051722    14.295389  0.029891307 
number of iterations: 1831 
   14400     44.63016      904          311          593 3.1365079e-13 5.6703139e-14          0.1 0.0090052424    14.508567  0.029891188 
number of iterations: 1785 
   14500    44.830628      919          314          605 3.1780735e-13 5.7884475e-14          0.1 0.0090053011    14.724278  0.029891088 
number of iterations: 1781 
   14600    45.044697      937          319          618 3.2201898e-13 5.9094036e-14          0.1 0.0090053702    14.942548  0.029890971 
number of iterations: 1761 
   14700    45.279659      960          323          637 3.2628643e-13 6.0332516e-14          0.1 0.0090054318    15.163403  0.029890866 
number of iterations: 1874 
   14800    45.509372      975          327          648 3.3061044e-13 6.1600638e-14          0.1 0.0090055071     15.38687  0.029890739 
number of iterations: 1818 
   14900    45.775566      988          329          659 3.3499174e-13 6.2899128e-14          0.1 0.0090055822    15.612975  0.029890612 
number of iterations: 1791 
   15000      45.9816     1005          329          676 3.3943111e-13 6.4228739e-14          0.1 0.0090056422    15.841745  0.029890509 
number of iterations: 1828 
   15100    46.181936     1027          333          694 3.4392931e-13 6.5590238e-14          0.1 0.0090057292    16.073206  0.029890363 
number of iterations: 1819 
   15200    46.382036     1053          339          714 3.4848711e-13 6.6984407e-14          0.1 0.0090057988    16.307386  0.029890244 
number of iterations: 1814 
   15300    46.602315     1067          341          726 3.5310532e-13 6.8412062e-14          0.1 0.0090058747    16.544311  0.029890116 
number of iterations: 1869 
   15400    46.807693     1085          345          740 3.5778473e-13 6.9874029e-14          0.1 0.0090059491    16.784009  0.029889989 
number of iterations: 1812 
   15500    47.018605     1105          352          753 3.6252616e-13 7.1371155e-14          0.1 0.0090060293    17.026507  0.029889853 
number of iterations: 1831 
   15600    47.250408     1121          358          763 3.6733041e-13 7.2904314e-14          0.1 0.0090061046    17.271833  0.029889725 
number of iterations: 1788 
   15700    47.451433     1147          364          783 3.7219833e-13 7.4474393e-14          0.1 0.0090061775    17.520014  0.029889601 
number of iterations: 1900 
   15800    47.708522     1162          366          796 3.7713077e-13 7.6082315e-14          0.1 0.0090062677    17.771077  0.029889449 
number of iterations: 1869 
   15900    47.919264     1183          371          812 3.8212857e-13 7.7729021e-14          0.1 0.0090063589    18.025051  0.029889294 
number of iterations: 1823 
   16000    48.129566     1206          376          830 3.871926e-13 7.9415472e-14          0.1 0.0090064363    18.281962  0.029889162 
number of iterations: 1819 
   16100    48.326706     1233          380          853 3.9232373e-13 8.114265e-14          0.1 0.0090065164    18.541839  0.029889026 
number of iterations: 1855 
   16200     48.56228     1262          385          877 3.9752287e-13 8.2911577e-14          0.1 0.0090065989    18.804711  0.029888886 
number of iterations: 1854 
   16300    48.768208     1285          390          895 4.0279091e-13 8.472328e-14          0.1 0.0090066862    19.070604  0.029888737 
number of iterations: 1855 
   16400    48.986995     1319          399          920 4.0812876e-13 8.6578831e-14          0.1 0.0090067721    19.339547  0.029888591 
number of iterations: 1885 
   16500     49.20581     1338          405          933 4.1353734e-13 8.8479316e-14          0.1 0.0090068685    19.611569  0.029888427 
number of iterations: 1854 
   16600    49.424022     1365          409          956 4.190176e-13 9.042586e-14          0.1 0.0090069561    19.886697  0.029888278 
number of iterations: 1911 
   16700    49.631604     1386          416          970 4.2457049e-13 9.2419613e-14          0.1 0.0090070552    20.164961   0.02988811 
number of iterations: 1851 
   16800     49.87188     1417          420          997 4.3019697e-13 9.4461749e-14          0.1  0.009007137    20.446389   0.02988797 
number of iterations: 1837 
   16900    50.090245     1441          427         1014  4.35898e-13 9.6553483e-14          0.1 0.0090072185    20.731008  0.029887831 
number of iterations: 1873 
   17000    50.298392     1470          432         1038 4.4167459e-13 9.8696053e-14          0.1 0.0090073142    21.018846  0.029887668 
number of iterations: 1852 
   17100    50.530455     1501          440         1061 4.4752773e-13 1.0089072e-13          0.1 0.0090074136    21.309934  0.029887498 
number of iterations: 1866 
   17200    50.765367     1529          447         1082 4.5345843e-13 1.0313879e-13          0.1 0.0090075021    21.604299  0.029887347 
number of iterations: 1849 
   17300    51.012056     1559          452         1107 4.5946773e-13 1.0544159e-13          0.1 0.0090075818     21.90197   0.02988721 
number of iterations: 1869 
   17400    51.215303     1598          461         1137 4.6555667e-13 1.078005e-13          0.1 0.0090076757    22.202975   0.02988705 
number of iterations: 1874 
   17500    51.425815     1633          475         1158 4.717263e-13 1.1021691e-13          0.1  0.009007767    22.507342  0.029886894 
number of iterations: 1900 
   17600    51.637195     1662          481         1181 4.7797769e-13 1.1269228e-13          0.1 0.0090078693    22.815099   0.02988672 
number of iterations: 1877 
   17700    51.886896     1692          485         1207 4.8431192e-13 1.1522808e-13          0.1 0.0090079697    23.126275  0.029886548 
number of iterations: 1879 
   17800    52.102127     1730          492         1238 4.9073009e-13 1.1782582e-13          0.1  0.009008068    23.440899   0.02988638 
number of iterations: 1927 
   17900    52.331771     1757          500         1257 4.9723332e-13 1.2048705e-13          0.1 0.0090081654    23.758999  0.029886213 
number of iterations: 1910 
   18000    52.557085     1797          505         1292 5.0382273e-13 1.2321337e-13          0.1  0.009008275    24.080603  0.029886026 
number of iterations: 1989 
   18100    52.788089     1833          512         1321 5.1049946e-13 1.2600639e-13          0.1 0.0090084051    24.405739  0.029885804 
number of iterations: 1894 
   18200    53.012272     1863          515         1348 5.1726467e-13 1.2886781e-13          0.1 0.0090085146    24.734434  0.029885617 
number of iterations: 1891 
   18300    53.241096     1902          522         1380 5.2411954e-13 1.3179933e-13          0.1 0.0090086168    25.066717  0.029885442 
number of iterations: 1858 
   18400    53.434595     1937          525         1412 5.3106525e-13 1.3480272e-13          0.1 0.0090087157    25.402614  0.029885273 
number of iterations: 1905 
   18500    53.723497     1969          531         1438  5.38103e-13 1.3787978e-13          0.1 0.0090088228    25.742155  0.029885089 
number of iterations: 1935 
   18600    53.946665     2017          540         1477 5.4523401e-13 1.4103237e-13          0.1 0.0090089273    26.085366   0.02988491 
number of iterations: 1911 
   18700    54.175161     2060          548         1512 5.5245953e-13 1.4426238e-13          0.1 0.0090090321    26.432274   0.02988473 
number of iterations: 1927 
   18800    54.415322     2110          557         1553 5.597808e-13 1.4757175e-13          0.1 0.0090091473    26.782906  0.029884532 
number of iterations: 1978 
   18900     54.66499     2154          566         1588 5.671991e-13 1.5096249e-13          0.1 0.0090092627    27.137289  0.029884334 
number of iterations: 1922 
   19000     54.88746     2191          570         1621 5.747157e-13 1.5443664e-13          0.1 0.0090093887     27.49545  0.029884118 
number of iterations: 1959 
   19100    55.128264     2240          576         1664 5.8233191e-13 1.5799631e-13          0.1 0.0090095185    27.857415  0.029883896 
number of iterations: 1952 
   19200    55.353402     2293          587         1706 5.9004905e-13 1.6164365e-13          0.1 0.0090096427     28.22321  0.029883683 
number of iterations: 1951 
   19300     55.58223     2334          592         1742 5.9786846e-13 1.6538087e-13          0.1 0.0090097654    28.592862  0.029883472 
number of iterations: 1940 
   19400    55.831014     2386          600         1786 6.0579149e-13 1.6921023e-13          0.1 0.0090098976    28.966395  0.029883246 
number of iterations: 1947 
   19500    56.063332     2439          608         1831 6.1381952e-13 1.7313405e-13          0.1 0.0090100255    29.343835  0.029883026 
number of iterations: 1897 
   19600    56.306028     2494          621         1873 6.2195394e-13 1.7715471e-13          0.1 0.0090101381    29.725206  0.029882831 
number of iterations: 1930 
   19700    56.516215     2541          626         1915 6.3019615e-13 1.8127467e-13          0.1  0.009010261    30.110534   0.02988262 
number of iterations: 1941 
   19800    56.756244     2585          632         1953 6.3854759e-13 1.8549641e-13          0.1  0.009010389    30.499841    0.0298824 
number of iterations: 1927 
   19900     56.98625     2637          641         1996 6.4700971e-13 1.898225e-13          0.1  0.009010514     30.89315  0.029882184 
number of iterations: 1961 
   20000    57.267806     2694          646         2048 6.5558396e-13 1.9425557e-13          0.1 0.0090106456    31.290486  0.029881957 
number of iterations: 1934 
   20100    57.504733     2752          653         2099 6.6427185e-13 1.9879832e-13          0.1 0.0090107795     31.69187  0.029881726 
number of iterations: 2005 
   20200    57.757367     2802          663         2139 6.7307486e-13 2.0345354e-13          0.1 0.0090109299    32.097326  0.029881468 
number of iterations: 1955 
   20300    57.995579     2858          673         2185 6.8199453e-13 2.0822405e-13          0.1 0.0090110724    32.506875  0.029881223 
number of iterations: 1981 
   20400    58.218142     2924          681         2243 6.9103241e-13 2.1311278e-13          0.1 0.0090112145    32.920539  0.029880978 
number of iterations: 1949 
   20500    58.455493     2991          689         2302 7.0019005e-13 2.181227e-13          0.1 0.0090113545    33.338339  0.029880736 
number of iterations: 1987 
   20600    58.673547     3045          694         2351 7.0946906e-13 2.232569e-13          0.1 0.0090115045    33.760292  0.029880478 
number of iterations: 1962 
   20700    58.899465     3094          700         2394 7.1887103e-13 2.285185e-13          0.1 0.0090116443    34.186419  0.029880236 
number of iterations: 1978 
   20800    59.144992     3158          710         2448 7.2839759e-13 2.3391072e-13          0.1 0.0090117971    34.616738  0.029879972 
number of iterations: 2021 
   20900    59.393338     3223          717         2506 7.380504e-13 2.3943689e-13          0.1 0.0090119623    35.051268  0.029879687 
number of iterations: 1985 
   21000    59.631917     3286          724         2562 7.4783113e-13 2.4510037e-13          0.1 0.0090121101    35.490026  0.029879432 
number of iterations: 1988 
   21100    59.861069     3364          737         2627 7.5774148e-13 2.5090465e-13          0.1 0.0090122742     35.93303  0.029879149 
number of iterations: 1999 
   21200    60.101328     3425          751         2674 7.6680449e-13 2.5685327e-13          0.1 0.0090124287    36.379541  0.029878881 
number of iterations: 1977 
   21300    60.370339     3499          759         2740 7.7696626e-13 2.6294989e-13          0.1 0.0090125766    36.830318  0.029878624 
number of iterations: 1980 
   21400      60.6344     3581          769         2812 7.8726271e-13 2.6919826e-13          0.1 0.0090127285    37.285373   0.02987836 
number of iterations: 1999 
   21500    60.880411     3667          782         2885 7.976956e-13 2.7560222e-13          0.1 0.0090129024    37.744719   0.02987806 
number of iterations: 1959 
   21600    61.124592     3747          790         2957 8.0826675e-13 2.8216571e-13          0.1 0.0090130412    38.208368  0.029877817 
number of iterations: 2043 
   21700    61.367928     3825          799         3026 8.1897799e-13 2.8889279e-13          0.1 0.0090132195    38.676332  0.029877509 
number of iterations: 1975 
   21800    61.636905     3913          809         3104 8.2983117e-13 2.9578761e-13          0.1 0.0090133782    39.148621  0.029877233 
number of iterations: 1981 
   21900    61.873281     4007          816         3191 8.4082818e-13 3.0273238e-13          0.1 0.0090135297    39.625312  0.029876969 
number of iterations: 2018 
   22000    62.104623     4096          828         3268 8.5197092e-13 3.0997261e-13          0.1 0.0090137013    40.106346   0.02987667 
number of iterations: 1992 
   22100     62.36022     4194          842         3352 8.6326133e-13 3.1739358e-13          0.1 0.0090138744    40.591731  0.029876369 
number of iterations: 2000 
   22200    62.614288     4280          856         3424 8.7470136e-13 3.2499989e-13          0.1 0.0090140508     41.08147  0.029876062 
number of iterations: 2007 
   22300    62.860504     4383          873         3510 8.8629299e-13 3.3279621e-13          0.1  0.009014231    41.575568  0.029875749 
number of iterations: 2003 
   22400    63.088146     4486          881         3605 8.9698503e-13 3.4078733e-13          0.1 0.0090144036    42.073217  0.029875448 
number of iterations: 2024 
   22500    63.385563     4584          894         3690 9.0887197e-13 3.4897821e-13          0.1 0.0090145964    42.575218  0.029875113 
number of iterations: 1993 
   22600    63.640163     4676          906         3770 9.2091643e-13 3.5737394e-13          0.1  0.009014756    43.081571  0.029874832 
number of iterations: 2053 
   22700     63.92464     4777          916         3861 9.331205e-13 3.6597974e-13          0.1 0.0090149433    43.592275  0.029874505 
number of iterations: 1982 
   22800     64.16801     4868          925         3943 9.4414987e-13 3.7480087e-13          0.1 0.0090150984    44.106299  0.029874232 
number of iterations: 2009 
   22900    64.429722     4979          945         4034 9.555033e-13 3.8384277e-13          0.1 0.0090152683    44.623762  0.029873933 
number of iterations: 2047 
   23000    64.678735     5078          955         4123 9.6816572e-13 3.9297407e-13          0.1 0.0090154883    45.145614  0.029873551 
number of iterations: 2024 
   23100    64.922423     5189          969         4220 9.8099594e-13 4.0247127e-13          0.1 0.0090156743     45.67177  0.029873224 
number of iterations: 2018 
   23200    65.199693     5305          989         4316 9.9399619e-13 4.1220643e-13          0.1 0.0090158672     46.20222  0.029872886 
number of iterations: 2053 
   23300    65.456515     5430         1004         4426 1.0071687e-12 4.2218562e-13          0.1 0.0090160945    46.736951  0.029872491 
number of iterations: 2062 
   23400    65.708875     5561         1018         4543 1.0205158e-12 4.3241504e-13          0.1 0.0090163171    47.275949  0.029872103 
number of iterations: 2056 
   23500    65.958875     5684         1029         4655 1.0340398e-12 4.4290107e-13          0.1 0.0090165444    47.819198  0.029871706 
number of iterations: 1985 
   23600    66.195837     5804         1042         4762 1.0468205e-12 4.5340725e-13          0.1  0.009016723     48.36611  0.029871391 
number of iterations: 2038 
   23700    66.477011     5933         1054         4879 1.060693e-12 4.6442026e-13          0.1 0.0090169353    48.917228  0.029871019 
number of iterations: 2041 
   23800    66.732864     6072         1069         5003 1.0747494e-12 4.755934e-13          0.1 0.0090171589    49.472598  0.029870627 
number of iterations: 2041 
   23900    67.026725     6188         1080         5108 1.0882019e-12 4.8707358e-13          0.1 0.0090173526    50.031575  0.029870285 
number of iterations: 2066 
   24000     67.31125     6325         1104         5221 1.1026228e-12 4.9872538e-13          0.1 0.0090175673    50.594797  0.029869907 
number of iterations: 2047 
   24100    67.587438     6468         1118         5350 1.1163478e-12 5.1087704e-13          0.1 0.0090177542    51.161437  0.029869575 
number of iterations: 2062 
   24200    67.844121     6622         1135         5487 1.1311417e-12 5.2311318e-13          0.1 0.0090179708    51.732263  0.029869194 
number of iterations: 2049 
   24300    68.097459     6751         1152         5599 1.1461317e-12 5.3574477e-13          0.1  0.009018191    52.307192  0.029868806 
number of iterations: 2070 
   24400    68.366131     6891         1165         5726 1.1613203e-12 5.4863391e-13          0.1 0.0090184305    52.886223  0.029868384 
number of iterations: 2029 
   24500    68.635238     7051         1177         5874 1.1767102e-12 5.6204108e-13          0.1   0.00901863    53.469207  0.029868029 
number of iterations: 2086 
   24600     68.90733     7200         1186         6014 1.1923041e-12 5.7578565e-13          0.1 0.0090188841    54.056101  0.029867582 
number of iterations: 2107 
   24700    69.183681     7376         1195         6181 1.2081046e-12 5.8977927e-13          0.1 0.0090191404    54.646915  0.029867131 
number of iterations: 2062 
   24800    69.452694     7540         1207         6333 1.2241145e-12 6.0422226e-13          0.1 0.0090193671    55.241544  0.029866729 
number of iterations: 2040 
   24900    69.735051     7710         1224         6486 1.2403365e-12 6.1902903e-13          0.1 0.0090195892    55.839934  0.029866334 
number of iterations: 2083 
   25000    69.999633     7902         1235         6667 1.2567735e-12 6.339822e-13          0.1 0.0090198403     56.44216  0.029865889 
number of iterations: 2059 
   25100    70.288926     8069         1250         6819 1.2724579e-12 6.4946165e-13          0.1 0.0090200557    57.047333  0.029865504 
number of iterations: 2089 
   25200    70.592625     8272         1270         7002 1.2893205e-12 6.6529419e-13          0.1 0.0090203177    57.656144  0.029865041 
number of iterations: 2097 
   25300    70.879879     8442         1280         7162 1.3055317e-12 6.8140174e-13          0.1 0.0090205779    58.267934   0.02986458 
number of iterations: 2066 
   25400    71.160181     8663         1298         7365 1.3228327e-12 6.9802435e-13          0.1 0.0090208228    58.883234  0.029864143 
number of iterations: 2110 
   25500    71.458261     8856         1305         7551 1.3389364e-12 7.1519605e-13          0.1 0.0090211011    59.500808   0.02986365 
number of iterations: 2083 
   25600    71.760729     9048         1324         7724  1.35668e-12 7.3270062e-13          0.1 0.0090213504    60.121709  0.029863204 
number of iterations: 2101 
   25700    72.052425     9245         1338         7907 1.373356e-12 7.5023792e-13          0.1 0.0090215892    60.745094  0.029862777 
number of iterations: 2091 
   25800    72.349364     9458         1354         8104 1.3915558e-12 7.6864059e-13          0.1 0.0090218359    61.371624  0.029862335 
number of iterations: 2111 
   25900    72.618179     9650         1376         8274 1.4087198e-12 7.8716344e-13          0.1 0.0090220937    62.000428  0.029861875 
number of iterations: 2133 
   26000    72.888956     9867         1401         8466 1.4273882e-12 8.0618159e-13          0.1 0.0090223817    62.632366  0.029861362 
number of iterations: 2097 
   26100    73.192792    10094         1412         8682 1.4448562e-12 8.2598546e-13          0.1 0.0090226462    63.266059  0.029860887 
number of iterations: 2089 
   26200    73.556222    10309         1427         8882 1.4628226e-12 8.4615225e-13          0.1 0.0090228814    63.901672  0.029860461 
number of iterations: 2128 
   26300    73.855261    10517         1443         9074 1.4822079e-12 8.6680128e-13          0.1 0.0090231864    64.540008  0.029859918 
number of iterations: 2130 
   26400    74.161844    10775         1471         9304 1.5018502e-12 8.8823538e-13          0.1 0.0090234912      65.1808  0.029859373 
number of iterations: 2127 
   26500    74.445345    11008         1487         9521 1.5217528e-12 9.0988845e-13          0.1 0.0090237933    65.824113  0.029858833 
number of iterations: 2095 
   26600     74.75481    11261         1505         9756 1.5419191e-12 9.3230014e-13          0.1 0.0090240518    66.469702  0.029858363 
number of iterations: 2163 
   26700    75.099329    11520         1526         9994 1.5623527e-12 9.5527228e-13          0.1 0.0090243808    67.117439  0.029857775 
number of iterations: 2115 
   26800    75.424249    11773         1549        10224 1.583057e-12 9.7848653e-13          0.1 0.0090246778    67.767388  0.029857241 
number of iterations: 2121 
   26900    75.738038    12052         1582        10470 1.6040357e-12 1.0024486e-12          0.1 0.0090249719    68.419313  0.029856711 
number of iterations: 2132 
   27000    76.063555    12344         1604        10740 1.6239462e-12 1.0270359e-12          0.1 0.0090252274    69.072022  0.029856242 
number of iterations: 2126 
   27100    76.391617    12638         1632        11006 1.6454668e-12 1.0520679e-12          0.1 0.0090255255    69.726487  0.029855702 
number of iterations: 2154 
   27200    76.713315    12950         1648        11302 1.6672725e-12 1.077834e-12          0.1 0.0090258557    70.382492   0.02985511 
number of iterations: 2113 
   27300     77.03154    13236         1664        11572  1.68845e-12 1.1043357e-12          0.1 0.0090261524    71.039122  0.029854571 
number of iterations: 2099 
   27400    77.386631    13556         1693        11863 1.7108253e-12 1.1313901e-12          0.1 0.0090264421    71.696967  0.029854043 
number of iterations: 2159 
   27500    77.715845    13849         1714        12135 1.7334972e-12 1.1590487e-12          0.1 0.0090267784    72.355893  0.029853436 
number of iterations: 2132 
   27600    78.092236    14174         1743        12431 1.7564696e-12 1.1876386e-12          0.1 0.0090270408    73.015583  0.029852949 
number of iterations: 2133 
   27700     78.43434    14507         1757        12750 1.7782861e-12 1.2170653e-12          0.1 0.0090273609    73.674651  0.029852366 
number of iterations: 2108 
   27800     78.76898    14849         1777        13072 1.8009006e-12 1.2472254e-12          0.1 0.0090276527    74.333276  0.029851828 
number of iterations: 2152 
   27900    79.111558    15217         1807        13410 1.8237347e-12 1.2777072e-12          0.1 0.0090279866    74.991432  0.029851219 
number of iterations: 2150 
   28000    79.478268    15576         1831        13745 1.8479029e-12  1.30916e-12          0.1  0.009028324     75.64957  0.029850604 
number of iterations: 2107 
   28100    79.832327    15958         1857        14101 1.8703587e-12 1.3416071e-12          0.1 0.0090286085    76.305792  0.029850075 
number of iterations: 2113 
   28200    80.202547    16345         1876        14469 1.8941199e-12 1.3748731e-12          0.1 0.0090288943    76.960608  0.029849541 
number of iterations: 2163 
   28300    80.602251    16724         1895        14829 1.9192208e-12 1.4088656e-12          0.1 0.0090292378    77.614614  0.029848911 
number of iterations: 2182 
   28400    80.987218    17138         1920        15218 1.9446543e-12 1.4438326e-12          0.1  0.009029564    78.267494  0.029848308 
number of iterations: 2169 
   28500    81.364434    17544         1953        15591 1.9704248e-12 1.4793498e-12          0.1  0.009029929    78.919174  0.029847638 
number of iterations: 2202 
   28600    81.736234    17912         1972        15940 1.9943806e-12 1.5156431e-12          0.1 0.0090302879    79.567802  0.029846978 
number of iterations: 2137 
   28700    82.096701    18361         1995        16366 2.0188751e-12 1.5532045e-12          0.1 0.0090306053    80.213043  0.029846386 
number of iterations: 2218 
   28800    82.612682    18783         2026        16757 2.0456292e-12 1.5913248e-12          0.1 0.0090310397    80.856295  0.029845599 
number of iterations: 2184 
   28900    83.084453    19214         2053        17161 2.0727379e-12 1.6304735e-12          0.1 0.0090314264    81.497222  0.029844887 
number of iterations: 2210 
   29000    83.523057    19675         2088        17587 2.1002058e-12 1.6709605e-12          0.1 0.0090318264     82.13531  0.029844153 
number of iterations: 2207 
   29100    84.004209    20094         2116        17978 2.1271163e-12 1.7122189e-12          0.1 0.0090322259    82.769673  0.029843418 
number of iterations: 2180 
   29200    84.448262    20547         2136        18411 2.1553048e-12 1.7548708e-12          0.1 0.0090326002     83.40047   0.02984272 
number of iterations: 2184 
   29300    84.912725    21025         2158        18867 2.1838669e-12 1.7985959e-12          0.1 0.0090329902    84.027351  0.029841997 
number of iterations: 2225 
   29400    85.361007    21475         2183        19292 2.2128074e-12 1.8429673e-12          0.1 0.0090334164    84.650222  0.029841211 
number of iterations: 2224 
   29500    85.759795    21991         2211        19780 2.2410293e-12 1.8886534e-12          0.1 0.0090338407    85.267758  0.029840426 
number of iterations: 2144 
   29600    86.158735    22488         2235        20253 2.269642e-12 1.9353826e-12          0.1 0.0090341585    85.879634  0.029839818 
number of iterations: 2185 
   29700    86.570244    22990         2261        20729 2.2997192e-12 1.9832787e-12          0.1 0.0090345513    86.486286  0.029839081 
number of iterations: 2211 
   29800    86.996734    23562         2293        21269 2.3289771e-12 2.0323969e-12          0.1 0.0090349383    87.086364  0.029838353 
number of iterations: 2204 
   29900    87.454273    24128         2319        21809 2.3587316e-12 2.0822301e-12          0.1 0.0090353736     87.67982  0.029837542 
number of iterations: 2198 
   30000    87.882402    24688         2357        22331 2.3899894e-12 2.1337065e-12          0.1  0.009035802    88.266837  0.029836742 
number of iterations: 2220 
   30100    88.374934    25290         2381        22909 2.4204429e-12 2.1863444e-12          0.1 0.0090361812    88.846115   0.02983602 
number of iterations: 2206 
   30200    88.810013    25876         2410        23466 2.4525185e-12 2.2405297e-12          0.1 0.0090366284     89.41798  0.029835184 
number of iterations: 2156 
   30300    89.278005    26512         2445        24067 2.4824054e-12 2.2963492e-12          0.1 0.0090370054    89.979791  0.029834462 
number of iterations: 2225 
   30400    89.741497    27164         2479        24685 2.5144045e-12 2.3524785e-12          0.1 0.0090374395    90.532981  0.029833645 
number of iterations: 2189 
   30500     90.20253    27799         2511        25288 2.5439896e-12 2.4109381e-12          0.1 0.0090378201    91.074327  0.029832913 
number of iterations: 2229 
   30600    90.709259    28460         2533        25927 2.576935e-12 2.4710695e-12          0.1 0.0090382857    91.605424  0.029832036 
number of iterations: 2192 
   30700    91.192534    29143         2565        26578 2.6096841e-12 2.5318031e-12          0.1 0.0090387067    92.125761  0.029831232 
number of iterations: 2229 
   30800    91.669478    29819         2591        27228 2.6428479e-12 2.5942071e-12          0.1 0.0090391945    92.634672  0.029830313 
number of iterations: 2239 
   30900    92.183919    30503         2625        27878 2.6778708e-12 2.6576246e-12          0.1 0.0090396614    93.132984  0.029829426 
number of iterations: 2222 
   31000    92.696012    31286         2671        28615 2.711888e-12 2.7238893e-12          0.1   0.00904009    93.618252    0.0298286 
number of iterations: 2250 
   31100    93.217662    32057         2699        29358 2.7435876e-12 2.7913838e-12          0.1 0.0090405257    94.087972  0.029827759 
number of iterations: 2256 
   31200    93.715408    32768         2743        30025 2.7799455e-12 2.8610748e-12          0.1  0.009041064    94.544424  0.029826745 
number of iterations: 2246 
   31300    94.249254    33520         2774        30746 2.8167851e-12 2.9315622e-12          0.1 0.0090415669    94.987513   0.02982579 
number of iterations: 2241 
   31400    94.789524    34333         2802        31531 2.8493186e-12 3.0036443e-12          0.1  0.009042023    95.412989  0.029824907 
number of iterations: 2266 
   31500    95.336555    35198         2846        32352 2.8861604e-12 3.0781862e-12          0.1 0.0090424939     95.82272  0.029823997 
number of iterations: 2232 
   31600    95.907656    35980         2872        33108 2.9210818e-12 3.1543608e-12          0.1 0.0090428878    96.214278  0.029823211 
number of iterations: 2222 
   31700     96.46062    36785         2903        33882 2.9587852e-12 3.2324337e-12          0.1  0.009043352    96.588679  0.029822308 
number of iterations: 2276 
   31800    97.019969    37638         2938        34700 2.9979948e-12 3.3116553e-12          0.1 0.0090438791    96.946401  0.029821297 
number of iterations: 2271 
   31900    97.646679    38558         2986        35572 3.0377239e-12 3.3939462e-12          0.1 0.0090443936    97.286045  0.029820301 
number of iterations: 2275 
   32000    98.238688    39505         3016        36489 3.0758347e-12 3.4777472e-12          0.1 0.0090448602    97.605487  0.029819384 
number of iterations: 2239 
   32100    98.825578    40465         3060        37405 3.1153977e-12 3.5642309e-12          0.1 0.0090453098    97.904271  0.029818492 
number of iterations: 2208 
   32200    99.447007    41354         3092        38262 3.1497802e-12 3.6516375e-12          0.1 0.0090456844    98.177882  0.029817724 
number of iterations: 2262 
   32300    100.07344    42338         3143        39195 3.1915207e-12 3.741956e-12          0.1 0.0090461678    98.430265  0.029816766 
number of iterations: 2275 
   32400    100.74337    43391         3185        40206 3.2308701e-12 3.8334677e-12          0.1    0.0090467    98.658894  0.029815725 
number of iterations: 2270 
   32500    101.39206    44438         3228        41210 3.2717337e-12 3.9284773e-12          0.1 0.0090472526    98.862885  0.029814647 
number of iterations: 2251 
   32600    102.03215    45539         3266        42273 3.3118324e-12 4.0252325e-12          0.1 0.0090477255     99.04064  0.029813697 
number of iterations: 2309 
   32700    102.72112    46589         3312        43277 3.3546985e-12 4.1235821e-12          0.1 0.0090483133    99.193358  0.029812555 
number of iterations: 2298 
   32800    103.42979    47631         3344        44287 3.3912498e-12 4.2243613e-12          0.1 0.0090487626     99.31479  0.029811638 
number of iterations: 2232 
   32900     104.1282    48737         3381        45356 3.4325396e-12 4.3278315e-12          0.1 0.0090492255    99.407004  0.029810692 
number of iterations: 2270 
   33000    104.87138    49957         3422        46535 3.4728714e-12 4.4339516e-12          0.1 0.0090497208     99.46773  0.029809691 
number of iterations: 2265 
   33100    105.58237    51161         3469        47692 3.515854e-12 4.5431278e-12          0.1   0.00905018    99.497234  0.029808743 
number of iterations: 2244 
   33200    106.30711    52355         3511        48844 3.5538208e-12 4.6539063e-12          0.1 0.0090506413    99.490755  0.029807789 
number of iterations: 2271 
   33300    107.05001    53595         3556        50039 3.5987197e-12 4.7678999e-12          0.1  0.009051157    99.451746  0.029806742 
number of iterations: 2241 
   33400    107.82602    54853         3607        51246 3.6412999e-12 4.8842944e-12          0.1 0.0090516355    99.377052   0.02980575 
number of iterations: 2274 
   33500    108.62765    56176         3654        52522 3.6830414e-12 5.0042528e-12          0.1 0.0090520427    99.263978  0.029804869 
number of iterations: 2314 
   33600    109.45217    57508         3707        53801 3.7298873e-12 5.1259269e-12          0.1  0.009052618    99.115458  0.029803712 
number of iterations: 2302 
   33700    110.29467    58830         3754        55076 3.7768593e-12 5.2505525e-12          0.1 0.0090531356    98.929908  0.029802645 
number of iterations: 2288 
   33800    111.19241    60184         3809        56375 3.8227416e-12 5.3794491e-12          0.1 0.0090535829    98.704032  0.029801687 
number of iterations: 2306 
   33900    112.05786    61571         3837        57734 3.8694115e-12 5.511848e-12          0.1 0.0090541048    98.436429    0.0298006 
number of iterations: 2231 
   34000    112.93973    63041         3880        59161 3.9138438e-12 5.6464255e-12          0.1 0.0090545511    98.124174  0.029799633 
number of iterations: 2290 
   34100     113.8331    64556         3927        60629 3.9612304e-12 5.7831501e-12          0.1 0.0090551338    97.768334  0.029798433 
number of iterations: 2290 
   34200    114.72063    66121         3983        62138 4.0084283e-12 5.9240028e-12          0.1 0.0090556586    97.366421  0.029797326 
number of iterations: 2267 
   34300    115.65083    67604         4011        63593 4.0527786e-12 6.0667583e-12          0.1 0.0090560336    96.915209  0.029796468 
number of iterations: 2310 
   34400    116.59944    69164         4054        65110 4.1017934e-12 6.2133439e-12          0.1 0.0090565438    96.416123  0.029795376 
number of iterations: 2275 
   34500    117.59203    70798         4085        66713 4.1487428e-12 6.3642452e-12          0.1 0.0090570526    95.865142  0.029794284 
number of iterations: 2306 
   34600    118.59148    72502         4129        68373 4.1991534e-12 6.5187976e-12          0.1 0.0090575323    95.262892  0.029793234 
number of iterations: 2337 
   34700    119.60303    74179         4182        69997 4.2503519e-12  6.67439e-12          0.1 0.0090581432    94.609475  0.029791961 
number of iterations: 2262 
   34800    120.62485    75936         4234        71702 4.2999651e-12 6.8342974e-12          0.1 0.0090586308    93.901283  0.029790889 
number of iterations: 2346 
   34900    121.67894    77705         4294        73411 4.3501951e-12 6.9983942e-12          0.1  0.009059129    93.136473  0.029789793 
number of iterations: 2307 
   35000    122.74755    79463         4331        75132 4.3990575e-12 7.1651611e-12          0.1 0.0090595048    92.312595    0.0297889 
Loop time of 122.748 on 32 procs for 35000 steps with 79463 atoms

Performance: 246359211.491 tau/day, 285.138 timesteps/s
92.3% CPU use with 32 MPI tasks x no OpenMP threads

MPI task timing breakdown:
Section |  min time  |  avg time  |  max time  |%varavg| %total
---------------------------------------------------------------
Pair    | 0.12433    | 2.1252     | 7.5854     | 115.8 |  1.73
Neigh   | 0.060275   | 0.73794    | 2.1363     |  58.9 |  0.60
Comm    | 0.51808    | 0.99634    | 1.3906     |  25.7 |  0.81
Output  | 36.926     | 36.926     | 36.936     |   0.0 | 30.08
Modify  | 73.711     | 73.998     | 74.454     |   2.1 | 60.28
Other   |            | 7.964      |            |       |  6.49

Nlocal:    2483.22 ave 5352 max 368 min
Histogram: 3 7 1 5 2 5 5 1 2 1
Nghost:    1497.19 ave 3178 max 356 min
Histogram: 4 5 3 4 5 6 0 0 4 1
Neighs:    20306.6 ave 53705 max 2586 min
Histogram: 7 4 3 5 4 6 0 0 2 1

Total # of neighbors = 649811
Ave neighs/atom = 8.17753
Neighbor list builds = 765
Dangerous builds = 0
Total wall time: 0:02:03
