LAMMPS (20 Nov 2019)
Reading data file ...
  orthogonal box = (0 0 0) to (0.0001 0.0001 1e-05)
  8 by 4 by 1 MPI processor grid
  reading atoms ...
  100 atoms
  4 nutrients
Lattice spacing in x,y,z = 100 100 100
50 atoms in group CYANO
50 atoms in group ECW
Model is defined as a closed system. 
Neighbor list info ...
  update every 1 steps, delay 0 steps, check yes
  max neighbors/atom: 5000, page size: 100000
  master list distance cutoff = 2.41e-06
  ghost atom cutoff = 2.41e-06
  binsize = 1.205e-06, bins = 83 83 9
  1 neighbor lists, perpetual/occasional/extra = 1 0 0
  (1) pair gran/hooke/history, perpetual
      attributes: half, newton off, size, history
      pair build: half/size/bin/newtoff
      stencil: half/bin/3d/newtoff
      bin: standard
Setting up Verlet run ...
  Unit style    : lj
  Current step  : 0
  Time step     : 10
Per MPI rank memory allocation (min/avg/max) = 6.792 | 10.53 | 12.11 Mbytes
Step CPU Atoms c_myNtypes[1] c_myNtypes[2] c_myMass[1] c_myMass[2] c_myCon[1] c_myCon[2] c_myCon[3] c_myCon[4] 
       0            0      100           50           50 4.4373843e-14 9.9078363e-15          0.1        0.009     3.42e-20       0.0299 
number of iterations: 328650 
     100    15.969979      136           50           86 4.4961895e-14 9.8998899e-15          0.1 0.0090007228   0.03566757  0.029898796 
number of iterations: 4912 
     200    16.340686      154           50          104 4.555774e-14 9.8924459e-15          0.1 0.0090007323  0.070667048   0.02989878 
number of iterations: 3247 
     300    16.639575      154           50          104 4.6161481e-14 9.8855017e-15          0.1  0.009000742   0.10611469  0.029898764 
number of iterations: 2175 
     400    16.885118      154           50          104 4.6773223e-14 9.8790536e-15          0.1 0.0090007518   0.14201873  0.029898748 
number of iterations: 1500 
     500    17.104991      154           50          104 4.7393072e-14 9.8731001e-15          0.1 0.0090007617   0.17838665  0.029898731 
number of iterations: 1367 
     600    17.303647      154           50          104 4.8021135e-14 9.8676402e-15          0.1 0.0090007718   0.21522562  0.029898714 
number of iterations: 1429 
     700    17.517841      155           51          104 4.8657522e-14 9.8626699e-15          0.1  0.009000782   0.25254217  0.029898697 
number of iterations: 1373 
     800    17.739307      155           51          104 4.9302342e-14 9.8581858e-15          0.1 0.0090007924   0.29034294   0.02989868 
number of iterations: 1376 
     900    17.938545      156           52          104 4.9955707e-14 9.8541841e-15          0.1 0.0090008028   0.32863458  0.029898662 
number of iterations: 1426 
    1000    18.163805      158           54          104 5.0617731e-14 9.850661e-15          0.1 0.0090008135   0.36742385  0.029898645 
number of iterations: 1381 
    1100    18.352369      158           54          104 5.1288528e-14 9.8476129e-15          0.1 0.0090008242   0.40671758  0.029898627 
number of iterations: 1385 
    1200    18.548931      160           56          104 5.1968214e-14 9.8450367e-15          0.1 0.0090008351   0.44652272  0.029898609 
number of iterations: 1387 
    1300    18.747485      160           56          104 5.2656908e-14 9.8429284e-15          0.1 0.0090008462   0.48684623   0.02989859 
number of iterations: 1390 
    1400    18.945704      160           56          104 5.3354729e-14 9.8412842e-15          0.1 0.0090008574   0.52769519  0.029898571 
number of iterations: 1516 
    1500    19.131085      163           59          104 5.4061797e-14 9.8400993e-15          0.1 0.0090008687   0.56907663  0.029898553 
number of iterations: 1393 
    1600    19.311052      163           59          104 5.4778236e-14 9.8393716e-15          0.1 0.0090008801   0.61099796  0.029898533 
number of iterations: 1428 
    1700    19.497102      164           60          104 5.5504169e-14 9.839099e-15          0.1 0.0090008918   0.65346657  0.029898514 
number of iterations: 1441 
    1800    19.689371      167           63          104 5.6239722e-14 9.8392777e-15          0.1 0.0090009036    0.6964899  0.029898494 
number of iterations: 1403 
    1900    19.880547      167           63          104 5.6985023e-14 9.839904e-15          0.1 0.0090009156   0.74007552  0.029898474 
number of iterations: 1640 
    2000    20.097421      168           64          104 5.7740201e-14 9.8409741e-15          0.1 0.0090009336   0.78423108  0.029898444 
number of iterations: 1408 
    2100    20.273124      168           64          104 5.8505386e-14 9.8424854e-15          0.1 0.0090009459   0.82896434  0.029898424 
number of iterations: 1522 
    2200      20.4726      170           66          104 5.9280712e-14 9.8444339e-15          0.1 0.0090009599   0.87428308    0.0298984 
number of iterations: 1415 
    2300    20.634034      171           67          104 6.0066313e-14 9.8468175e-15          0.1 0.0090009726   0.92019532  0.029898379 
number of iterations: 1417 
    2400    20.814477      171           67          104 6.0862325e-14 9.8496334e-15          0.1 0.0090009855   0.96670912  0.029898358 
number of iterations: 1591 
    2500    20.991613      172           68          104 6.1668885e-14 9.8528787e-15          0.1 0.0090010023    1.0138327   0.02989833 
number of iterations: 1423 
    2600    21.187369      172           68          104 6.2486135e-14 9.8565506e-15          0.1 0.0090010156    1.0615742  0.029898308 
number of iterations: 1426 
    2700    21.363701      172           68          104 6.3314214e-14 9.8606462e-15          0.1  0.009001029    1.1099421  0.029898285 
number of iterations: 1429 
    2800      21.5615      172           68          104 6.4153268e-14 9.865163e-15          0.1 0.0090010427    1.1589448  0.029898262 
number of iterations: 1437 
    2900    21.769561      173           69          104 6.500344e-14 9.8700983e-15          0.1 0.0090010565    1.2085912  0.029898239 
number of iterations: 1518 
    3000    22.011706      175           71          104 6.586488e-14 9.8754494e-15          0.1  0.009001073    1.2588898  0.029898212 
number of iterations: 1526 
    3100    22.207799      176           72          104 6.6737735e-14 9.881213e-15          0.1 0.0090010915    1.3098494  0.029898181 
number of iterations: 1441 
    3200    22.371028      176           72          104 6.7622158e-14 9.8873873e-15          0.1  0.009001106     1.361479  0.029898157 
number of iterations: 1459 
    3300    22.549316      177           73          104 6.8518301e-14 9.8939696e-15          0.1 0.0090011207    1.4137875  0.029898132 
number of iterations: 1447 
    3400    22.718284      177           73          104 6.942632e-14 9.9009579e-15          0.1 0.0090011355    1.4667841  0.029898108 
number of iterations: 1449 
    3500    22.914036      177           73          104 7.0346372e-14 9.9083497e-15          0.1 0.0090011505    1.5204783  0.029898083 
number of iterations: 1452 
    3600    23.080432      177           73          104 7.1278617e-14 9.9161427e-15          0.1 0.0090011658    1.5748793  0.029898057 
number of iterations: 1455 
    3700    23.266388      179           74          105 7.2223217e-14 9.9243347e-15          0.1 0.0090011812    1.6299967  0.029898031 
number of iterations: 1458 
    3800     23.44786      179           74          105 7.3180334e-14 9.9329234e-15          0.1 0.0090011969    1.6858401  0.029898005 
number of iterations: 1503 
    3900    23.623984      179           74          105 7.4150135e-14 9.9419061e-15          0.1 0.0090012047    1.7424193  0.029897992 
number of iterations: 1458 
    4000    23.859496      179           74          105 7.5132788e-14 9.9512812e-15          0.1 0.0090012206    1.7997444  0.029897966 
number of iterations: 1499 
    4100    24.041312      180           75          105 7.6128464e-14 9.9610465e-15          0.1 0.0090012368    1.8578248  0.029897939 
number of iterations: 1489 
    4200    24.219037      180           75          105 7.7137334e-14 9.9712005e-15          0.1 0.0090012532    1.9166714  0.029897912 
number of iterations: 1467 
    4300    24.420708      180           75          105 7.8159575e-14 9.9817407e-15          0.1 0.0090012698    1.9762943  0.029897884 
number of iterations: 1468 
    4400    24.613606      182           75          107 7.9195362e-14 9.9926657e-15          0.1 0.0090012805    2.0367039  0.029897866 
number of iterations: 1472 
    4500    24.778472      182           75          107 8.0244875e-14 1.0003973e-14          0.1 0.0090012975    2.0979109  0.029897838 
number of iterations: 1589 
    4600    24.977479      183           76          107 8.1308297e-14 1.0015661e-14          0.1 0.0090013176    2.1599263  0.029897804 
number of iterations: 1479 
    4700    25.150238      183           76          107 8.2385812e-14 1.0027728e-14          0.1 0.0090013351    2.2227605  0.029897775 
number of iterations: 1481 
    4800    25.324711      183           76          107 8.3477606e-14 1.0040171e-14          0.1 0.0090013528    2.2864247  0.029897746 
number of iterations: 1484 
    4900    25.495727      183           76          107 8.4583869e-14 1.005299e-14          0.1 0.0090013707      2.35093  0.029897716 
number of iterations: 1487 
    5000    25.726027      183           76          107 8.5704792e-14 1.0066182e-14          0.1 0.0090013889    2.4162877  0.029897685 
number of iterations: 1511 
    5100    25.916375      183           76          107 8.6840569e-14 1.0079745e-14          0.1 0.0090014073    2.4825092  0.029897655 
number of iterations: 1493 
    5200    26.090921      183           76          107 8.7991398e-14 1.0093679e-14          0.1 0.0090014259    2.5496062  0.029897624 
number of iterations: 1496 
    5300     26.28601      183           76          107 8.9157479e-14 1.010798e-14          0.1 0.0090014448    2.6175904  0.029897592 
number of iterations: 1567 
    5400    26.482581      185           78          107 9.0339012e-14 1.0122648e-14          0.1 0.0090014653    2.6864736  0.029897558 
number of iterations: 1679 
    5500    26.684627      188           81          107 9.1536203e-14 1.013768e-14          0.1 0.0090014938    2.7562681   0.02989751 
number of iterations: 1505 
    5600    26.889951      191           83          108 9.274926e-14 1.0153076e-14          0.1  0.009001509     2.826986  0.029897485 
number of iterations: 1509 
    5700    27.069179      192           84          108 9.3978392e-14 1.0168835e-14          0.1  0.009001529    2.8986397  0.029897452 
number of iterations: 1512 
    5800    27.245686      193           85          108 9.5223813e-14 1.0184954e-14          0.1 0.0090015493    2.9712417  0.029897418 
number of iterations: 1656 
    5900    27.435678      197           89          108 9.6485739e-14 1.0201432e-14          0.1  0.009001575    3.0448047  0.029897375 
number of iterations: 1524 
    6000    27.623527      199           90          109 9.7764388e-14 1.0218269e-14          0.1 0.0090015959    3.1193417   0.02989734 
number of iterations: 1613 
    6100    27.823989      201           92          109 9.9059981e-14 1.0235462e-14          0.1 0.0090016208    3.1948656  0.029897299 
number of iterations: 1562 
    6200    28.040131      201           92          109 1.0037274e-13 1.0253011e-14          0.1 0.0090016423    3.2713895  0.029897263 
number of iterations: 1529 
    6300    28.220711      201           92          109 1.017029e-13 1.0270914e-14          0.1  0.009001664     3.348927  0.029897227 
number of iterations: 1689 
    6400    28.412712      208           99          109 1.0305069e-13 1.028917e-14          0.1 0.0090016822    3.4274916  0.029897197 
number of iterations: 1540 
    6500    28.590752      209          100          109 1.0441634e-13 1.0307777e-14          0.1 0.0090017045    3.5070972  0.029897159 
number of iterations: 1593 
    6600    28.774522      213          104          109 1.0580009e-13 1.0326735e-14          0.1 0.0090017185    3.5877573  0.029897136 
number of iterations: 1543 
    6700    28.963545      213          104          109 1.0720217e-13 1.0346041e-14          0.1 0.0090017413    3.6694863  0.029897098 
number of iterations: 1589 
    6800    29.147787      217          108          109 1.0862284e-13 1.0365697e-14          0.1 0.0090017671    3.7522986  0.029897055 
number of iterations: 1549 
    6900    29.344435      219          110          109 1.1006233e-13 1.0385699e-14          0.1 0.0090017847    3.8362088  0.029897026 
number of iterations: 1538 
    7000    29.525086      224          115          109 1.115209e-13 1.0406046e-14          0.1 0.0090018048    3.9212312  0.029896992 
number of iterations: 1545 
    7100    29.767291      228          119          109 1.129988e-13 1.0426739e-14          0.1 0.0090018227    4.0073812  0.029896962 
number of iterations: 1557 
    7200    29.949358      229          119          110 1.1449628e-13 1.0447776e-14          0.1 0.0090018468    4.0946734  0.029896922 
number of iterations: 1548 
    7300    30.130814      230          120          110 1.1601361e-13 1.0469155e-14          0.1 0.0090018655    4.1831232  0.029896891 
number of iterations: 1549 
    7400    30.320217      231          120          111 1.1755104e-13 1.0490876e-14          0.1 0.0090018869     4.272746  0.029896855 
number of iterations: 1692 
    7500    30.520348      236          125          111 1.1910885e-13 1.0512937e-14          0.1 0.0090019157    4.3635575  0.029896808 
number of iterations: 1560 
    7600    30.683278      237          126          111 1.2068731e-13 1.0535339e-14          0.1 0.0090019399    4.4555736  0.029896767 
number of iterations: 1605 
    7700    30.873301      240          129          111 1.2228668e-13 1.055808e-14          0.1 0.0090019674    4.5488098  0.029896721 
number of iterations: 1575 
    7800    31.058879      244          133          111 1.2390725e-13 1.058116e-14          0.1 0.0090019935    4.6432833  0.029896678 
number of iterations: 1729 
    7900    31.304054      246          135          111 1.2554929e-13 1.0604576e-14          0.1 0.0090020258    4.7390099  0.029896624 
number of iterations: 1562 
    8000    31.536362      249          137          112 1.272131e-13 1.0628329e-14          0.1 0.0090020481    4.8360068  0.029896587 
number of iterations: 1558 
    8100    31.760989      249          137          112 1.2889895e-13 1.0652415e-14          0.1 0.0090020699    4.9342908  0.029896551 
number of iterations: 1634 
    8200    31.990466      251          138          113 1.3060715e-13 1.0676837e-14          0.1 0.0090020941    5.0338792   0.02989651 
number of iterations: 1581 
    8300    32.175493      253          139          114 1.3233798e-13 1.0701593e-14          0.1 0.0090021145    5.1347894  0.029896476 
number of iterations: 1650 
    8400    32.374146      254          140          114 1.3409175e-13 1.0726681e-14          0.1 0.0090021409     5.237039  0.029896432 
number of iterations: 1592 
    8500    32.539563      255          141          114 1.3586876e-13 1.0752103e-14          0.1 0.0090021692    5.3406459  0.029896385 
number of iterations: 1610 
    8600    32.735522      258          144          114 1.3766932e-13 1.0777855e-14          0.1 0.0090021934    5.4456279  0.029896345 
number of iterations: 1729 
    8700    32.935816      258          144          114 1.3949374e-13 1.0803939e-14          0.1 0.0090022302    5.5520036  0.029896284 
number of iterations: 1641 
    8800     33.11989      260          145          115 1.4134234e-13 1.0830353e-14          0.1 0.0090022646    5.6597915  0.029896226 
number of iterations: 1600 
    8900    33.316066      261          146          115 1.4321544e-13 1.0857097e-14          0.1 0.0090022947    5.7690106  0.029896176 
number of iterations: 1705 
    9000    33.523243      264          147          117 1.4511336e-13 1.088417e-14          0.1 0.0090023244    5.8796799  0.029896127 
number of iterations: 1618 
    9100    33.750316      265          148          117 1.4703643e-13 1.0911572e-14          0.1 0.0090023552    5.9918187  0.029896075 
number of iterations: 1688 
    9200     33.93506      265          148          117 1.4898498e-13 1.0939301e-14          0.1 0.0090023922    6.1054466  0.029896014 
number of iterations: 1608 
    9300    34.105504      266          149          117 1.5095936e-13 1.0967358e-14          0.1 0.0090024196    6.2205834  0.029895968 
number of iterations: 1619 
    9400    34.299654      266          149          117 1.5295991e-13 1.0995742e-14          0.1 0.0090024516    6.3372494  0.029895915 
number of iterations: 1622 
    9500    34.506194      266          149          117 1.5498696e-13 1.1024453e-14          0.1 0.0090024841    6.4554648   0.02989586 
number of iterations: 1633 
    9600    34.703269      267          150          117 1.5704088e-13 1.1053489e-14          0.1  0.009002514    6.5752499  0.029895811 
number of iterations: 1628 
    9700    34.893331      268          151          117 1.5912202e-13 1.108285e-14          0.1 0.0090025473    6.6966259  0.029895755 
number of iterations: 1644 
    9800    35.076822      268          151          117 1.6123073e-13 1.1112537e-14          0.1 0.0090025811    6.8196141  0.029895699 
number of iterations: 1659 
    9900    35.262551      269          151          118 1.6336739e-13 1.1142548e-14          0.1  0.009002615     6.944236  0.029895642 
number of iterations: 1635 
   10000    35.466802      272          152          120 1.6553237e-13 1.1172883e-14          0.1 0.0090026497    7.0705132  0.029895585 
number of iterations: 1639 
   10100    35.726361      272          152          120 1.6772604e-13 1.1203542e-14          0.1 0.0090026848    7.1984679  0.029895526 
number of iterations: 1639 
   10200    35.915294      277          155          122 1.6994878e-13 1.1234524e-14          0.1 0.0090027182    7.3281224  0.029895471 
number of iterations: 1656 
   10300    36.096598      283          161          122 1.7220097e-13 1.126583e-14          0.1 0.0090027516    7.4594995  0.029895415 
number of iterations: 1651 
   10400    36.280286      285          163          122 1.7448301e-13 1.1297459e-14          0.1 0.0090027895    7.5926221  0.029895352 
number of iterations: 1748 
   10500    36.487374      286          164          122 1.767953e-13 1.1329411e-14          0.1 0.0090028347    7.7275134  0.029895276 
number of iterations: 1601 
   10600    36.660653      288          166          122 1.7913822e-13 1.1361684e-14          0.1 0.0090028505     7.864197   0.02989525 
number of iterations: 1725 
   10700     36.86182      289          167          122 1.815122e-13 1.139428e-14          0.1 0.0090028871    8.0026962  0.029895189 
number of iterations: 1623 
   10800    37.061561      291          169          122 1.8391763e-13 1.1427197e-14          0.1 0.0090029163    8.1430353  0.029895141 
number of iterations: 1679 
   10900    37.241321      295          173          122 1.8635494e-13 1.1460436e-14          0.1 0.0090029601     8.285239  0.029895068 
number of iterations: 1686 
   11000    37.441863      297          175          122 1.8882456e-13 1.1493996e-14          0.1 0.0090030025    8.4293325  0.029894997 
number of iterations: 1653 
   11100    37.653787      302          178          124 1.9132689e-13 1.1527877e-14          0.1 0.0090030412    8.5753407  0.029894933 
number of iterations: 1709 
   11200    37.845019      307          182          125 1.938624e-13 1.1562079e-14          0.1 0.0090030808     8.723289  0.029894867 
number of iterations: 1757 
   11300    38.033894      312          187          125 1.964315e-13 1.1596603e-14          0.1 0.0090031271    8.8732035  0.029894789 
number of iterations: 1741 
   11400    38.218184      314          188          126 1.9903465e-13 1.1631447e-14          0.1 0.0090031724    9.0251101  0.029894714 
number of iterations: 1679 
   11500    38.402042      317          191          126 2.0167229e-13 1.1666612e-14          0.1 0.0090032097    9.1790349  0.029894652 
number of iterations: 1689 
   11600    38.594264      319          193          126 2.0434489e-13 1.1702097e-14          0.1 0.0090032562    9.3350052  0.029894574 
number of iterations: 1786 
   11700    38.794698      327          201          126 2.0705291e-13 1.1737903e-14          0.1 0.0090032952    9.4930482  0.029894509 
number of iterations: 1658 
   11800    38.994465      329          203          126 2.0979681e-13 1.1774028e-14          0.1 0.0090033302    9.6531917  0.029894451 
number of iterations: 1806 
   11900    39.194163      332          206          126 2.1257708e-13 1.1810474e-14          0.1 0.0090033786    9.8154637   0.02989437 
number of iterations: 1800 
   12000     39.39614      339          213          126 2.1539419e-13 1.184724e-14          0.1 0.0090034306    9.9798926  0.029894284 
number of iterations: 1770 
   12100    39.624451      344          217          127 2.1824864e-13 1.1884327e-14          0.1 0.0090034814    10.146506  0.029894199 
number of iterations: 1689 
   12200    39.821465      347          220          127 2.2114091e-13 1.1921733e-14          0.1 0.0090035272    10.315334  0.029894123 
number of iterations: 1743 
   12300    40.019323      351          224          127 2.2407151e-13 1.195946e-14          0.1 0.0090035771    10.486406   0.02989404 
number of iterations: 1768 
   12400    40.228366      355          227          128 2.2704095e-13 1.1997506e-14          0.1 0.0090036313    10.659751   0.02989395 
number of iterations: 1739 
   12500    40.400836      361          233          128 2.3004974e-13 1.2035873e-14          0.1 0.0090036879      10.8354  0.029893855 
number of iterations: 1674 
   12600    40.573822      368          240          128 2.330984e-13 1.207456e-14          0.1 0.0090037288    11.013384  0.029893787 
number of iterations: 1749 
   12700    40.779714      372          244          128 2.3618746e-13 1.2113568e-14          0.1   0.00900378    11.193733  0.029893702 
number of iterations: 1693 
   12800    40.981446      378          248          130 2.3931746e-13 1.2152895e-14          0.1 0.0090038275    11.376479  0.029893623 
number of iterations: 1790 
   12900     41.17859      386          254          132 2.4248894e-13 1.2192544e-14          0.1 0.0090038895    11.561654  0.029893519 
number of iterations: 1794 
   13000    41.411346      388          255          133 2.4570245e-13 1.2232513e-14          0.1 0.0090039468     11.74929  0.029893424 
number of iterations: 1742 
   13100    41.618671      393          260          133 2.4895854e-13 1.2272802e-14          0.1  0.009003993     11.93942  0.029893347 
number of iterations: 1743 
   13200    41.830424      402          266          136 2.5225779e-13 1.2313412e-14          0.1 0.0090040429    12.132076  0.029893264 
number of iterations: 1721 
   13300    42.006521      404          267          137 2.5560076e-13 1.2354344e-14          0.1 0.0090040936    12.327294   0.02989318 
number of iterations: 1763 
   13400    42.235258      407          270          137 2.5898802e-13 1.2395596e-14          0.1 0.0090041452    12.525105  0.029893094 
number of iterations: 1818 
   13500    42.429673      410          273          137 2.6242018e-13 1.2437169e-14          0.1 0.0090042079    12.725546  0.029892989 
number of iterations: 1730 
   13600    42.626391      411          273          138 2.6589782e-13 1.2479065e-14          0.1 0.0090042637     12.92865  0.029892896 
number of iterations: 1745 
   13700    42.816424      413          275          138 2.6942155e-13 1.2521281e-14          0.1 0.0090043219    13.134454  0.029892799 
number of iterations: 1704 
   13800    43.006306      414          276          138 2.7299197e-13 1.256382e-14          0.1 0.0090043732    13.342993  0.029892714 
number of iterations: 1743 
   13900    43.203536      420          282          138 2.7660971e-13 1.2606682e-14          0.1  0.009004427    13.554304  0.029892624 
number of iterations: 1802 
   14000    43.391177      422          284          138 2.8027539e-13 1.2649865e-14          0.1 0.0090044901    13.768422  0.029892519 
number of iterations: 1762 
   14100    43.611146      425          287          138 2.8398965e-13 1.2693372e-14          0.1 0.0090045529    13.985388  0.029892415 
number of iterations: 1808 
   14200    43.793824      431          292          139 2.8775313e-13 1.2737202e-14          0.1  0.009004624    14.205236  0.029892296 
number of iterations: 1729 
   14300    43.991336      432          293          139 2.9156649e-13 1.2781355e-14          0.1 0.0090046792    14.428007  0.029892204 
number of iterations: 1801 
   14400     44.20249      433          294          139 2.9543038e-13 1.2825832e-14          0.1 0.0090047476    14.653738   0.02989209 
number of iterations: 1755 
   14500     44.44831      435          296          139 2.9934548e-13 1.2870632e-14          0.1 0.0090047999     14.88247  0.029892003 
number of iterations: 1777 
   14600    44.666023      436          297          139 3.0331246e-13 1.2915757e-14          0.1 0.0090048612    15.114241  0.029891901 
number of iterations: 1860 
   14700    44.866719      440          300          140 3.0733201e-13 1.2961207e-14          0.1 0.0090049382    15.349093  0.029891773 
number of iterations: 1817 
   14800      45.0797      442          301          141 3.1140482e-13 1.3006982e-14          0.1 0.0090050043    15.587067  0.029891663 
number of iterations: 1806 
   14900    45.291469      449          308          141 3.1553162e-13 1.3053081e-14          0.1 0.0090050769    15.828202  0.029891542 
number of iterations: 1792 
   15000    45.485457      455          313          142 3.197131e-13 1.3099507e-14          0.1 0.0090051435    16.072542  0.029891431 
number of iterations: 1805 
   15100    45.712697      456          314          142 3.2394999e-13 1.3146259e-14          0.1 0.0090052154     16.32013  0.029891311 
number of iterations: 1778 
   15200    45.918418      461          319          142 3.2824303e-13 1.3193337e-14          0.1 0.0090052792    16.571007  0.029891205 
number of iterations: 1793 
   15300    46.098807      464          321          143 3.3259296e-13 1.3240742e-14          0.1  0.009005342    16.825219    0.0298911 
number of iterations: 1779 
   15400    46.305222      467          323          144 3.3700054e-13 1.3288475e-14          0.1  0.009005406    17.082808  0.029890994 
number of iterations: 1825 
   15500    46.501847      476          331          145 3.4146653e-13 1.3336535e-14          0.1  0.009005484    17.343821  0.029890864 
number of iterations: 1803 
   15600    46.695199      483          337          146 3.459917e-13 1.3384923e-14          0.1 0.0090055605    17.608303  0.029890737 
number of iterations: 1801 
   15700     46.89045      485          339          146 3.5057684e-13 1.3433641e-14          0.1 0.0090056268      17.8763  0.029890626 
number of iterations: 1792 
   15800    47.087587      488          342          146 3.5522275e-13 1.3482687e-14          0.1 0.0090056938    18.147858  0.029890514 
number of iterations: 1841 
   15900    47.290525      492          345          147 3.5993022e-13 1.3532064e-14          0.1 0.0090057685    18.423024   0.02989039 
number of iterations: 1813 
   16000    47.473386      501          353          148 3.6470008e-13 1.358177e-14          0.1 0.0090058399    18.701847  0.029890271 
number of iterations: 1836 
   16100    47.686838      507          359          148 3.6953314e-13 1.3631808e-14          0.1 0.0090059114    18.984375  0.029890152 
number of iterations: 1800 
   16200    47.880616      513          365          148 3.7443026e-13 1.3682176e-14          0.1 0.0090059807    19.270658  0.029890037 
number of iterations: 1810 
   16300    48.098463      521          371          150 3.7939227e-13 1.3732876e-14          0.1 0.0090060571    19.560744  0.029889909 
number of iterations: 1852 
   16400    48.300139      526          376          150 3.8442004e-13 1.3783909e-14          0.1 0.0090061496    19.854686  0.029889755 
number of iterations: 1858 
   16500    48.511328      531          381          150 3.8951444e-13 1.3835276e-14          0.1 0.0090062414    20.152533  0.029889602 
number of iterations: 1852 
   16600    48.729298      538          388          150 3.9467635e-13 1.3886975e-14          0.1 0.0090063297    20.454338  0.029889455 
number of iterations: 1802 
   16700    48.917571      541          391          150 3.9990666e-13 1.3939009e-14          0.1 0.0090064074    20.760153  0.029889326 
number of iterations: 1812 
   16800    49.127067      545          395          150 4.0520629e-13 1.3991377e-14          0.1 0.0090064866    21.070032  0.029889194 
number of iterations: 1862 
   16900    49.319363      551          401          150 4.1057615e-13 1.4044081e-14          0.1 0.0090065809    21.384029  0.029889037 
number of iterations: 1896 
   17000    49.512175      558          408          150 4.1601717e-13 1.4097121e-14          0.1 0.0090066785    21.702197  0.029888874 
number of iterations: 1916 
   17100     49.73704      570          418          152 4.215303e-13 1.4150497e-14          0.1 0.0090067758    22.024593  0.029888713 
number of iterations: 1850 
   17200    49.941399      580          425          155 4.2711649e-13 1.4204211e-14          0.1 0.0090068525    22.351272  0.029888585 
number of iterations: 1828 
   17300    50.133998      587          432          155 4.3277671e-13 1.4258263e-14          0.1 0.0090069327    22.682291  0.029888451 
number of iterations: 1831 
   17400    50.332446      592          436          156 4.3851193e-13 1.4312653e-14          0.1 0.0090070192    23.017708  0.029888307 
number of iterations: 1881 
   17500    50.529675      598          442          156 4.4432316e-13 1.4367383e-14          0.1 0.0090071211    23.357581  0.029888137 
number of iterations: 1943 
   17600    50.729218      603          447          156 4.5021141e-13 1.4422453e-14          0.1 0.0090072294     23.70197  0.029887957 
number of iterations: 1871 
   17700    50.926788      613          455          158 4.5617768e-13 1.4477864e-14          0.1 0.0090073298    24.050934   0.02988779 
number of iterations: 1839 
   17800    51.115898      620          462          158 4.6222302e-13 1.4533617e-14          0.1 0.0090074216    24.404536  0.029887637 
number of iterations: 1883 
   17900    51.340708      627          468          159 4.6834847e-13 1.4589712e-14          0.1 0.0090075245    24.762835  0.029887466 
number of iterations: 1855 
   18000    51.582455      632          473          159 4.745551e-13 1.464615e-14          0.1 0.0090076175    25.125894  0.029887311 
number of iterations: 1881 
   18100    51.783993      639          480          159 4.8084397e-13 1.4702931e-14          0.1 0.0090077198    25.493776   0.02988714 
number of iterations: 1928 
   18200    52.021261      648          489          159 4.8721619e-13 1.4760057e-14          0.1 0.0090078263    25.866545  0.029886963 
number of iterations: 1848 
   18300    52.217483      653          493          160 4.9367286e-13 1.4817529e-14          0.1 0.0090079127    26.244267  0.029886819 
number of iterations: 1893 
   18400    52.413931      662          501          161 5.0021509e-13 1.4875346e-14          0.1 0.0090080256    26.627008  0.029886631 
number of iterations: 1867 
   18500    52.647311      668          507          161 5.0684401e-13 1.4933511e-14          0.1 0.0090081249    27.014833  0.029886466 
number of iterations: 1947 
   18600    52.870075      674          513          161 5.1356079e-13 1.4992023e-14          0.1 0.0090082419    27.407809  0.029886271 
number of iterations: 1876 
   18700    53.081116      683          521          162 5.2036657e-13 1.5050884e-14          0.1 0.0090083474    27.806007  0.029886095 
number of iterations: 1926 
   18800    53.284458      687          525          162 5.2726255e-13 1.5110094e-14          0.1 0.0090084572    28.209494  0.029885912 
number of iterations: 1893 
   18900     53.47798      700          536          164 5.3424991e-13 1.5169655e-14          0.1 0.0090085643    28.618341  0.029885734 
number of iterations: 1900 
   19000    53.710871      704          539          165 5.4132987e-13 1.5229567e-14          0.1 0.0090086767    29.032619  0.029885547 
number of iterations: 1881 
   19100     53.91549      714          547          167 5.4850366e-13 1.5289831e-14          0.1 0.0090087846      29.4524  0.029885367 
number of iterations: 1912 
   19200    54.122695      721          554          167 5.5577251e-13 1.5350448e-14          0.1 0.0090089029    29.877757   0.02988517 
number of iterations: 1897 
   19300    54.313469      727          560          167 5.6313769e-13 1.5411419e-14          0.1 0.0090090194    30.308763  0.029884976 
number of iterations: 1922 
   19400    54.548751      733          565          168 5.7060047e-13 1.5472744e-14          0.1  0.009009139    30.745495  0.029884777 
number of iterations: 1937 
   19500    54.754051      745          576          169 5.7816215e-13 1.5534425e-14          0.1 0.0090092612    31.188027  0.029884573 
number of iterations: 1914 
   19600    54.946998      750          581          169 5.8582404e-13 1.5596462e-14          0.1 0.0090093823    31.636437  0.029884372 
number of iterations: 1939 
   19700    55.147758      757          585          172 5.9358746e-13 1.5658857e-14          0.1 0.0090095264    32.090804  0.029884132 
number of iterations: 1899 
   19800    55.362037      766          594          172 6.0145377e-13 1.572161e-14          0.1 0.0090096354    32.551205   0.02988395 
number of iterations: 1942 
   19900    55.586183      774          602          172 6.0942432e-13 1.5784722e-14          0.1 0.0090097569    33.017721  0.029883748 
number of iterations: 1947 
   20000    55.817442      784          611          173 6.175005e-13 1.5848195e-14          0.1 0.0090098947    33.490435  0.029883518 
number of iterations: 1958 
   20100    56.011338      793          620          173 6.256837e-13 1.5912029e-14          0.1 0.0090100438    33.969427   0.02988327 
number of iterations: 1901 
   20200    56.219872      802          628          174 6.3397535e-13 1.5976226e-14          0.1 0.0090101628    34.454782  0.029883072 
number of iterations: 1932 
   20300    56.455632      807          633          174 6.4237688e-13 1.6040786e-14          0.1 0.0090103066    34.946583  0.029882832 
number of iterations: 1912 
   20400     56.67113      815          639          176 6.5088974e-13 1.610571e-14          0.1 0.0090104345    35.444914  0.029882619 
number of iterations: 1945 
   20500    56.883255      825          647          178 6.5951542e-13 1.6170999e-14          0.1 0.0090105764    35.949864  0.029882383 
number of iterations: 1976 
   20600    57.151309      838          660          178 6.6825541e-13 1.6236655e-14          0.1 0.0090107203     36.46152  0.029882143 
number of iterations: 1931 
   20700     57.35322      849          670          179 6.7711122e-13 1.6302678e-14          0.1 0.0090108518    36.979971  0.029881924 
number of iterations: 1956 
   20800    57.577681      856          676          180 6.8608439e-13 1.636907e-14          0.1 0.0090109931    37.505308  0.029881689 
number of iterations: 1942 
   20900    57.800821      867          685          182 6.9517647e-13 1.6435831e-14          0.1 0.0090111379    38.037622  0.029881448 
number of iterations: 1985 
   21000    58.014738      874          692          182 7.0438904e-13 1.6502963e-14          0.1 0.0090112969    38.577006  0.029881183 
number of iterations: 1964 
   21100    58.245356      881          699          182 7.137237e-13 1.6570466e-14          0.1 0.0090114526    39.123552  0.029880924 
number of iterations: 1954 
   21200    58.474599      891          709          182 7.2318206e-13 1.6638342e-14          0.1 0.0090115988    39.677356   0.02988068 
number of iterations: 1933 
   21300    58.676768      897          714          183 7.3276576e-13 1.6706592e-14          0.1 0.0090117359    40.238515  0.029880452 
number of iterations: 2000 
   21400    58.898606      910          727          183 7.4247646e-13 1.6775217e-14          0.1 0.0090119008    40.807125  0.029880178 
number of iterations: 1973 
   21500    59.141351      919          735          184 7.5231585e-13 1.6844218e-14          0.1  0.009012056    41.383286  0.029879919 
number of iterations: 1979 
   21600    59.358589      926          741          185 7.6228564e-13 1.6913596e-14          0.1 0.0090122191    41.967097  0.029879647 
number of iterations: 1960 
   21700    59.589029      932          747          185 7.7238754e-13 1.6983353e-14          0.1 0.0090123709    42.558661  0.029879395 
number of iterations: 1979 
   21800    59.797153      944          758          186 7.8262332e-13 1.705349e-14          0.1 0.0090125411     43.15808  0.029879111 
number of iterations: 1971 
   21900    60.034821      965          778          187 7.9299473e-13 1.7124007e-14          0.1 0.0090126927    43.765457  0.029878859 
number of iterations: 2060 
   22000    60.248369      976          789          187 8.035036e-13 1.7194906e-14          0.1 0.0090129005    44.380899  0.029878513 
number of iterations: 2006 
   22100    60.465243      989          802          187 8.1415172e-13 1.7266188e-14          0.1 0.0090130758    45.004511  0.029878221 
number of iterations: 1988 
   22200    60.699996     1001          813          188 8.2494096e-13 1.7337855e-14          0.1 0.0090132564    45.636404   0.02987792 
number of iterations: 1993 
   22300    60.899598     1007          819          188 8.3587317e-13 1.7409907e-14          0.1 0.0090134377    46.276687  0.029877618 
number of iterations: 2014 
   22400    61.144013     1019          831          188 8.4695026e-13 1.7482346e-14          0.1 0.0090136291     46.92547  0.029877299 
number of iterations: 1998 
   22500    61.348668     1032          844          188 8.5817414e-13 1.7555172e-14          0.1 0.0090138057    47.582868  0.029877005 
number of iterations: 1988 
   22600    61.551427     1042          853          189 8.6954676e-13 1.7628388e-14          0.1 0.0090139776    48.248994  0.029876719 
number of iterations: 1977 
   22700     61.78954     1057          867          190 8.8107009e-13 1.7701995e-14          0.1 0.0090141498    48.923964  0.029876432 
number of iterations: 1986 
   22800    62.047747     1068          877          191 8.9274613e-13 1.7775993e-14          0.1  0.009014327    49.607895  0.029876137 
number of iterations: 2030 
   22900    62.257583     1077          886          191 9.0457689e-13 1.7850385e-14          0.1 0.0090145247    50.300906  0.029875808 
number of iterations: 2037 
   23000    62.483241     1089          897          192 9.1656444e-13 1.7925171e-14          0.1 0.0090147072    51.003117  0.029875504 
number of iterations: 2043 
   23100    62.705826     1111          917          194 9.2871085e-13 1.8000352e-14          0.1 0.0090148951     51.71465  0.029875191 
number of iterations: 2021 
   23200    62.908606     1131          935          196 9.4101823e-13 1.8075931e-14          0.1  0.009015095    52.435629  0.029874858 
number of iterations: 2049 
   23300    63.147485     1147          951          196 9.534887e-13 1.8151907e-14          0.1 0.0090153201     53.16618  0.029874483 
number of iterations: 1996 
   23400    63.362347     1164          966          198 9.6612443e-13 1.8228284e-14          0.1 0.0090155081    53.906432   0.02987417 
number of iterations: 2019 
   23500    63.562742     1178          979          199 9.7892761e-13 1.8305061e-14          0.1 0.0090157082     54.65651  0.029873837 
number of iterations: 2031 
   23600    63.785546     1187          986          201 9.9190046e-13 1.838224e-14          0.1 0.0090159105    55.416545    0.0298735 
number of iterations: 2046 
   23700    64.003191     1203         1002          201 1.0050452e-12 1.8459823e-14          0.1 0.0090161231    56.186669  0.029873146 
number of iterations: 2058 
   23800    64.229328     1210         1009          201 1.0183642e-12 1.8537811e-14          0.1 0.0090163697    56.967017  0.029872736 
number of iterations: 2006 
   23900     64.48028     1221         1019          202 1.0318596e-12 1.8616206e-14          0.1  0.009016577    57.757723   0.02987239 
number of iterations: 2054 
   24000    64.706443     1240         1037          203 1.0455339e-12 1.8695008e-14          0.1  0.009016795    58.558926  0.029872027 
number of iterations: 2076 
   24100     64.94922     1257         1054          203 1.0593894e-12 1.877422e-14          0.1 0.0090170454    59.370765   0.02987161 
number of iterations: 2031 
   24200    65.167519     1278         1074          204 1.0734286e-12 1.8853842e-14          0.1 0.0090172673    60.193382  0.029871241 
number of iterations: 2020 
   24300    65.383167     1292         1087          205 1.0876537e-12 1.8933877e-14          0.1 0.0090174754    61.026918  0.029870894 
number of iterations: 2058 
   24400    65.604144     1304         1098          206  1.10093e-12 1.9014324e-14          0.1 0.0090176969    61.870647  0.029870525 
number of iterations: 2021 
   24500    65.820129     1322         1115          207 1.1155196e-12 1.9095187e-14          0.1 0.0090179069    62.725576  0.029870176 
number of iterations: 2062 
   24600     66.04978     1331         1124          207 1.1303026e-12 1.9176466e-14          0.1 0.0090181477    63.591852  0.029869775 
number of iterations: 2054 
   24700    66.316471     1348         1141          207 1.1452814e-12 1.9258163e-14          0.1 0.0090183852    64.469626  0.029869379 
number of iterations: 2050 
   24800    66.541492     1364         1157          207 1.1604588e-12 1.9340279e-14          0.1 0.0090186203    65.359052  0.029868988 
number of iterations: 2079 
   24900    66.769296     1373         1165          208 1.1758373e-12 1.9422815e-14          0.1 0.0090188691    66.260284  0.029868573 
number of iterations: 2047 
   25000    66.973186     1384         1175          209 1.1914196e-12 1.9505774e-14          0.1 0.0090191073    67.173478  0.029868177 
number of iterations: 2082 
   25100    67.250721     1393         1184          209 1.2072084e-12 1.9589156e-14          0.1 0.0090193802    68.098792  0.029867722 
number of iterations: 2116 
   25200    67.472788     1407         1197          210 1.2232064e-12 1.9672964e-14          0.1 0.0090196669    69.036388  0.029867245 
number of iterations: 2073 
   25300    67.692412     1430         1218          212 1.2394164e-12 1.9757199e-14          0.1 0.0090199209    69.986426  0.029866822 
number of iterations: 2088 
   25400    67.920178     1443         1229          214 1.2558413e-12 1.9841862e-14          0.1  0.009020195    70.949073  0.029866365 
number of iterations: 2094 
   25500    68.156014     1453         1239          214 1.2724838e-12 1.9926955e-14          0.1 0.0090204697    71.924497  0.029865908 
number of iterations: 2076 
   25600    68.395983     1469         1255          214 1.2893468e-12 2.001248e-14          0.1 0.0090207348    72.912867  0.029865467 
number of iterations: 2098 
   25700    68.641492     1486         1272          214 1.3064333e-12 2.0098437e-14          0.1 0.0090209999    73.914356  0.029865025 
number of iterations: 2090 
   25800      68.8702     1503         1288          215 1.3237463e-12 2.0184829e-14          0.1 0.0090212841    74.929137  0.029864552 
number of iterations: 2072 
   25900    69.100062     1522         1307          215 1.3412886e-12 2.0271658e-14          0.1 0.0090215575    75.957384  0.029864097 
number of iterations: 2089 
   26000    69.318755     1541         1326          215 1.3590635e-12 2.0358924e-14          0.1 0.0090218483    76.999279  0.029863612 
number of iterations: 2104 
   26100    69.543274     1562         1345          217 1.3770739e-12 2.044663e-14          0.1 0.0090221481    78.055001  0.029863113 
number of iterations: 2088 
   26200     69.77938     1584         1366          218 1.3953229e-12 2.0534778e-14          0.1 0.0090224328    79.124734  0.029862639 
number of iterations: 2108 
   26300    69.993776     1609         1390          219 1.4138138e-12 2.0623368e-14          0.1 0.0090227285    80.208663  0.029862147 
number of iterations: 2103 
   26400    70.230566     1633         1414          219 1.4325498e-12 2.0712402e-14          0.1 0.0090230186    81.306976  0.029861663 
number of iterations: 2113 
   26500    70.483701     1654         1434          220 1.451534e-12 2.0801882e-14          0.1 0.0090233237    82.419867  0.029861155 
number of iterations: 2120 
   26600    70.718433     1670         1447          223 1.4707698e-12 2.089181e-14          0.1 0.0090236361    83.547526  0.029860635 
number of iterations: 2120 
   26700    70.951899     1691         1468          223 1.4902605e-12 2.0982188e-14          0.1 0.0090239622    84.690151  0.029860092 
number of iterations: 2117 
   26800     71.21755     1714         1488          226 1.5100095e-12 2.1073017e-14          0.1  0.009024288    85.847939   0.02985955 
number of iterations: 2142 
   26900    71.467146     1733         1506          227 1.5300202e-12 2.1164299e-14          0.1 0.0090246106    87.021092  0.029859012 
number of iterations: 2130 
   27000    71.696456     1752         1524          228 1.5502961e-12 2.1256035e-14          0.1 0.0090249468    88.209814  0.029858453 
number of iterations: 2092 
   27100    71.936844     1770         1542          228 1.5708407e-12 2.1348228e-14          0.1 0.0090252296    89.414311  0.029857982 
number of iterations: 2148 
   27200    72.164856     1792         1564          228 1.5916576e-12 2.1440878e-14          0.1 0.0090255952    90.634793  0.029857373 
number of iterations: 2149 
   27300    72.399988     1811         1583          228 1.6127503e-12 2.1533989e-14          0.1 0.0090259455     91.87147  0.029856789 
number of iterations: 2148 
   27400    72.637154     1826         1598          228 1.6341225e-12 2.1627561e-14          0.1 0.0090262966    93.124559  0.029856205 
number of iterations: 2109 
   27500    72.863671     1844         1615          229 1.6557779e-12 2.1721596e-14          0.1 0.0090266209    94.394276  0.029855665 
number of iterations: 2126 
   27600    73.111586     1861         1630          231 1.6777204e-12 2.1816097e-14          0.1 0.0090269613    95.680843  0.029855098 
number of iterations: 2128 
   27700    73.354838     1889         1658          231 1.6999536e-12 2.1911064e-14          0.1 0.0090273163    96.984482  0.029854507 
number of iterations: 2096 
   27800    73.591733     1918         1687          231 1.7224814e-12  2.20065e-14          0.1 0.0090276232    98.305419  0.029853996 
number of iterations: 2170 
   27900    73.845686     1943         1711          232 1.7453078e-12 2.2102407e-14          0.1 0.0090280241    99.643884  0.029853328 
number of iterations: 2142 
   28000    74.072583     1968         1734          234 1.7674785e-12 2.2198786e-14          0.1 0.0090283998    100.99938  0.029852703 
number of iterations: 2184 
   28100    74.307442     1998         1764          234 1.7909011e-12 2.2295639e-14          0.1 0.0090288095    102.37285   0.02985202 
number of iterations: 2142 
   28200    74.606276     2032         1798          234 1.8146342e-12 2.2392968e-14          0.1 0.0090291641    103.76456   0.02985143 
number of iterations: 2135 
   28300    74.831664     2059         1824          235 1.8386818e-12 2.2490775e-14          0.1 0.0090295298    105.17472  0.029850821 
number of iterations: 2189 
   28400    75.084481     2081         1846          235 1.863048e-12 2.2589062e-14          0.1 0.0090299389     106.6036   0.02985014 
number of iterations: 2176 
   28500     75.31651     2114         1877          237 1.8877371e-12 2.2687831e-14          0.1 0.0090303489    108.05143  0.029849457 
number of iterations: 2177 
   28600     75.55441     2131         1894          237 1.9127535e-12 2.2787083e-14          0.1 0.0090307546    109.51847  0.029848781 
number of iterations: 2169 
   28700    75.790824     2147         1910          237 1.9381013e-12 2.2886821e-14          0.1  0.009031164    111.00498    0.0298481 
number of iterations: 2178 
   28800    76.038029     2162         1925          237 1.963785e-12 2.2987046e-14          0.1 0.0090315778    112.51121  0.029847411 
number of iterations: 2168 
   28900    76.310838     2194         1956          238 1.9898091e-12 2.308776e-14          0.1 0.0090319801    114.03742  0.029846741 
number of iterations: 2194 
   29000    76.559329     2227         1987          240 2.0161781e-12 2.3188966e-14          0.1 0.0090324164    115.58388  0.029846014 
number of iterations: 2172 
   29100    76.814409     2255         2013          242 2.0428964e-12 2.3290665e-14          0.1 0.0090328411    117.15087  0.029845307 
number of iterations: 2192 
   29200    77.108311     2290         2045          245 2.0699689e-12 2.3392859e-14          0.1 0.0090332647    118.73864  0.029844601 
number of iterations: 2181 
   29300    77.374086     2316         2069          247 2.0974001e-12 2.349555e-14          0.1 0.0090336882    120.34748  0.029843896 
number of iterations: 2194 
   29400    77.595562     2356         2108          248 2.1251949e-12 2.3598741e-14          0.1 0.0090341564    121.97767  0.029843117 
number of iterations: 2192 
   29500    77.828522     2388         2138          250 2.1533579e-12 2.3702432e-14          0.1 0.0090345998    123.62948  0.029842378 
number of iterations: 2181 
   29600    78.071989     2417         2166          251 2.1818942e-12 2.3806627e-14          0.1 0.0090350351    125.30321  0.029841653 
number of iterations: 2177 
   29700     78.33321     2439         2187          252 2.2108086e-12 2.3911327e-14          0.1 0.0090354738    126.99914  0.029840923 
number of iterations: 2211 
   29800    78.577422     2459         2207          252 2.2401062e-12 2.4016534e-14          0.1 0.0090359568    128.71757  0.029840118 
number of iterations: 2204 
   29900    78.844626     2493         2241          252 2.2697921e-12 2.412225e-14          0.1 0.0090364543     130.4588   0.02983929 
number of iterations: 2192 
   30000    79.082083     2526         2273          253 2.2998713e-12 2.4228478e-14          0.1 0.0090369116    132.22313  0.029838529 
number of iterations: 2227 
   30100    79.338047     2560         2306          254 2.3303491e-12 2.433522e-14          0.1 0.0090374428    134.01086  0.029837644 
number of iterations: 2204 
   30200    79.565034     2586         2332          254 2.3612309e-12 2.4442477e-14          0.1 0.0090379278    135.82231  0.029836837 
number of iterations: 2215 
   30300    79.828282     2619         2363          256 2.3925218e-12 2.4550251e-14          0.1 0.0090384175    137.65779  0.029836021 
number of iterations: 2211 
   30400    80.073419     2652         2396          256 2.4242274e-12 2.4658545e-14          0.1  0.009038899    139.51762  0.029835219 
number of iterations: 2213 
   30500    80.304582     2686         2428          258 2.4549339e-12 2.4767361e-14          0.1 0.0090393771    141.40104  0.029834423 
number of iterations: 2238 
   30600    80.550028     2719         2460          259 2.4874666e-12 2.4876701e-14          0.1 0.0090399473    143.30944  0.029833474 
number of iterations: 2235 
   30700    80.822235     2750         2490          260 2.5204304e-12 2.4986567e-14          0.1 0.0090404696    145.24316  0.029832604 
number of iterations: 2227 
   30800    81.080968     2776         2515          261 2.5538311e-12 2.5096961e-14          0.1 0.0090409898    147.20253  0.029831738 
number of iterations: 2236 
   30900    81.389273     2811         2548          263 2.5876743e-12 2.5207885e-14          0.1 0.0090415519    149.18789  0.029830802 
number of iterations: 2214 
   31000    81.638235     2843         2579          264 2.6219661e-12 2.5319343e-14          0.1 0.0090420912    151.19959  0.029829904 
number of iterations: 2262 
   31100    81.895232     2868         2604          264 2.6567122e-12 2.5431335e-14          0.1 0.0090426936    153.23797  0.029828901 
number of iterations: 2225 
   31200    82.151255     2920         2650          270 2.6919188e-12 2.5543864e-14          0.1 0.0090432445    155.30339  0.029827983 
number of iterations: 2231 
   31300    82.402334     2956         2684          272 2.7262627e-12 2.5656933e-14          0.1 0.0090437895     157.3952  0.029827076 
number of iterations: 2222 
   31400    82.643824     2992         2717          275 2.762391e-12 2.5770543e-14          0.1 0.0090443339    159.51476  0.029826169 
number of iterations: 2252 
   31500    82.891737     3032         2757          275 2.798998e-12 2.5884697e-14          0.1 0.0090449267    161.66243  0.029825182 
number of iterations: 2263 
   31600    83.176051     3070         2794          276 2.8360902e-12 2.5999397e-14          0.1 0.0090455557    163.83859  0.029824135 
number of iterations: 2237 
   31700    83.427467     3110         2833          277 2.8736738e-12 2.6114645e-14          0.1 0.0090461427    166.04362  0.029823157 
number of iterations: 2242 
   31800    83.689134     3137         2858          279 2.9117555e-12 2.6230444e-14          0.1 0.0090467303     168.2779  0.029822179 
number of iterations: 2271 
   31900     83.94062     3176         2894          282 2.9503419e-12 2.6346796e-14          0.1 0.0090473578    170.54181  0.029821134 
number of iterations: 2217 
   32000    84.195324     3221         2936          285 2.9868823e-12 2.6463703e-14          0.1 0.0090478893    172.83381  0.029820249 
number of iterations: 2288 
   32100    84.494585     3262         2976          286 3.0264642e-12 2.6581167e-14          0.1  0.009048591     175.1562   0.02981908 
number of iterations: 2262 
   32200    84.736414     3299         3012          287 3.0665706e-12 2.6699192e-14          0.1 0.0090492326     177.5094  0.029818012 
number of iterations: 2293 
   32300    85.023026     3340         3053          287 3.1072085e-12 2.6817779e-14          0.1 0.0090499298    179.89381  0.029816851 
number of iterations: 2259 
   32400    85.271579     3385         3096          289 3.148385e-12 2.693693e-14          0.1 0.0090505632    182.30986  0.029815796 
number of iterations: 2276 
   32500     85.53553     3431         3139          292 3.1901071e-12 2.7056648e-14          0.1 0.0090512318    184.75795  0.029814683 
number of iterations: 2255 
   32600     85.77992     3472         3176          296 3.232382e-12 2.7176936e-14          0.1   0.00905185    187.23851  0.029813653 
number of iterations: 2277 
   32700    86.027723     3517         3221          296 3.2752172e-12 2.7297795e-14          0.1 0.0090525376    189.75198  0.029812509 
number of iterations: 2288 
   32800    86.278988     3555         3259          296 3.3171464e-12 2.7419229e-14          0.1 0.0090532535    192.29767  0.029811316 
number of iterations: 2291 
   32900    86.523809     3606         3307          299 3.3599448e-12 2.7541239e-14          0.1 0.0090539594    194.87623  0.029810141 
number of iterations: 2318 
   33000    86.816348     3651         3348          303 3.4044704e-12 2.7663828e-14          0.1 0.0090547126    197.48899  0.029808887 
number of iterations: 2265 
   33100    87.089816     3691         3386          305 3.449586e-12 2.7786998e-14          0.1  0.009055365    200.13642    0.0298078 
number of iterations: 2309 
   33200    87.379202     3737         3430          307 3.4942319e-12 2.7910752e-14          0.1 0.0090561768    202.81814  0.029806449 
number of iterations: 2298 
   33300    87.648346     3796         3487          309 3.540537e-12 2.8035093e-14          0.1 0.0090568857    205.53545  0.029805268 
number of iterations: 2313 
   33400    87.914617     3837         3527          310 3.5874558e-12 2.8160022e-14          0.1 0.0090576747    208.28879  0.029803954 
number of iterations: 2306 
   33500    88.187247     3881         3571          310 3.6349962e-12 2.8285543e-14          0.1 0.0090584804    211.07864  0.029802613 
number of iterations: 2321 
   33600    88.433405     3934         3622          312 3.6831667e-12 2.8411658e-14          0.1 0.0090593141    213.90551  0.029801224 
number of iterations: 2310 
   33700    88.679862     3984         3671          313 3.7319755e-12 2.853837e-14          0.1  0.009060069    216.76988  0.029799967 
number of iterations: 2315 
   33800    88.964736     4043         3729          314 3.7814311e-12 2.866568e-14          0.1 0.0090608966    219.67226  0.029798589 
number of iterations: 2321 
   33900     89.25181     4092         3776          316 3.8315421e-12 2.8793592e-14          0.1 0.0090617125    222.61314  0.029797231 
number of iterations: 2333 
   34000    89.526068     4155         3838          317 3.8823171e-12 2.8922109e-14          0.1 0.0090625288    225.59302  0.029795871 
number of iterations: 2333 
   34100    89.807492     4207         3889          318 3.9337649e-12 2.9051231e-14          0.1 0.0090633282    228.61242   0.02979454 
number of iterations: 2313 
   34200    90.073279     4248         3930          318 3.984481e-12 2.9180963e-14          0.1 0.0090641496    231.67078  0.029793173 
number of iterations: 2341 
   34300    90.328763     4303         3984          319 4.0372827e-12 2.9311307e-14          0.1 0.0090650117    234.76969  0.029791737 
number of iterations: 2328 
   34400    90.616409     4362         4042          320 4.0907841e-12 2.9442266e-14          0.1 0.0090658984    237.90971  0.029790261 
number of iterations: 2313 
   34500    90.891548     4415         4094          321 4.1449945e-12 2.9573842e-14          0.1 0.0090667385     241.0914  0.029788862 
number of iterations: 2335 
   34600    91.222401     4459         4137          322 4.1999232e-12 2.9706038e-14          0.1 0.0090676017    244.31529  0.029787424 
number of iterations: 2331 
   34700    91.526459     4511         4188          323 4.2555798e-12 2.9838856e-14          0.1 0.0090684741    247.58193  0.029785972 
number of iterations: 2345 
   34800      91.8073     4567         4242          325 4.311974e-12  2.99723e-14          0.1 0.0090694046    250.89189  0.029784422 
number of iterations: 2351 
   34900    92.077839     4645         4318          327 4.3691154e-12 3.0106371e-14          0.1 0.0090702994    254.24573  0.029782932 
number of iterations: 2327 
   35000    92.382917     4698         4368          330 4.4247237e-12 3.0241073e-14          0.1 0.0090711835    257.64229   0.02978146 
Loop time of 92.383 on 32 procs for 35000 steps with 4698 atoms

Performance: 327333064.081 tau/day, 378.858 timesteps/s
92.2% CPU use with 32 MPI tasks x no OpenMP threads

MPI task timing breakdown:
Section |  min time  |  avg time  |  max time  |%varavg| %total
---------------------------------------------------------------
Pair    | 0.0091639  | 0.06818    | 0.16579    |  16.0 |  0.07
Neigh   | 0.0037654  | 0.020227   | 0.04563    |   8.0 |  0.02
Comm    | 0.034711   | 0.15961    | 0.2595     |  15.8 |  0.17
Output  | 21.948     | 21.948     | 21.955     |   0.0 | 23.76
Modify  | 69.724     | 69.764     | 69.825     |   0.3 | 75.52
Other   |            | 0.4227     |            |       |  0.46

Nlocal:    146.812 ave 347 max 12 min
Histogram: 5 3 5 5 2 4 2 4 0 2
Nghost:    83.2188 ave 194 max 0 min
Histogram: 5 2 2 6 5 5 3 1 0 3
Neighs:    527.906 ave 1364 max 17 min
Histogram: 5 4 7 2 4 2 5 1 1 1

Total # of neighbors = 16893
Ave neighs/atom = 3.59579
Neighbor list builds = 682
Dangerous builds = 0
Total wall time: 0:01:32
