 NUFEB Simulation

     100 atoms 
     2 atom types 
     4 nutrients 

  0.0e-4   1.00e-04  xlo xhi 
  0.0e-4   1.00e-04  ylo yhi 
  0.0e-4   1.00e-05  zlo zhi 

 Atoms 

     1 1 1.82e-06  370 8.89e-05 1.15e-05 7.21e-06 1.82e-06 
     2 1 1.90e-06  370 7.92e-05 5.86e-05 5.97e-06 1.90e-06 
     3 1 1.77e-06  370 2.41e-05 6.40e-05 7.60e-06 1.77e-06 
     4 1 1.75e-06  370 7.61e-05 2.77e-05 8.03e-06 1.75e-06 
     5 1 1.70e-06  370 3.37e-05 1.25e-05 3.76e-06 1.70e-06 
     6 1 1.62e-06  370 9.42e-05 4.42e-05 5.85e-06 1.62e-06 
     7 1 1.42e-06  370 1.34e-05 8.75e-05 6.20e-06 1.42e-06 
     8 1 1.86e-06  370 4.80e-05 4.35e-05 4.38e-06 1.86e-06 
     9 1 1.61e-06  370 5.95e-05 1.63e-05 3.59e-06 1.61e-06 
     10 1 1.79e-06  370 1.26e-05 3.47e-06 4.35e-06 1.79e-06 
     11 1 1.73e-06  370 1.60e-05 7.83e-05 7.12e-06 1.73e-06 
     12 1 1.82e-06  370 4.19e-05 7.60e-06 7.76e-06 1.82e-06 
     13 1 1.69e-06  370 6.95e-05 7.51e-05 5.92e-06 1.69e-06 
     14 1 1.47e-06  370 5.67e-05 5.47e-05 8.15e-06 1.47e-06 
     15 1 1.59e-06  370 1.77e-05 7.80e-05 4.22e-06 1.59e-06 
     16 1 1.80e-06  370 4.84e-05 2.68e-05 8.19e-06 1.80e-06 
     17 1 1.92e-06  370 4.86e-05 6.50e-05 4.03e-06 1.92e-06 
     18 1 1.78e-06  370 5.67e-05 8.78e-05 3.74e-06 1.78e-06 
     19 1 1.50e-06  370 3.68e-05 8.30e-05 1.56e-06 1.50e-06 
     20 1 1.69e-06  370 7.69e-05 5.21e-05 4.10e-06 1.69e-06 
     21 1 1.93e-06  370 6.24e-06 7.28e-05 7.39e-06 1.93e-06 
     22 1 1.62e-06  370 9.75e-06 6.87e-06 5.82e-06 1.62e-06 
     23 1 1.77e-06  370 9.62e-05 6.85e-05 7.00e-06 1.77e-06 
     24 1 1.49e-06  370 8.93e-05 1.94e-05 6.84e-06 1.49e-06 
     25 1 1.91e-06  370 9.49e-05 9.77e-05 4.15e-06 1.91e-06 
     26 1 1.65e-06  370 3.53e-05 6.30e-05 6.19e-06 1.65e-06 
     27 1 1.91e-06  370 4.21e-05 8.06e-05 6.55e-06 1.91e-06 
     28 1 1.67e-06  370 3.69e-05 4.35e-05 1.78e-06 1.67e-06 
     29 1 1.52e-06  370 2.86e-05 4.50e-05 2.01e-06 1.52e-06 
     30 1 1.85e-06  370 9.65e-05 7.43e-05 3.03e-06 1.85e-06 
     31 1 1.48e-06  370 1.85e-05 7.34e-06 7.76e-06 1.48e-06 
     32 1 1.53e-06  370 2.37e-05 4.56e-06 6.36e-06 1.53e-06 
     33 1 1.59e-06  370 7.43e-06 3.66e-05 1.88e-06 1.59e-06 
     34 1 1.37e-06  370 7.94e-05 1.56e-05 4.39e-06 1.37e-06 
     35 1 1.87e-06  370 2.53e-05 4.70e-05 7.55e-06 1.87e-06 
     36 1 1.88e-06  370 1.21e-05 4.20e-05 7.37e-06 1.88e-06 
     37 1 1.50e-06  370 9.10e-05 8.82e-05 3.72e-06 1.50e-06 
     38 1 1.39e-06  370 8.02e-05 6.12e-05 7.42e-06 1.39e-06 
     39 1 1.57e-06  370 5.94e-05 4.26e-05 2.94e-06 1.57e-06 
     40 1 1.81e-06  370 8.04e-05 2.65e-05 6.99e-06 1.81e-06 
     41 1 1.63e-06  370 5.84e-05 3.74e-05 6.03e-06 1.63e-06 
     42 1 1.80e-06  370 2.38e-05 7.49e-05 4.74e-06 1.80e-06 
     43 1 1.41e-06  370 4.65e-05 2.83e-05 2.60e-06 1.41e-06 
     44 1 1.49e-06  370 9.27e-06 7.19e-05 3.67e-06 1.49e-06 
     45 1 1.62e-06  370 8.97e-05 1.95e-05 6.51e-06 1.62e-06 
     46 1 1.74e-06  370 8.31e-05 4.14e-05 7.96e-06 1.74e-06 
     47 1 1.74e-06  370 2.26e-05 8.64e-05 3.93e-06 1.74e-06 
     48 1 1.44e-06  370 6.22e-05 8.99e-05 7.36e-06 1.44e-06 
     49 1 1.74e-06  370 9.44e-05 5.90e-05 7.01e-06 1.74e-06 
     50 1 1.68e-06  370 8.01e-05 5.59e-05 7.82e-06 1.68e-06 
     51 2 9.42e-07  230 6.99e-05 3.27e-05 8.07e-06 9.42e-07 
     52 2 1.18e-06  230 2.40e-05 5.77e-05 1.60e-06 1.18e-06 
     53 2 1.11e-06  230 9.69e-05 3.67e-05 4.54e-06 1.11e-06 
     54 2 1.10e-06  230 9.79e-05 8.49e-05 1.31e-06 1.10e-06 
     55 2 1.04e-06  230 5.00e-05 8.17e-05 8.00e-06 1.04e-06 
     56 2 9.94e-07  230 7.77e-05 3.76e-05 4.16e-06 9.94e-07 
     57 2 1.18e-06  230 2.89e-05 8.33e-06 2.41e-06 1.18e-06 
     58 2 1.04e-06  230 3.63e-05 6.34e-05 3.97e-06 1.04e-06 
     59 2 8.99e-07  230 7.65e-06 7.74e-05 5.84e-06 8.99e-07 
     60 2 1.12e-06  230 1.69e-05 8.18e-05 6.20e-06 1.12e-06 
     61 2 1.03e-06  230 5.70e-05 2.50e-05 3.80e-06 1.03e-06 
     62 2 9.78e-07  230 5.80e-05 6.74e-05 3.39e-06 9.78e-07 
     63 2 1.25e-06  230 2.64e-05 5.51e-05 5.83e-06 1.25e-06 
     64 2 1.29e-06  230 6.36e-05 5.65e-06 7.93e-06 1.29e-06 
     65 2 1.02e-06  230 5.07e-05 9.39e-06 4.13e-06 1.02e-06 
     66 2 1.28e-06  230 7.55e-05 2.51e-05 8.30e-06 1.28e-06 
     67 2 1.27e-06  230 9.26e-06 7.48e-05 1.46e-06 1.27e-06 
     68 2 1.00e-06  230 6.51e-05 4.97e-05 4.61e-06 1.00e-06 
     69 2 1.29e-06  230 8.06e-05 7.45e-05 4.82e-06 1.29e-06 
     70 2 9.87e-07  230 4.72e-05 6.31e-05 8.56e-06 9.87e-07 
     71 2 9.26e-07  230 3.49e-05 3.32e-05 6.04e-06 9.26e-07 
     72 2 9.46e-07  230 5.73e-05 4.74e-05 2.39e-06 9.46e-07 
     73 2 9.41e-07  230 2.81e-05 6.77e-05 7.69e-06 9.41e-07 
     74 2 1.17e-06  230 5.71e-05 8.48e-05 1.66e-06 1.17e-06 
     75 2 1.10e-06  230 6.20e-05 9.82e-05 7.38e-06 1.10e-06 
     76 2 1.22e-06  230 4.50e-06 6.56e-05 2.74e-06 1.22e-06 
     77 2 9.26e-07  230 9.06e-06 6.60e-05 4.16e-06 9.26e-07 
     78 2 1.25e-06  230 9.74e-05 9.52e-05 6.02e-06 1.25e-06 
     79 2 1.29e-06  230 4.91e-05 4.44e-05 3.70e-06 1.29e-06 
     80 2 1.26e-06  230 2.23e-05 3.53e-06 5.17e-06 1.26e-06 
     81 2 1.05e-06  230 6.32e-05 8.58e-05 2.03e-06 1.05e-06 
     82 2 1.17e-06  230 5.38e-05 6.62e-05 3.73e-06 1.17e-06 
     83 2 1.12e-06  230 1.09e-05 5.91e-05 2.24e-06 1.12e-06 
     84 2 1.31e-06  230 8.69e-05 7.88e-05 1.96e-06 1.31e-06 
     85 2 1.34e-06  230 5.75e-05 3.77e-05 2.44e-06 1.34e-06 
     86 2 9.78e-07  230 9.48e-05 3.47e-05 2.46e-06 9.78e-07 
     87 2 9.35e-07  230 8.63e-05 2.87e-05 4.29e-06 9.35e-07 
     88 2 9.70e-07  230 5.69e-05 2.26e-05 4.08e-06 9.70e-07 
     89 2 1.09e-06  230 7.42e-05 3.37e-05 7.93e-06 1.09e-06 
     90 2 1.17e-06  230 9.46e-05 8.23e-05 7.14e-06 1.17e-06 
     91 2 9.74e-07  230 8.16e-05 4.76e-05 6.97e-06 9.74e-07 
     92 2 9.98e-07  230 9.04e-05 1.50e-05 2.00e-06 9.98e-07 
     93 2 1.02e-06  230 7.26e-05 4.57e-05 2.74e-06 1.02e-06 
     94 2 1.04e-06  230 7.41e-05 6.37e-05 6.05e-06 1.04e-06 
     95 2 1.04e-06  230 1.65e-05 7.02e-05 3.65e-06 1.04e-06 
     96 2 1.02e-06  230 8.16e-05 9.33e-05 8.12e-06 1.02e-06 
     97 2 1.24e-06  230 1.11e-05 3.20e-06 5.42e-06 1.24e-06 
     98 2 1.35e-06  230 8.20e-05 4.59e-05 3.61e-06 1.35e-06 
     99 2 1.17e-06  230 4.25e-05 7.04e-05 4.62e-06 1.17e-06 
     100 2 1.25e-06  230 6.34e-05 3.36e-06 3.53e-06 1.25e-06 

 Nutrients 

     1 sub g nn nn nn 1.00e-01 1.00e-01 
     2 o2 l nn nn nd 9.00e-03 9.00e-03 
     3 suc l nn nn nn 3.42e-20 3.42e-20 
     4 co2 l nn nn nd 2.99e-02 2.99e-02 

 Type Name 

     1 cyano  
     2 ecw  

 Diffusion Coeffs 

     sub 0 
     o2 2.3e-09 
     suc 5.2e-10 
     co2 1.9e-09 

 Growth Rate 

     cyano 1.67e-05 
     ecw 6e-06 

 Ks 

     cyano 0.00035 0.0002 0.01 0.000138 
     ecw 0 0.001 3.6 0.05 

 Yield 

     cyano 0.55 
     ecw 0.43 

 Maintenance 

     cyano 0 
     ecw 9.5e-07 

 Decay 

     cyano 0 
     ecw 0 



