LAMMPS (20 Nov 2019)
Reading data file ...
  orthogonal box = (0 0 0) to (0.0001 0.0001 1e-05)
  8 by 4 by 1 MPI processor grid
  reading atoms ...
  100 atoms
  4 nutrients
Lattice spacing in x,y,z = 100 100 100
50 atoms in group CYANO
50 atoms in group ECW
Model is defined as a closed system. 
Neighbor list info ...
  update every 1 steps, delay 0 steps, check yes
  max neighbors/atom: 5000, page size: 100000
  master list distance cutoff = 2.43e-06
  ghost atom cutoff = 2.43e-06
  binsize = 1.215e-06, bins = 83 83 9
  1 neighbor lists, perpetual/occasional/extra = 1 0 0
  (1) pair gran/hooke/history, perpetual
      attributes: half, newton off, size, history
      pair build: half/size/bin/newtoff
      stencil: half/bin/3d/newtoff
      bin: standard
Setting up Verlet run ...
  Unit style    : lj
  Current step  : 0
  Time step     : 10
Per MPI rank memory allocation (min/avg/max) = 5.794 | 10.17 | 12.11 Mbytes
Step CPU Atoms c_myNtypes[1] c_myNtypes[2] c_myMass[1] c_myMass[2] c_myCon[1] c_myCon[2] c_myCon[3] c_myCon[4] 
       0            0      100           50           50 4.6860253e-14 8.4703791e-15          0.1        0.009     3.42e-20       0.0299 
number of iterations: 319689 
     100    15.382596      131           50           81 4.7481255e-14 8.4636101e-15          0.1  0.009000735  0.037633524  0.029898776 
number of iterations: 3357 
     200    15.685507      139           50           89 4.8110487e-14 8.4573182e-15          0.1 0.0090007448  0.074586603  0.029898759 
number of iterations: 2329 
     300     15.93115      139           50           89 4.8748057e-14 8.4514895e-15          0.1 0.0090007546   0.11201542  0.029898743 
number of iterations: 1907 
     400    16.160519      139           50           89 4.9394077e-14 8.4461167e-15          0.1 0.0090007646   0.14992875  0.029898726 
number of iterations: 1679 
     500    16.404193      140           51           89 5.0048658e-14 8.441194e-15          0.1   0.00900077   0.18833393  0.029898717 
number of iterations: 1514 
     600    16.615854      141           52           89 5.0711914e-14 8.4367166e-15          0.1 0.0090007834   0.22723793  0.029898695 
number of iterations: 1697 
     700    16.859836      143           54           89 5.1383959e-14  8.43268e-15          0.1 0.0090008018   0.26664774  0.029898664 
number of iterations: 1395 
     800    17.093651      143           54           89 5.206491e-14  8.42908e-15          0.1 0.0090008124   0.30657037  0.029898647 
number of iterations: 1340 
     900    17.382888      144           55           89 5.2754886e-14 8.4259126e-15          0.1 0.0090008196   0.34701287  0.029898635 
number of iterations: 1399 
    1000    17.662227      144           55           89 5.3454005e-14 8.4231738e-15          0.1 0.0090008304    0.3879824  0.029898616 
number of iterations: 1402 
    1100    17.854107      145           56           89 5.4162389e-14 8.4208603e-15          0.1 0.0090008367   0.42948608  0.029898606 
number of iterations: 1405 
    1200    18.056107      146           57           89 5.4880161e-14 8.4189677e-15          0.1 0.0090008431   0.47153132  0.029898595 
number of iterations: 1486 
    1300    18.253382      147           58           89 5.5607445e-14 8.4174932e-15          0.1 0.0090008575   0.51412551  0.029898571 
number of iterations: 1408 
    1400    18.441584      147           58           89 5.6344366e-14 8.4164322e-15          0.1 0.0090008655   0.55727614  0.029898558 
number of iterations: 1413 
    1500    18.630826      148           59           89 5.7091054e-14 8.4157816e-15          0.1  0.009000877   0.60099068  0.029898539 
number of iterations: 1416 
    1600    18.817344      148           59           89 5.7847637e-14 8.4155377e-15          0.1 0.0090008886   0.64527693  0.029898519 
number of iterations: 1419 
    1700    19.008986      148           59           89 5.8614246e-14 8.4156973e-15          0.1 0.0090009004   0.69014265    0.0298985 
number of iterations: 1428 
    1800    19.197784      150           61           89 5.9391015e-14 8.4162572e-15          0.1 0.0090009076   0.73559573  0.029898488 
number of iterations: 1424 
    1900     19.38383      150           61           89 6.0178078e-14 8.4172139e-15          0.1 0.0090009196   0.78164415  0.029898468 
number of iterations: 1498 
    2000    19.594308      151           62           89 6.097557e-14 8.4185646e-15          0.1 0.0090009353   0.82829598  0.029898442 
number of iterations: 1529 
    2100    19.784673      153           64           89 6.1783632e-14 8.4203054e-15          0.1 0.0090009562   0.87555943  0.029898407 
number of iterations: 1666 
    2200    19.967579      154           65           89 6.2602402e-14 8.422434e-15          0.1 0.0090009721   0.92344278   0.02989838 
number of iterations: 1385 
    2300    20.213334      155           66           89 6.3432022e-14 8.4249473e-15          0.1 0.0090009826   0.97195442  0.029898363 
number of iterations: 1438 
    2400    20.412688      155           66           89 6.4272637e-14 8.4278425e-15          0.1 0.0090009956    1.0211029  0.029898341 
number of iterations: 1432 
    2500    20.601148      157           68           89 6.5124392e-14 8.4311166e-15          0.1  0.009001004    1.0708968  0.029898327 
number of iterations: 1443 
    2600     20.80012      157           68           89 6.5987434e-14 8.434767e-15          0.1 0.0090010173    1.1213449  0.029898305 
number of iterations: 1543 
    2700     20.99701      158           69           89 6.6861914e-14 8.438791e-15          0.1  0.009001036     1.172456  0.029898274 
number of iterations: 1449 
    2800    21.192117      158           69           89 6.7747982e-14 8.4431859e-15          0.1 0.0090010497     1.224239  0.029898251 
number of iterations: 1431 
    2900     21.39212      161           72           89 6.8645793e-14 8.4479491e-15          0.1 0.0090010561    1.2767031   0.02989824 
number of iterations: 1454 
    3000    21.615042      162           73           89 6.9555501e-14 8.4530775e-15          0.1 0.0090010701    1.3298575  0.029898217 
number of iterations: 1457 
    3100    21.820333      162           73           89 7.0477266e-14 8.4585692e-15          0.1 0.0090010843    1.3837115  0.029898193 
number of iterations: 1460 
    3200    22.002389      162           73           89 7.1411246e-14 8.4644217e-15          0.1 0.0090010986    1.4382743  0.029898169 
number of iterations: 1463 
    3300    22.210858      162           73           89 7.2357603e-14 8.4706327e-15          0.1 0.0090011132    1.4935558  0.029898145 
number of iterations: 1465 
    3400    22.389076      163           74           89 7.3316501e-14 8.4771997e-15          0.1 0.0090011256    1.5495654  0.029898124 
number of iterations: 1489 
    3500    22.584547      165           76           89 7.4288107e-14 8.4841205e-15          0.1 0.0090011396     1.606313  0.029898101 
number of iterations: 1470 
    3600    22.768337      165           76           89 7.5272588e-14 8.4913929e-15          0.1 0.0090011547    1.6638086  0.029898076 
number of iterations: 1420 
    3700    22.934328      166           77           89 7.6270117e-14 8.4990146e-15          0.1 0.0090011654    1.7220622  0.029898058 
number of iterations: 1474 
    3800    23.124284      167           78           89 7.7280865e-14 8.5069836e-15          0.1 0.0090011797     1.781084  0.029898034 
number of iterations: 1477 
    3900    23.302745      167           78           89 7.8305007e-14 8.5152976e-15          0.1 0.0090011954    1.8408843  0.029898008 
number of iterations: 1480 
    4000    23.515616      167           78           89 7.9342721e-14 8.5239545e-15          0.1 0.0090012112    1.9014737  0.029897982 
number of iterations: 1538 
    4100    23.706897      169           79           90 8.0394188e-14 8.5329525e-15          0.1 0.0090012312    1.9628627  0.029897948 
number of iterations: 1486 
    4200    23.906817      169           79           90 8.1459589e-14 8.5422895e-15          0.1 0.0090012475     2.025062  0.029897921 
number of iterations: 1489 
    4300    24.102854      170           79           91 8.2539108e-14 8.5519637e-15          0.1  0.009001264    2.0880825  0.029897894 
number of iterations: 1553 
    4400    24.294936      171           80           91 8.3632934e-14 8.5619732e-15          0.1 0.0090012857    2.1519354  0.029897858 
number of iterations: 1550 
    4500    24.510998      174           83           91 8.4741255e-14 8.5723167e-15          0.1 0.0090012929    2.2166323  0.029897846 
number of iterations: 1497 
    4600     24.70076      175           84           91 8.5864264e-14 8.5829917e-15          0.1 0.0090013077     2.282184  0.029897821 
number of iterations: 1633 
    4700    24.894666      176           85           91 8.7002155e-14 8.5939967e-15          0.1 0.0090013289    2.3486019  0.029897785 
number of iterations: 1502 
    4800    25.074161      177           86           91 8.8155126e-14 8.6053297e-15          0.1 0.0090013465    2.4158977  0.029897756 
number of iterations: 1486 
    4900    25.259537      181           90           91 8.9323376e-14 8.6169881e-15          0.1 0.0090013587    2.4840832  0.029897736 
number of iterations: 1525 
    5000    25.453529      182           91           91 9.0507108e-14 8.6289711e-15          0.1 0.0090013768    2.5531701  0.029897706 
number of iterations: 1511 
    5100    25.643051      182           91           91 9.1706528e-14 8.6412771e-15          0.1  0.009001395    2.6231707  0.029897675 
number of iterations: 1514 
    5200    25.836945      183           92           91 9.2921842e-14 8.6539045e-15          0.1 0.0090014135    2.6940972  0.029897645 
number of iterations: 1602 
    5300     26.01679      184           93           91 9.4153261e-14 8.6668518e-15          0.1 0.0090014362     2.765962  0.029897607 
number of iterations: 1565 
    5400    26.204019      185           94           91   9.5401e-14 8.6801174e-15          0.1 0.0090014591    2.8387776  0.029897569 
number of iterations: 1519 
    5500    26.393599      186           95           91 9.6665274e-14 8.6936994e-15          0.1 0.0090014752    2.9125568  0.029897542 
number of iterations: 1525 
    5600    26.565146      186           95           91 9.7946302e-14 8.7075969e-15          0.1 0.0090014948    2.9873124  0.029897509 
number of iterations: 1528 
    5700    26.751489      186           95           91 9.9244307e-14 8.7218084e-15          0.1 0.0090015146    3.0630576  0.029897476 
number of iterations: 1647 
    5800    26.977837      188           96           92 1.0055951e-13 8.736332e-15          0.1 0.0090015386    3.1398056  0.029897436 
number of iterations: 1533 
    5900    27.158602      190           97           93 1.0189215e-13 8.751167e-15          0.1 0.0090015607    3.2175697  0.029897399 
number of iterations: 1717 
    6000    27.385582      192           99           93 1.0324244e-13 8.766312e-15          0.1 0.0090015863    3.2963637  0.029897357 
number of iterations: 1604 
    6100    27.576982      193          100           93 1.0461063e-13 8.7817654e-15          0.1 0.0090016109    3.3762012  0.029897316 
number of iterations: 1533 
    6200    27.749077      195          102           93 1.0599696e-13 8.7975265e-15          0.1 0.0090016311    3.4570963  0.029897282 
number of iterations: 1548 
    6300    27.911933      197          104           93 1.0740165e-13 8.8135932e-15          0.1 0.0090016503    3.5390631   0.02989725 
number of iterations: 1545 
    6400    28.103454      200          107           93 1.0882496e-13 8.8299648e-15          0.1   0.00900167    3.6221159  0.029897217 
number of iterations: 1548 
    6500    28.303693      201          108           93 1.1026713e-13 8.8466402e-15          0.1 0.0090016921    3.7062692   0.02989718 
number of iterations: 1697 
    6600    28.512909      204          111           93 1.1172841e-13 8.8636189e-15          0.1 0.0090017245    3.7915376  0.029897126 
number of iterations: 1581 
    6700    28.694586      205          112           93 1.1320906e-13 8.8808992e-15          0.1 0.0090017456    3.8779361  0.029897091 
number of iterations: 1556 
    6800    28.882154      207          113           94 1.1470933e-13  8.89848e-15          0.1 0.0090017687    3.9654798  0.029897053 
number of iterations: 1558 
    6900    29.055619      209          115           94 1.1622948e-13 8.9163607e-15          0.1 0.0090017922    4.0541839  0.029897014 
number of iterations: 1642 
    7000    29.254502      209          115           94 1.1776978e-13 8.9345399e-15          0.1  0.009001819    4.1440639  0.029896969 
number of iterations: 1564 
    7100    29.501672      210          116           94 1.1933049e-13 8.9530168e-15          0.1 0.0090018431    4.2351359  0.029896929 
number of iterations: 1528 
    7200    29.674357      213          119           94 1.2091188e-13 8.9717899e-15          0.1 0.0090018616    4.3274158  0.029896898 
number of iterations: 1520 
    7300    29.842088      215          121           94 1.2251423e-13 8.9908587e-15          0.1 0.0090018818    4.4209193  0.029896864 
number of iterations: 1548 
    7400     30.02208      217          122           95 1.2413781e-13 9.0102223e-15          0.1 0.0090019067    4.5156628  0.029896823 
number of iterations: 1568 
    7500    30.226901      221          124           97 1.2578291e-13  9.02988e-15          0.1  0.009001932    4.6116629  0.029896781 
number of iterations: 1577 
    7600    30.445153      223          126           97 1.2744981e-13 9.0498298e-15          0.1 0.0090019576    4.7089363  0.029896738 
number of iterations: 1662 
    7700    30.617108      230          132           98 1.291388e-13 9.0700718e-15          0.1 0.0090019836    4.8075003  0.029896695 
number of iterations: 1645 
    7800    30.816771      231          133           98 1.3085018e-13 9.090605e-15          0.1 0.0090020133    4.9073717  0.029896645 
number of iterations: 1576 
    7900    31.010608      233          135           98 1.3258423e-13 9.1114284e-15          0.1 0.0090020352    5.0085681  0.029896609 
number of iterations: 1539 
    8000    31.232642      234          136           98 1.3434126e-13 9.1325412e-15          0.1 0.0090020562     5.111107  0.029896574 
number of iterations: 1583 
    8100    31.435687      235          136           99 1.3612158e-13 9.1539429e-15          0.1 0.0090020835    5.2150065  0.029896528 
number of iterations: 1586 
    8200    31.618804      235          136           99 1.3792549e-13 9.1756327e-15          0.1 0.0090021111    5.3202846  0.029896482 
number of iterations: 1660 
    8300    31.811711      237          138           99 1.3975331e-13 9.1976104e-15          0.1 0.0090021423    5.4269598   0.02989643 
number of iterations: 1695 
    8400    32.011755      239          140           99 1.4160535e-13 9.219875e-15          0.1 0.0090021774    5.5350508  0.029896372 
number of iterations: 1592 
    8500    32.214605      242          143           99 1.4348193e-13 9.2424262e-15          0.1 0.0090021999    5.6445764  0.029896334 
number of iterations: 1592 
    8600     32.43314      245          146           99 1.4538338e-13 9.265263e-15          0.1 0.0090022241    5.7555559  0.029896294 
number of iterations: 1575 
    8700    32.628808      248          148          100 1.4731003e-13 9.2883842e-15          0.1  0.009002245     5.868008  0.029896259 
number of iterations: 1683 
    8800    32.825285      251          151          100 1.4926221e-13 9.3117895e-15          0.1 0.0090022772    5.9819528  0.029896206 
number of iterations: 1656 
    8900    33.006505      253          153          100 1.5124026e-13 9.3354783e-15          0.1 0.0090023108    6.0974099   0.02989615 
number of iterations: 1723 
    9000    33.192341      256          156          100 1.5324453e-13 9.3594505e-15          0.1 0.0090023532    6.2143994  0.029896079 
number of iterations: 1569 
    9100    33.380089      258          158          100 1.5527536e-13 9.3837049e-15          0.1  0.009002374    6.3329418  0.029896044 
number of iterations: 1622 
    9200    33.565803      258          158          100 1.573331e-13 9.4082414e-15          0.1 0.0090024043    6.4530582  0.029895994 
number of iterations: 1594 
    9300     33.74774      260          160          100 1.5941811e-13 9.4330597e-15          0.1 0.0090024362    6.5747693  0.029895941 
number of iterations: 1620 
    9400    33.947339      261          160          101 1.6153075e-13 9.4581588e-15          0.1 0.0090024685    6.6980967  0.029895887 
number of iterations: 1623 
    9500    34.149824      262          161          101 1.6367138e-13 9.4835385e-15          0.1 0.0090025012    6.8230615  0.029895832 
number of iterations: 1635 
    9600    34.351946      264          163          101 1.6584039e-13 9.5091983e-15          0.1 0.0090025344    6.9496855  0.029895777 
number of iterations: 1636 
    9700    34.531145      265          164          101 1.6803814e-13 9.535138e-15          0.1  0.009002571    7.0779909  0.029895716 
number of iterations: 1632 
    9800    34.742292      267          166          101 1.7026501e-13 9.5613564e-15          0.1 0.0090026051    7.2080005  0.029895659 
number of iterations: 1687 
    9900    34.935708      272          169          103 1.725214e-13 9.5878536e-15          0.1 0.0090026384    7.3397366  0.029895604 
number of iterations: 1666 
   10000    35.131707      275          171          104 1.7480769e-13 9.6146293e-15          0.1 0.0090026735    7.4732221  0.029895545 
number of iterations: 1595 
   10100    35.331057      278          174          104 1.7712427e-13 9.6416832e-15          0.1  0.009002706    7.6084802  0.029895491 
number of iterations: 1711 
   10200    35.544787      281          177          104 1.7947156e-13 9.669015e-15          0.1 0.0090027439    7.7455342  0.029895428 
number of iterations: 1648 
   10300    35.728294      284          180          104 1.8184995e-13 9.6966241e-15          0.1 0.0090027802     7.884408  0.029895368 
number of iterations: 1743 
   10400    35.909883      287          183          104 1.8425986e-13 9.7245104e-15          0.1 0.0090028176    8.0251262  0.029895305 
number of iterations: 1646 
   10500    36.103383      291          185          106 1.8670171e-13 9.7526735e-15          0.1 0.0090028483    8.1677132  0.029895254 
number of iterations: 1653 
   10600    36.320629      295          189          106 1.8917592e-13 9.781113e-15          0.1 0.0090028861     8.312194  0.029895191 
number of iterations: 1759 
   10700    36.535216      299          193          106 1.9168291e-13 9.8098292e-15          0.1 0.0090029296    8.4585933  0.029895119 
number of iterations: 1735 
   10800     36.73865      302          196          106 1.9422313e-13 9.8388214e-15          0.1 0.0090029748    8.6069377  0.029895044 
number of iterations: 1666 
   10900    36.959456      304          198          106 1.9679701e-13 9.8680896e-15          0.1 0.0090030193    8.7572523  0.029894969 
number of iterations: 1806 
   11000    37.180968      308          202          106 1.9940501e-13 9.8976336e-15          0.1 0.0090030657    8.9095636  0.029894892 
number of iterations: 1676 
   11100    37.445622      311          204          107 2.0204756e-13 9.9274532e-15          0.1 0.0090030944     9.063898  0.029894844 
number of iterations: 1667 
   11200    37.636096      314          206          108 2.0472513e-13 9.9575483e-15          0.1  0.009003136    9.2202823  0.029894775 
number of iterations: 1747 
   11300    37.845924      316          208          108 2.0743819e-13 9.9879186e-15          0.1 0.0090031825    9.3787432  0.029894698 
number of iterations: 1693 
   11400    38.051592      317          209          108 2.101872e-13 1.0018564e-14          0.1 0.0090032208     9.539309  0.029894634 
number of iterations: 1828 
   11500      38.2836      319          211          108 2.1297264e-13 1.0049485e-14          0.1 0.0090032658    9.7020076  0.029894559 
number of iterations: 1733 
   11600    38.509541      322          214          108  2.15795e-13 1.008068e-14          0.1 0.0090033069    9.8668675   0.02989449 
number of iterations: 1684 
   11700     38.68845      322          214          108 2.1865475e-13 1.0112151e-14          0.1 0.0090033507    10.033917  0.029894417 
number of iterations: 1718 
   11800    38.882374      326          218          108 2.2155241e-13 1.0143896e-14          0.1  0.009003391    10.203185   0.02989435 
number of iterations: 1694 
   11900    39.072435      329          219          110 2.2448846e-13 1.0175917e-14          0.1 0.0090034421    10.374702  0.029894265 
number of iterations: 1689 
   12000    39.277672      330          220          110 2.2746342e-13 1.0208212e-14          0.1 0.0090034877    10.548497  0.029894189 
number of iterations: 1680 
   12100    39.504995      334          222          112 2.3047781e-13 1.0240781e-14          0.1 0.0090035317    10.724601  0.029894116 
number of iterations: 1697 
   12200    39.708883      335          223          112 2.3353215e-13 1.0273625e-14          0.1 0.0090035785    10.903044  0.029894038 
number of iterations: 1740 
   12300    39.897976      339          227          112 2.3662696e-13 1.0306743e-14          0.1 0.0090036272    11.083858  0.029893957 
number of iterations: 1681 
   12400    40.130667      343          230          113 2.3976279e-13 1.0340137e-14          0.1 0.0090036702    11.267073  0.029893885 
number of iterations: 1744 
   12500    40.324666      348          235          113 2.4294017e-13 1.0373804e-14          0.1 0.0090037161    11.452721  0.029893809 
number of iterations: 1750 
   12600    40.515505      353          239          114 2.4615966e-13 1.0407747e-14          0.1 0.0090037745    11.640836  0.029893712 
number of iterations: 1740 
   12700    40.712094      359          242          117 2.4942181e-13 1.0441964e-14          0.1   0.00900382     11.83145  0.029893636 
number of iterations: 1782 
   12800     40.90463      366          248          118 2.5272719e-13 1.0476455e-14          0.1 0.0090038797    12.024596  0.029893536 
number of iterations: 1682 
   12900     41.09036      371          252          119 2.5607638e-13 1.0511222e-14          0.1 0.0090039285    12.220308  0.029893455 
number of iterations: 1818 
   13000    41.284866      376          257          119 2.5946995e-13 1.0546264e-14          0.1 0.0090039809     12.41862  0.029893368 
number of iterations: 1854 
   13100    41.539684      381          262          119 2.629085e-13 1.0581581e-14          0.1 0.0090040418    12.619566  0.029893266 
number of iterations: 1788 
   13200    41.738475      385          266          119 2.6639261e-13 1.0617174e-14          0.1 0.0090040923    12.823182  0.029893182 
number of iterations: 1878 
   13300    41.928293      391          272          119 2.6992289e-13 1.0653042e-14          0.1 0.0090041562    13.029503  0.029893076 
number of iterations: 1777 
   13400    42.113068      394          275          119 2.7349996e-13 1.0689185e-14          0.1 0.0090042143    13.238565  0.029892979 
number of iterations: 1721 
   13500    42.340626      398          279          119 2.7712443e-13 1.0725604e-14          0.1 0.0090042701    13.450404  0.029892886 
number of iterations: 1742 
   13600    42.551372      400          281          119 2.8079694e-13  1.07623e-14          0.1 0.0090043207    13.665057  0.029892802 
number of iterations: 1844 
   13700    42.748292      406          287          119 2.8451811e-13 1.0799271e-14          0.1  0.009004392    13.882562  0.029892683 
number of iterations: 1783 
   13800    42.985316      409          290          119 2.882886e-13 1.0836519e-14          0.1 0.0090044503    14.102956  0.029892586 
number of iterations: 1794 
   13900    43.187768      415          293          122 2.9210905e-13 1.0874043e-14          0.1 0.0090045168    14.326278  0.029892475 
number of iterations: 1751 
   14000     43.38402      416          294          122 2.9598013e-13 1.0911844e-14          0.1  0.009004569    14.552567  0.029892388 
number of iterations: 1808 
   14100    43.622463      420          298          122 2.9990251e-13 1.0949922e-14          0.1 0.0090046401    14.781862   0.02989227 
number of iterations: 1721 
   14200    43.830284      421          299          122 3.0387688e-13 1.0988277e-14          0.1 0.0090046956    15.014202  0.029892177 
number of iterations: 1725 
   14300    44.020235      426          304          122 3.0790391e-13 1.102691e-14          0.1 0.0090047488     15.24963  0.029892089 
number of iterations: 1822 
   14400    44.253974      432          310          122 3.1198431e-13 1.1065821e-14          0.1   0.00900482    15.488185   0.02989197 
number of iterations: 1851 
   14500    44.463192      435          313          122 3.1611878e-13 1.110501e-14          0.1 0.0090048993    15.729909  0.029891838 
number of iterations: 1798 
   14600     44.67983      438          315          123 3.2030804e-13 1.1144477e-14          0.1 0.0090049661    15.974844  0.029891727 
number of iterations: 1782 
   14700    44.873702      442          319          123 3.2455282e-13 1.1184223e-14          0.1  0.009005028    16.223032  0.029891624 
number of iterations: 1887 
   14800    45.089318      446          323          123 3.2885385e-13 1.1224248e-14          0.1 0.0090051004    16.474518  0.029891503 
number of iterations: 1813 
   14900    45.280072      451          328          123 3.3321188e-13 1.1264552e-14          0.1 0.0090051683    16.729344   0.02989139 
number of iterations: 1748 
   15000    45.473975      456          332          124 3.3762766e-13 1.1305136e-14          0.1 0.0090052269    16.987554  0.029891293 
number of iterations: 1785 
   15100    45.710855      459          335          124 3.4210196e-13 1.1345999e-14          0.1 0.0090053016    17.249195  0.029891168 
number of iterations: 1802 
   15200     45.91122      466          342          124 3.4663556e-13 1.1387144e-14          0.1 0.0090053704    17.514311  0.029891054 
number of iterations: 1798 
   15300    46.110756      468          344          124 3.5122924e-13 1.1428569e-14          0.1 0.0090054394    17.782948  0.029890939 
number of iterations: 1839 
   15400    46.311095      478          352          126 3.5588379e-13 1.1470275e-14          0.1 0.0090055287    18.055154   0.02989079 
number of iterations: 1747 
   15500    46.544644      485          358          127 3.6060002e-13 1.1512263e-14          0.1 0.0090055849    18.330975  0.029890696 
number of iterations: 1858 
   15600      46.7522      489          362          127 3.6537876e-13 1.1554533e-14          0.1 0.0090056514    18.610459  0.029890586 
number of iterations: 1834 
   15700    46.984174      499          372          127 3.7022082e-13 1.1597085e-14          0.1 0.0090057219    18.893655  0.029890468 
number of iterations: 1876 
   15800    47.179788      503          376          127 3.7512705e-13 1.163992e-14          0.1 0.0090058076    19.180612  0.029890326 
number of iterations: 1823 
   15900    47.421433      506          378          128 3.800983e-13 1.1683039e-14          0.1 0.0090058896     19.47138  0.029890189 
number of iterations: 1780 
   16000    47.612462      514          383          131 3.8513543e-13 1.1726441e-14          0.1 0.0090059564     19.76601  0.029890078 
number of iterations: 1814 
   16100    47.839319      517          386          131 3.9023931e-13 1.1770127e-14          0.1 0.0090060359    20.064554  0.029889945 
number of iterations: 1817 
   16200     48.04898      526          395          131 3.9541082e-13 1.1814098e-14          0.1 0.0090061067    20.367063  0.029889827 
number of iterations: 1812 
   16300     48.27087      530          398          132 4.0065088e-13 1.1858354e-14          0.1 0.0090061903     20.67359  0.029889688 
number of iterations: 1849 
   16400    48.476387      533          401          132 4.0596037e-13 1.1902896e-14          0.1  0.009006281    20.984188  0.029889537 
number of iterations: 1806 
   16500     48.65919      537          404          133 4.1134022e-13 1.1947724e-14          0.1 0.0090063534    21.298912  0.029889416 
number of iterations: 1847 
   16600    48.868505      545          412          133 4.1679137e-13 1.1992839e-14          0.1 0.0090064388    21.617815  0.029889274 
number of iterations: 1854 
   16700    49.081447      552          419          133 4.2231476e-13 1.2038241e-14          0.1  0.009006534    21.940954  0.029889116 
number of iterations: 1877 
   16800    49.283403      558          423          135 4.2791135e-13 1.2083931e-14          0.1 0.0090066249    22.268385  0.029888964 
number of iterations: 1836 
   16900    49.480216      560          425          135 4.335821e-13 1.2129909e-14          0.1 0.0090067115    22.600165   0.02988882 
number of iterations: 1873 
   17000    49.688123      567          432          135  4.39328e-13 1.2176176e-14          0.1 0.0090067954    22.936352   0.02988868 
number of iterations: 1861 
   17100    49.908665      574          438          136 4.4515005e-13 1.2222732e-14          0.1   0.00900689    23.277004  0.029888523 
number of iterations: 1869 
   17200    50.179157      580          443          137 4.5104925e-13 1.2269578e-14          0.1 0.0090069867     23.62218  0.029888362 
number of iterations: 1885 
   17300    50.380771      583          446          137 4.5702663e-13 1.2316715e-14          0.1 0.0090070842     23.97194  0.029888199 
number of iterations: 1904 
   17400    50.577831      588          451          137 4.6308322e-13 1.2364143e-14          0.1 0.0090071957    24.326345  0.029888014 
number of iterations: 1816 
   17500    50.780764      593          456          137 4.6922008e-13 1.2411863e-14          0.1 0.0090072753    24.685456  0.029887881 
number of iterations: 1985 
   17600    50.983196      601          464          137 4.7543826e-13 1.2459875e-14          0.1 0.0090073723    25.049336   0.02988772 
number of iterations: 1854 
   17700    51.190843      606          469          137 4.8173884e-13 1.2508181e-14          0.1 0.0090074734    25.418049  0.029887551 
number of iterations: 1872 
   17800    51.388019      611          473          138 4.8812293e-13 1.2556779e-14          0.1 0.0090075584    25.791658   0.02988741 
number of iterations: 1862 
   17900    51.602879      625          487          138 4.9459161e-13 1.2605673e-14          0.1 0.0090076435    26.170229  0.029887268 
number of iterations: 1820 
   18000    51.820237      633          494          139 5.0114602e-13 1.2654861e-14          0.1 0.0090077295    26.553827  0.029887125 
number of iterations: 1932 
   18100    52.046943      637          498          139 5.0778728e-13 1.2704344e-14          0.1 0.0090078405    26.942518   0.02988694 
number of iterations: 1856 
   18200    52.282725      642          503          139 5.1451656e-13 1.2754124e-14          0.1 0.0090079484    27.336371   0.02988676 
number of iterations: 1846 
   18300      52.4959      656          517          139 5.2133502e-13 1.2804201e-14          0.1 0.0090080469    27.735454  0.029886596 
number of iterations: 1886 
   18400    52.709565      667          528          139 5.2824383e-13 1.2854576e-14          0.1 0.0090081618    28.139837  0.029886405 
number of iterations: 1851 
   18500    52.918523      673          534          139 5.352442e-13 1.290525e-14          0.1 0.0090082422     28.54959  0.029886271 
number of iterations: 1867 
   18600    53.137213      678          539          139 5.4233734e-13 1.2956222e-14          0.1 0.0090083469    28.964784  0.029886097 
number of iterations: 1936 
   18700    53.344294      687          548          139 5.4952448e-13 1.3007494e-14          0.1 0.0090084753    29.385492  0.029885883 
number of iterations: 1915 
   18800    53.577508      694          555          139 5.5680686e-13 1.3059068e-14          0.1 0.0090085914    29.811786  0.029885689 
number of iterations: 1931 
   18900    53.792531      697          558          139 5.6418575e-13 1.3110942e-14          0.1 0.0090087091     30.24374  0.029885493 
number of iterations: 1933 
   19000    54.037356      708          567          141 5.7166243e-13 1.3163119e-14          0.1 0.0090088363    30.681429  0.029885282 
number of iterations: 1923 
   19100    54.254773      714          573          141 5.7923819e-13 1.3215598e-14          0.1 0.0090089589     31.12493  0.029885077 
number of iterations: 1895 
   19200    54.476768      722          580          142 5.8691434e-13 1.3268382e-14          0.1 0.0090090756     31.57432  0.029884883 
number of iterations: 1920 
   19300    54.692297      731          588          143 5.9469221e-13 1.3321469e-14          0.1  0.009009192    32.029677  0.029884689 
number of iterations: 1923 
   19400    54.888163      737          594          143 6.0257316e-13 1.3374862e-14          0.1 0.0090093282     32.49108  0.029884462 
number of iterations: 1889 
   19500    55.104839      746          603          143 6.1055855e-13 1.3428561e-14          0.1  0.009009439    32.958608  0.029884278 
number of iterations: 1942 
   19600    55.303737      759          615          144 6.1864976e-13 1.3482568e-14          0.1  0.009009584    33.432344  0.029884037 
number of iterations: 1891 
   19700    55.499271      771          627          144 6.268482e-13 1.3536881e-14          0.1 0.0090096997     33.91237  0.029883844 
number of iterations: 1916 
   19800    55.692097      779          635          144 6.3515529e-13 1.3591503e-14          0.1  0.009009825     34.39877  0.029883635 
number of iterations: 1939 
   19900    55.896887      787          641          146 6.4357246e-13 1.3646435e-14          0.1 0.0090099651    34.891627  0.029883402 
number of iterations: 1941 
   20000    56.131105      796          650          146 6.5210117e-13 1.3701677e-14          0.1 0.0090100937    35.391028  0.029883188 
number of iterations: 1954 
   20100     56.34766      807          661          146 6.6074291e-13 1.375723e-14          0.1 0.0090102148    35.897059  0.029882986 
number of iterations: 1954 
   20200    56.549557      819          673          146 6.6949917e-13 1.3813094e-14          0.1 0.0090103651    36.409808  0.029882736 
number of iterations: 1914 
   20300    56.757213      826          679          147 6.7837147e-13 1.3869272e-14          0.1 0.0090104909    36.929364  0.029882526 
number of iterations: 1923 
   20400    56.980554      829          682          147 6.8736134e-13 1.3925763e-14          0.1 0.0090106224    37.455818  0.029882307 
number of iterations: 1987 
   20500    57.216673      847          698          149 6.9647035e-13 1.3982569e-14          0.1 0.0090107623     37.98926  0.029882074 
number of iterations: 1969 
   20600     57.48957      856          706          150 7.0570007e-13 1.4039691e-14          0.1 0.0090108912    38.529784   0.02988186 
number of iterations: 1942 
   20700    57.715546      860          710          150 7.1505211e-13 1.4097128e-14          0.1 0.0090110348    39.077482   0.02988162 
number of iterations: 1929 
   20800    57.929171      868          718          150 7.2452808e-13 1.4154884e-14          0.1 0.0090111711    39.632452  0.029881393 
number of iterations: 1995 
   20900      58.1613      876          725          151 7.3412962e-13 1.4212957e-14          0.1 0.0090113292    40.194787   0.02988113 
number of iterations: 1938 
   21000    58.392806      879          728          151 7.4385841e-13 1.427135e-14          0.1 0.0090114716    40.764587  0.029880893 
number of iterations: 1990 
   21100    58.612961      884          733          151 7.5371612e-13 1.4330063e-14          0.1 0.0090116373    41.341952  0.029880617 
number of iterations: 1958 
   21200     58.81246      892          741          151 7.6370446e-13 1.4389098e-14          0.1 0.0090117717    41.926981  0.029880393 
number of iterations: 1987 
   21300    59.018034      901          750          151 7.7382518e-13 1.4448454e-14          0.1 0.0090119196    42.519776  0.029880147 
number of iterations: 1995 
   21400     59.25362      915          763          152 7.8408001e-13 1.4508134e-14          0.1 0.0090121013     43.12044  0.029879844 
number of iterations: 1948 
   21500    59.474512      926          774          152 7.9447074e-13 1.4568137e-14          0.1 0.0090122438    43.729078  0.029879607 
number of iterations: 1965 
   21600    59.719985      935          782          153 8.0499917e-13 1.4628466e-14          0.1  0.009012411    44.345795  0.029879329 
number of iterations: 1982 
   21700    59.918558      943          790          153 8.1566712e-13 1.4689121e-14          0.1 0.0090125708    44.970699  0.029879063 
number of iterations: 1978 
   21800    60.201302      958          805          153 8.2647645e-13 1.4750103e-14          0.1 0.0090127334    45.603898  0.029878792 
number of iterations: 1986 
   21900    60.441948      970          816          154 8.3742902e-13 1.4811414e-14          0.1 0.0090129222    46.245503  0.029878477 
number of iterations: 1997 
   22000    60.656023      983          826          157 8.4852673e-13 1.4873054e-14          0.1 0.0090130974    46.895624  0.029878186 
number of iterations: 1967 
   22100    60.884051      989          832          157 8.5863056e-13 1.4935023e-14          0.1  0.009013239    47.553503   0.02987795 
number of iterations: 1975 
   22200    61.115312     1007          850          157 8.7000923e-13 1.4997324e-14          0.1 0.0090134034    48.220115  0.029877676 
number of iterations: 1985 
   22300     61.33542     1021          864          157 8.815387e-13 1.5059958e-14          0.1 0.0090135753    48.895576   0.02987739 
number of iterations: 2064 
   22400    61.551733     1037          880          157 8.9322096e-13 1.5122924e-14          0.1 0.0090137975    49.580002   0.02987702 
number of iterations: 1994 
   22500    61.753803     1053          895          158 9.0505803e-13 1.5186225e-14          0.1 0.0090139475    50.273512   0.02987677 
number of iterations: 1993 
   22600    61.974158     1071          913          158 9.1705197e-13 1.5249862e-14          0.1 0.0090141344    50.976226  0.029876459 
number of iterations: 2002 
   22700    62.179917     1086          927          159 9.2920485e-13 1.5313835e-14          0.1 0.0090143183    51.688268  0.029876152 
number of iterations: 1998 
   22800     62.45391     1098          939          159 9.4151879e-13 1.5378147e-14          0.1 0.0090144905     52.40976  0.029875866 
number of iterations: 2031 
   22900    62.685737     1109          948          161 9.539959e-13 1.5442797e-14          0.1 0.0090146977    53.140827  0.029875521 
number of iterations: 2033 
   23000    62.897907     1124          961          163 9.6663837e-13 1.5507787e-14          0.1  0.009014917    53.881598  0.029875155 
number of iterations: 1988 
   23100    63.125785     1140          976          164 9.7944837e-13 1.5573118e-14          0.1 0.0090150969    54.632199  0.029874856 
number of iterations: 2060 
   23200    63.347857     1152          988          164 9.9242813e-13 1.5638791e-14          0.1 0.0090153249    55.392762  0.029874476 
number of iterations: 1993 
   23300    63.557893     1159          995          164 1.0055799e-12 1.5704808e-14          0.1 0.0090155286    56.163418  0.029874137 
number of iterations: 2015 
   23400    63.756857     1170         1006          164 1.018906e-12 1.577117e-14          0.1 0.0090157415    56.944302  0.029873783 
number of iterations: 2023 
   23500    63.978336     1184         1017          167 1.0324086e-12 1.5837877e-14          0.1 0.0090159238     57.73555  0.029873479 
number of iterations: 2001 
   23600     64.18837     1195         1027          168 1.0460902e-12 1.5904932e-14          0.1 0.0090161342    58.537299  0.029873129 
number of iterations: 2041 
   23700    64.410967     1206         1037          169 1.0599531e-12 1.5972335e-14          0.1 0.0090163629    59.349689  0.029872748 
number of iterations: 2074 
   23800    64.655958     1222         1052          170 1.0739997e-12 1.6040087e-14          0.1 0.0090165893     60.17286  0.029872371 
number of iterations: 2023 
   23900    64.889345     1238         1068          170 1.0882325e-12 1.6108189e-14          0.1 0.0090167843    61.006955  0.029872046 
number of iterations: 2075 
   24000    65.150454     1258         1088          170 1.1026538e-12 1.6176644e-14          0.1 0.0090170277     61.85212  0.029871641 
number of iterations: 2036 
   24100    65.384615     1271         1101          170 1.1172663e-12 1.6245451e-14          0.1  0.009017237      62.7085  0.029871292 
number of iterations: 2063 
   24200    65.619577     1288         1118          170 1.1320724e-12 1.6314613e-14          0.1 0.0090174736    63.576244  0.029870898 
number of iterations: 2013 
   24300    65.824036     1301         1131          170 1.1470748e-12 1.638413e-14          0.1  0.009017692    64.455506  0.029870534 
number of iterations: 2035 
   24400    66.066135     1319         1146          173 1.1622759e-12 1.6454004e-14          0.1 0.0090179358    65.346438  0.029870128 
number of iterations: 2053 
   24500     66.30577     1335         1162          173 1.1776785e-12 1.6524236e-14          0.1 0.0090181928    66.249192    0.0298697 
number of iterations: 2037 
   24600     66.52321     1343         1170          173 1.1932852e-12 1.6594828e-14          0.1 0.0090184187    67.163926  0.029869324 
number of iterations: 2046 
   24700     66.75567     1363         1190          173 1.2090987e-12 1.666578e-14          0.1 0.0090186613    68.090799   0.02986892 
number of iterations: 2082 
   24800    66.996734     1382         1207          175 1.2251218e-12 1.6737094e-14          0.1 0.0090189114    69.029971  0.029868504 
number of iterations: 2031 
   24900    67.234115     1405         1227          178 1.2413572e-12 1.6808771e-14          0.1 0.0090191264    69.981605  0.029868146 
number of iterations: 2076 
   25000      67.4927     1431         1251          180 1.2578078e-12 1.6880813e-14          0.1 0.0090193773    70.945866  0.029867728 
number of iterations: 2084 
   25100    67.720393     1448         1268          180 1.2744764e-12 1.695322e-14          0.1 0.0090196518    71.922924  0.029867271 
number of iterations: 2068 
   25200    67.952534     1463         1282          181 1.2913659e-12 1.7025995e-14          0.1 0.0090199247    72.912947  0.029866817 
number of iterations: 2106 
   25300    68.193275     1478         1297          181 1.3084792e-12 1.7099138e-14          0.1 0.0090202164    73.916105  0.029866331 
number of iterations: 2082 
   25400    68.427226     1494         1312          182 1.3258192e-12 1.7172651e-14          0.1 0.0090205129    74.932576  0.029865837 
number of iterations: 2050 
   25500    68.637331     1506         1324          182 1.3433891e-12 1.7246536e-14          0.1 0.0090207639    75.962535  0.029865419 
number of iterations: 2080 
   25600    68.879068     1526         1344          182 1.3611918e-12 1.7320793e-14          0.1 0.0090210205    77.006159  0.029864992 
number of iterations: 2048 
   25700    69.112672     1544         1360          184 1.3792304e-12 1.7395424e-14          0.1 0.0090212491    78.063631  0.029864611 
number of iterations: 2087 
   25800    69.340829     1560         1374          186 1.3975081e-12 1.747043e-14          0.1 0.0090215394    79.135132  0.029864128 
number of iterations: 2128 
   25900    69.555199     1576         1390          186 1.416028e-12 1.7545814e-14          0.1 0.0090218447    80.220852  0.029863619 
number of iterations: 2113 
   26000    69.788657     1598         1411          187 1.4347933e-12 1.7621575e-14          0.1 0.0090221647    81.320978  0.029863086 
number of iterations: 2105 
   26100    70.035531     1621         1434          187 1.4538072e-12 1.7697716e-14          0.1 0.0090224504      82.4357  0.029862611 
number of iterations: 2092 
   26200    70.342184     1642         1454          188 1.4730732e-12 1.7774238e-14          0.1 0.0090227534    83.565214  0.029862106 
number of iterations: 2120 
   26300    70.579959     1663         1475          188 1.4925945e-12 1.7851143e-14          0.1 0.0090230723    84.709714  0.029861575 
number of iterations: 2131 
   26400    70.813698     1688         1499          189 1.5123744e-12 1.7928432e-14          0.1 0.0090233941    85.869398  0.029861039 
number of iterations: 2122 
   26500    71.057835     1701         1510          191 1.5324165e-12 1.8006106e-14          0.1 0.0090237146    87.044469  0.029860505 
number of iterations: 2150 
   26600    71.289296     1725         1533          192 1.5527242e-12 1.8084167e-14          0.1 0.0090240709     88.23513  0.029859912 
number of iterations: 2110 
   26700     71.51943     1745         1553          192 1.573301e-12 1.8162616e-14          0.1  0.009024371    89.441588  0.029859412 
number of iterations: 2102 
   26800    71.745442     1765         1573          192 1.5941505e-12 1.8241455e-14          0.1 0.0090246838    90.664051  0.029858892 
number of iterations: 2143 
   26900    71.995735     1777         1585          192 1.6152762e-12 1.8320685e-14          0.1 0.0090250383    91.902732  0.029858301 
number of iterations: 2124 
   27000    72.254406     1803         1611          192 1.636682e-12 1.8400308e-14          0.1 0.0090253948    93.157846  0.029857708 
number of iterations: 2142 
   27100    72.488811     1821         1629          192 1.6583713e-12 1.8480326e-14          0.1 0.0090257631    94.429613  0.029857094 
number of iterations: 2123 
   27200    72.721034     1849         1655          194 1.6803482e-12 1.8560739e-14          0.1 0.0090260921    95.718253  0.029856546 
number of iterations: 2101 
   27300     72.94714     1867         1673          194 1.7026162e-12 1.864155e-14          0.1 0.0090264068    97.023988  0.029856022 
number of iterations: 2130 
   27400    73.202765     1888         1690          198 1.7251794e-12 1.8722759e-14          0.1 0.0090267735    98.347047  0.029855412 
number of iterations: 2136 
   27500    73.456341     1905         1707          198 1.7480415e-12 1.8804369e-14          0.1 0.0090271381    99.687659  0.029854805 
number of iterations: 2135 
   27600    73.704572     1930         1732          198 1.7712067e-12 1.8886381e-14          0.1 0.0090275037    101.04605  0.029854196 
number of iterations: 2138 
   27700    73.955613     1964         1763          201 1.7946788e-12 1.8968796e-14          0.1  0.009027871    102.42247  0.029853584 
number of iterations: 2112 
   27800    74.177238     1987         1785          202 1.8184619e-12 1.9051617e-14          0.1 0.0090282289    103.81715  0.029852988 
number of iterations: 2126 
   27900     74.40822     2007         1802          205 1.8425602e-12 1.9134844e-14          0.1 0.0090285877    105.23032  0.029852391 
number of iterations: 2163 
   28000    74.634539     2032         1826          206 1.8669779e-12 1.921848e-14          0.1     0.009029    106.66225  0.029851704 
number of iterations: 2140 
   28100    74.875822     2053         1847          206 1.8917192e-12 1.9302526e-14          0.1 0.0090293552    108.11317  0.029851113 
number of iterations: 2134 
   28200    75.149907     2083         1875          208 1.9167883e-12 1.9386983e-14          0.1 0.0090297396    109.58334  0.029850472 
number of iterations: 2163 
   28300    75.380009     2112         1903          209 1.9421896e-12 1.9471853e-14          0.1 0.0090301464    111.07302  0.029849795 
number of iterations: 2160 
   28400    75.624823     2141         1930          211 1.9679276e-12 1.9557139e-14          0.1 0.0090305718    112.58245  0.029849087 
number of iterations: 2188 
   28500    75.867145     2166         1953          213 1.9940066e-12 1.9642841e-14          0.1 0.0090309907    114.11191  0.029848389 
number of iterations: 2171 
   28600    76.126844     2195         1981          214 2.0204312e-12 1.972896e-14          0.1 0.0090314141    115.66165  0.029847684 
number of iterations: 2181 
   28700    76.361768     2225         2011          214 2.047206e-12  1.98155e-14          0.1 0.0090318446    117.23196  0.029846967 
number of iterations: 2163 
   28800    76.606738     2250         2033          217 2.0743357e-12 1.9902462e-14          0.1 0.0090322588    118.82309  0.029846278 
number of iterations: 2176 
   28900    76.855044     2286         2068          218 2.1018248e-12 1.9989846e-14          0.1 0.0090326581    120.43532  0.029845613 
number of iterations: 2162 
   29000    77.132082     2316         2098          218 2.1296782e-12 2.0077655e-14          0.1 0.0090330908    122.06894  0.029844892 
number of iterations: 2196 
   29100    77.413298     2349         2131          218 2.1566999e-12 2.0165891e-14          0.1 0.0090335482    123.72332   0.02984413 
number of iterations: 2179 
   29200    77.744581     2385         2167          218 2.1852805e-12 2.0254555e-14          0.1 0.0090339757    125.39964  0.029843419 
number of iterations: 2223 
   29300    78.001465     2412         2194          218 2.2142399e-12 2.0343649e-14          0.1 0.0090344893    127.09819  0.029842563 
number of iterations: 2181 
   29400    78.259415     2440         2221          219 2.243583e-12 2.0433175e-14          0.1 0.0090349421    128.81927  0.029841809 
number of iterations: 2178 
   29500    78.500625     2465         2245          220 2.2720947e-12 2.0523133e-14          0.1 0.0090353755    130.56225  0.029841088 
number of iterations: 2201 
   29600    78.746197     2500         2279          221 2.3022045e-12 2.0613528e-14          0.1 0.0090358792    132.32835  0.029840249 
number of iterations: 2196 
   29700    79.018892     2533         2312          221 2.3327133e-12 2.0704359e-14          0.1  0.009036375    134.11787  0.029839423 
number of iterations: 2205 
   29800    79.265041     2556         2334          222 2.3636264e-12 2.0795629e-14          0.1 0.0090368713    135.93112  0.029838597 
number of iterations: 2171 
   29900    79.535198     2593         2369          224 2.3921936e-12 2.088734e-14          0.1 0.0090373079    137.76632   0.02983787 
number of iterations: 2202 
   30000     79.77398     2626         2402          224 2.4227569e-12 2.0979493e-14          0.1 0.0090378028    139.62499  0.029837046 
number of iterations: 2221 
   30100    80.022641     2651         2427          224 2.4548632e-12 2.107209e-14          0.1 0.0090383145    141.50831  0.029836194 
number of iterations: 2198 
   30200    80.295373     2681         2453          228 2.4863555e-12 2.1165133e-14          0.1 0.0090388091    143.41581   0.02983537 
number of iterations: 2238 
   30300    80.553802     2718         2490          228 2.5193046e-12 2.1258623e-14          0.1 0.0090393617    145.34862   0.02983445 
number of iterations: 2235 
   30400    80.791064     2748         2517          231 2.5526904e-12 2.1352564e-14          0.1 0.0090398783    147.30707   0.02983359 
number of iterations: 2217 
   30500    81.057862     2781         2550          231 2.5865186e-12 2.1446956e-14          0.1 0.0090404339     149.2915  0.029832665 
number of iterations: 2227 
   30600    81.302342     2820         2588          232 2.6207951e-12 2.1541801e-14          0.1 0.0090410319    151.30225  0.029831669 
number of iterations: 2223 
   30700    81.581439     2853         2619          234 2.6555258e-12 2.1637102e-14          0.1 0.0090415415    153.33967   0.02983082 
number of iterations: 2218 
   30800    81.854063     2890         2655          235 2.6907167e-12 2.1732859e-14          0.1 0.0090421006    155.40412  0.029829889 
number of iterations: 2241 
   30900    82.089767     2940         2705          235 2.7249992e-12 2.1829075e-14          0.1 0.0090426858     157.4949  0.029828915 
number of iterations: 2240 
   31000    82.334697     2979         2742          237 2.7611108e-12 2.1925753e-14          0.1 0.0090432969     159.6134  0.029827897 
number of iterations: 2241 
   31100    82.628603     3025         2787          238 2.7977009e-12 2.2022893e-14          0.1 0.0090438801       161.76  0.029826926 
number of iterations: 2252 
   31200    82.889957     3052         2813          239 2.8347759e-12 2.2120497e-14          0.1 0.0090444982    163.93507  0.029825897 
number of iterations: 2223 
   31300    83.147989     3083         2843          240 2.8723423e-12 2.2218569e-14          0.1 0.0090450507    166.13899  0.029824977 
number of iterations: 2240 
   31400    83.416841     3126         2884          242 2.9091036e-12 2.2317108e-14          0.1 0.0090456683    168.37115  0.029823948 
number of iterations: 2238 
   31500    83.690434     3154         2910          244 2.9476549e-12 2.2416119e-14          0.1 0.0090462839     170.6329  0.029822923 
number of iterations: 2279 
   31600      83.9382     3195         2949          246 2.986717e-12 2.2515602e-14          0.1 0.0090469567    172.92465  0.029821803 
number of iterations: 2211 
   31700    84.178629     3234         2987          247 3.0262968e-12 2.2615559e-14          0.1 0.0090475164    175.24679  0.029820871 
number of iterations: 2227 
   31800    84.444421     3269         3022          247 3.0657159e-12 2.2715993e-14          0.1 0.0090481172    177.59921   0.02981987 
number of iterations: 2252 
   31900    84.698575     3307         3058          249 3.1063426e-12 2.2816905e-14          0.1 0.0090487601    179.98283    0.0298188 
number of iterations: 2256 
   32000    84.950067     3344         3093          251 3.1475076e-12 2.2918298e-14          0.1 0.0090493945    182.39806  0.029817744 
number of iterations: 2281 
   32100    85.229751     3380         3128          252 3.1892182e-12 2.3020174e-14          0.1 0.0090500306    184.84532  0.029816684 
number of iterations: 2290 
   32200    85.487396     3425         3171          254 3.2314815e-12 2.3122534e-14          0.1 0.0090507571    187.32505  0.029815475 
number of iterations: 2267 
   32300     85.77893     3470         3213          257 3.2743048e-12 2.322538e-14          0.1 0.0090514367    189.83766  0.029814343 
number of iterations: 2292 
   32400    86.043581     3522         3263          259 3.3136849e-12 2.3328715e-14          0.1 0.0090521071    192.38052  0.029813227 
number of iterations: 2306 
   32500    86.281203     3561         3302          259 3.3575976e-12 2.3432541e-14          0.1 0.0090528979    194.95713   0.02981191 
number of iterations: 2289 
   32600    86.545772     3592         3333          259 3.4009656e-12 2.353686e-14          0.1 0.0090536272    197.56704  0.029810695 
number of iterations: 2285 
   32700      86.8033     3636         3377          259 3.4460349e-12 2.3641674e-14          0.1 0.0090543428    200.21156  0.029809504 
number of iterations: 2275 
   32800    87.122744     3679         3420          259 3.4895672e-12 2.3746985e-14          0.1  0.009055028    202.88954  0.029808363 
number of iterations: 2290 
   32900    87.392389     3728         3468          260 3.5358106e-12 2.3852795e-14          0.1 0.0090557811    205.60305  0.029807109 
number of iterations: 2292 
   33000    87.645576     3779         3518          261 3.5826669e-12 2.3959106e-14          0.1 0.0090565393    208.35254  0.029805846 
number of iterations: 2292 
   33100    87.942298     3829         3566          263 3.6253566e-12 2.406592e-14          0.1 0.0090571598    211.13483  0.029804813 
number of iterations: 2319 
   33200    88.223787     3879         3616          263 3.6733994e-12 2.417324e-14          0.1  0.009057968    213.95402  0.029803467 
number of iterations: 2299 
   33300    88.479206     3922         3658          264 3.7206711e-12 2.4281067e-14          0.1 0.0090587242    216.80952  0.029802208 
number of iterations: 2319 
   33400    88.763065     3966         3701          265 3.769977e-12 2.4389404e-14          0.1 0.0090595173    219.70288  0.029800887 
number of iterations: 2288 
   33500    89.043028     4023         3758          265 3.8189071e-12 2.4498253e-14          0.1  0.009060265    222.63383  0.029799642 
number of iterations: 2307 
   33600    89.319283     4074         3808          266 3.8695148e-12 2.4607617e-14          0.1 0.0090611104    225.60366  0.029798235 
number of iterations: 2315 
   33700    89.578745     4132         3866          266 3.9194617e-12 2.4717497e-14          0.1 0.0090619092    228.61185  0.029796905 
number of iterations: 2300 
   33800    89.861531     4183         3916          267 3.9704204e-12 2.4827896e-14          0.1 0.0090627244    231.65918  0.029795547 
number of iterations: 2335 
   33900    90.193639     4225         3957          268 4.0221287e-12 2.4938815e-14          0.1 0.0090636199    234.74624  0.029794056 
number of iterations: 2292 
   34000    90.463714     4278         4009          269 4.0741474e-12 2.5050258e-14          0.1 0.0090643821    237.87326  0.029792787 
number of iterations: 2329 
   34100    90.749492     4335         4064          271 4.1281374e-12 2.5162226e-14          0.1 0.0090652681    241.04177  0.029791311 
number of iterations: 2308 
   34200     91.00814     4381         4109          272 4.1818736e-12 2.5274722e-14          0.1 0.0090660555    244.25154      0.02979 
number of iterations: 2324 
   34300    91.289701     4437         4163          274 4.2362823e-12 2.5387748e-14          0.1 0.0090669666    247.50312  0.029788483 
number of iterations: 2341 
   34400    91.573729     4485         4211          274 4.2913023e-12 2.5501306e-14          0.1 0.0090678929    250.79698  0.029786941 
number of iterations: 2315 
   34500    91.858596     4552         4277          275  4.34817e-12 2.5615397e-14          0.1 0.0090687431    254.13451  0.029785525 
number of iterations: 2329 
   34600     92.12313     4617         4340          277 4.4026899e-12 2.5730026e-14          0.1 0.0090696798    257.51396  0.029783965 
number of iterations: 2319 
   34700    92.394821     4672         4395          277 4.4565111e-12 2.5845193e-14          0.1 0.0090704699    260.93479   0.02978265 
number of iterations: 2339 
   34800    92.655996     4718         4441          277 4.5134985e-12 2.5960902e-14          0.1 0.0090713208    264.39939  0.029781233 
number of iterations: 2352 
   34900    92.924338     4786         4509          277 4.5733107e-12 2.6077155e-14          0.1 0.0090723276    267.90995  0.029779556 
number of iterations: 2357 
   35000    93.203698     4839         4561          278 4.6339154e-12 2.6193954e-14          0.1 0.0090733455    271.46707  0.029777861 
Loop time of 93.2038 on 32 procs for 35000 steps with 4839 atoms

Performance: 324450119.272 tau/day, 375.521 timesteps/s
92.1% CPU use with 32 MPI tasks x no OpenMP threads

MPI task timing breakdown:
Section |  min time  |  avg time  |  max time  |%varavg| %total
---------------------------------------------------------------
Pair    | 0.0091455  | 0.0722     | 0.19574    |  16.6 |  0.08
Neigh   | 0.0043264  | 0.021923   | 0.053777   |   8.2 |  0.02
Comm    | 0.0745     | 0.16222    | 0.23766    |  12.8 |  0.17
Output  | 23.156     | 23.157     | 23.165     |   0.0 | 24.85
Modify  | 69.319     | 69.363     | 69.421     |   0.3 | 74.42
Other   |            | 0.4278     |            |       |  0.46

Nlocal:    151.219 ave 307 max 12 min
Histogram: 2 2 4 7 6 3 0 3 2 3
Nghost:    87.4688 ave 208 max 24 min
Histogram: 6 5 4 5 4 4 1 2 0 1
Neighs:    547.156 ave 1303 max 20 min
Histogram: 2 3 6 9 2 2 4 1 1 2

Total # of neighbors = 17509
Ave neighs/atom = 3.61831
Neighbor list builds = 718
Dangerous builds = 0
Total wall time: 0:01:33
