LAMMPS (20 Nov 2019)
# NUFEB simulation

atom_style	bio
atom_modify	map array sort 1000 5.0e-7
boundary	ff ff ff
newton		off
processors  * * *

comm_modify	vel yes
#variable reps loop 1
read_data_bio atom_50_50_100_1_2021-08-31.in
  orthogonal box = (0 0 0) to (0.0001 0.0001 1e-05)
  8 by 4 by 1 MPI processor grid
  reading atoms ...
  100 atoms
  4 nutrients
#shell mkdir Run_50_50_100_1
#shell cd Run_50_50_100_1
##############Define initial particle distribution##############

lattice sc 1e-6 origin 0 0 0
Lattice spacing in x,y,z = 100 100 100
region reg block 0 1000 0 1000 0 100

group CYANO type 1
50 atoms in group CYANO
group ECW type 2
50 atoms in group ECW

neighbor	5e-7 bin
neigh_modify	delay 0 one 5000

##############Define DEM Variables&Commands##############

pair_style  gran/hooke/history 1.e-4 NULL 1.e-5 NULL 0.0 1
pair_coeff  * *

timestep 10

fix 1 all nve/limit 1e-8
fix fv all viscous 1e-5

fix zw all wall/gran hooke/history 2000 NULL 500.0 NULL 1.5 0 zplane  0.0  1e-05

variable kanc equal 50

variable ke equal 5e+10


##############Define IBm Variables##############

#variables used in fix eps_extract
variable EPSdens equal 30
variable EPSratio equal 1.3

#variables used in fix division
variable divDia1 equal 1.96e-6
variable divDia2 equal 1.04e-6

#variables used in fix kinetics
variable diffT equal 1e-4
variable tol equal 1e-11
variable etaHET equal 0.6
variable layer equal -1

#variables used in fix death
#variable deadDia equal 9e-7


##############Define IBm Commands##############

fix k1 all kinetics 100 50 50 5 v_diffT v_layer niter 1000000
fix kgm all kinetics/growth/monod sucexp 1.0
fix g1 all kinetics/diffusion v_tol
fix d1 CYANO divide 100 v_EPSdens v_divDia1 386800
fix d2 ECW divide 100 v_EPSdens v_divDia2 477585
#fix d2 all death 1 v_deadDia demflag 0


##############Define IBm Computes##############

compute myNtypes all ntypes
compute myMass all biomass
compute myCon all avg_con

##############Simulation exit condition##############
variable co2 equal c_myCon[4]
fix 10 all halt 100 v_co2 <= 1e-19

variable light equal c_myCon[1]
fix 11 all halt 100 v_light <= 1e-19

##############Simulation Output##############
dump    id all custom 100 output.lammmps id type diameter x y z
dump    du1 all vtk 100 atom_*.vtu id type diameter x y z
dump    du2 all grid 100 grid_%_*.vti con
dump    du3 all bio 100 ntypes biomass avg_con
dump    traj all bio/hdf5 100 trajectory.h5 id type radius x y z con
thermo_style    custom step cpu atoms c_myNtypes[*] c_myMass[*] c_myCon[*]
thermo		100
thermo_modify	lost ignore


run 35000
Model is defined as a closed system. 
Neighbor list info ...
  update every 1 steps, delay 0 steps, check yes
  max neighbors/atom: 5000, page size: 100000
  master list distance cutoff = 2.44e-06
  ghost atom cutoff = 2.44e-06
  binsize = 1.22e-06, bins = 82 82 9
  1 neighbor lists, perpetual/occasional/extra = 1 0 0
  (1) pair gran/hooke/history, perpetual
      attributes: half, newton off, size, history
      pair build: half/size/bin/newtoff
      stencil: half/bin/3d/newtoff
      bin: standard
Per MPI rank memory allocation (min/avg/max) = 5.79 | 10.86 | 12.11 Mbytes
Step CPU Atoms c_myNtypes[1] c_myNtypes[2] c_myMass[1] c_myMass[2] c_myCon[1] c_myCon[2] c_myCon[3] c_myCon[4] 
       0            0      100           50           50 4.4297183e-14 9.3808052e-15          0.1        0.009     3.42e-20       0.0299 
number of iterations: 324060 
     100    15.744655      137           50           87 4.4884218e-14 9.3732804e-15          0.1  0.009000765  0.035590155  0.029898726 
number of iterations: 4870 
     200    16.133074      153           50          103 4.5479034e-14 9.3662227e-15          0.1 0.0090007751  0.070532433  0.029898709 
number of iterations: 3281 
     300    16.426354      153           50          103 4.6081732e-14 9.3596394e-15          0.1 0.0090007853   0.10592431  0.029898692 
number of iterations: 2634 
     400    16.716729      154           51          103 4.6692417e-14 9.3535299e-15          0.1 0.0090007957    0.1417741  0.029898674 
number of iterations: 2236 
     500    16.948984      154           51          103 4.7311195e-14 9.3478915e-15          0.1 0.0090008063   0.17808848  0.029898657 
number of iterations: 1962 
     600    17.183411      156           53          103 4.7938173e-14 9.342721e-15          0.1 0.0090008113   0.21487399  0.029898648 
number of iterations: 1758 
     700    17.394319      157           54          103 4.857346e-14 9.3380148e-15          0.1  0.009000822   0.25213711  0.029898631 
number of iterations: 1600 
     800    17.636516      157           54          103 4.9217166e-14 9.3337692e-15          0.1 0.0090008329   0.28988443  0.029898612 
number of iterations: 1473 
     900    17.853828      157           54          103 4.9869403e-14 9.3299807e-15          0.1 0.0090008439   0.32812258  0.029898594 
number of iterations: 1391 
    1000    18.062641      157           54          103 5.0530283e-14 9.3266456e-15          0.1 0.0090008551   0.36685829  0.029898575 
number of iterations: 1393 
    1100    18.263132      157           54          103 5.1199921e-14 9.3237605e-15          0.1 0.0090008664   0.40609836  0.029898557 
number of iterations: 1422 
    1200    18.469486      157           54          103 5.1878433e-14 9.3213217e-15          0.1  0.009000873   0.44584968  0.029898545 
number of iterations: 1398 
    1300    18.667895      157           54          103 5.2565937e-14 9.3193258e-15          0.1 0.0090008846    0.4861192  0.029898526 
number of iterations: 1401 
    1400    18.871737      157           54          103 5.3262553e-14 9.3177693e-15          0.1 0.0090008963     0.526914  0.029898507 
number of iterations: 1489 
    1500    19.073784      158           55          103 5.3968399e-14 9.3166491e-15          0.1 0.0090009098   0.56824124  0.029898484 
number of iterations: 1407 
    1600    19.255638      158           55          103  5.46836e-14 9.3159618e-15          0.1 0.0090009218   0.61010816  0.029898464 
number of iterations: 1626 
    1700     19.46565      161           58          103 5.5408279e-14 9.3157042e-15          0.1 0.0090009473   0.65252212  0.029898422 
number of iterations: 1530 
    1800    19.683811      162           59          103 5.6142561e-14 9.3158731e-15          0.1 0.0090009632   0.69549053  0.029898395 
number of iterations: 1420 
    1900    19.882351      162           59          103 5.6886574e-14 9.3164654e-15          0.1 0.0090009759   0.73902095  0.029898374 
number of iterations: 1621 
    2000    20.097232      163           60          103 5.7640447e-14 9.3174782e-15          0.1 0.0090009939     0.783121  0.029898344 
number of iterations: 1425 
    2100    20.298727      163           60          103 5.8404311e-14 9.3189085e-15          0.1  0.009001007   0.82779843  0.029898322 
number of iterations: 1428 
    2200    20.503395      163           60          103 5.9178297e-14 9.3207535e-15          0.1 0.0090010203   0.87306106    0.0298983 
number of iterations: 1431 
    2300    20.702972      163           60          103 5.9962541e-14 9.3230102e-15          0.1 0.0090010339   0.91891684  0.029898277 
number of iterations: 1434 
    2400    20.922769      163           60          103 6.0757177e-14 9.3256759e-15          0.1 0.0090010475    0.9653738  0.029898255 
number of iterations: 1393 
    2500       21.106      166           63          103 6.1562344e-14 9.3287473e-15          0.1 0.0090010553      1.01244  0.029898242 
number of iterations: 1485 
    2600    21.288877      167           64          103 6.2378181e-14 9.3322225e-15          0.1 0.0090010692    1.0601238  0.029898218 
number of iterations: 1515 
    2700    21.481254      169           66          103 6.320483e-14 9.3360994e-15          0.1 0.0090010844    1.1084335  0.029898193 
number of iterations: 1444 
    2800    21.647547      169           66          103 6.4042434e-14 9.3403748e-15          0.1 0.0090010988    1.1573777  0.029898169 
number of iterations: 1447 
    2900    21.841403      169           66          103 6.4891138e-14 9.3450462e-15          0.1 0.0090011134    1.2069648  0.029898145 
number of iterations: 1421 
    3000    22.039919      170           67          103 6.5751089e-14 9.3501104e-15          0.1 0.0090011236    1.2572037  0.029898128 
number of iterations: 1520 
    3100    22.231323      172           69          103 6.6622437e-14 9.3555664e-15          0.1 0.0090011408     1.308103  0.029898099 
number of iterations: 1455 
    3200    22.426152      172           69          103 6.7505331e-14 9.361411e-15          0.1 0.0090011559    1.3596718  0.029898074 
number of iterations: 1457 
    3300    22.620091      172           69          103 6.8399926e-14 9.367642e-15          0.1 0.0090011712     1.411919  0.029898048 
number of iterations: 1460 
    3400    22.798158      172           69          103 6.9306376e-14 9.374257e-15          0.1 0.0090011868    1.4648538  0.029898022 
number of iterations: 1463 
    3500    22.999781      172           69          103 7.0224839e-14 9.3812539e-15          0.1 0.0090012025    1.5184855  0.029897996 
number of iterations: 1438 
    3600    23.182297      172           69          103 7.1155474e-14 9.3886304e-15          0.1 0.0090012132    1.5728234  0.029897978 
number of iterations: 1440 
    3700    23.360527      174           71          103 7.2098441e-14 9.3963839e-15          0.1 0.0090012231    1.6278772  0.029897962 
number of iterations: 1556 
    3800    23.551448      175           72          103 7.3053905e-14 9.4045129e-15          0.1 0.0090012429    1.6836564  0.029897929 
number of iterations: 1444 
    3900    23.734062      177           74          103 7.402203e-14 9.4130157e-15          0.1 0.0090012533    1.7401708  0.029897912 
number of iterations: 1475 
    4000    23.935774      177           74          103 7.5002986e-14 9.4218898e-15          0.1 0.0090012699    1.7974303  0.029897884 
number of iterations: 1598 
    4100    24.197727      178           75          103 7.5996941e-14 9.4311333e-15          0.1 0.0090012931     1.855445  0.029897845 
number of iterations: 1468 
    4200    24.387062      179           76          103 7.7004069e-14 9.4407441e-15          0.1 0.0090013102    1.9142249  0.029897817 
number of iterations: 1556 
    4300    24.593895      180           77          103 7.8024543e-14 9.4507208e-15          0.1 0.0090013308    1.9737805  0.029897782 
number of iterations: 1700 
    4400    24.787142      181           78          103 7.905854e-14 9.4610611e-15          0.1 0.0090013534     2.034122  0.029897745 
number of iterations: 1491 
    4500    24.969244      181           78          103 8.0106241e-14 9.4717634e-15          0.1 0.0090013714    2.0952601  0.029897715 
number of iterations: 1571 
    4600    25.158842      183           80          103 8.1167825e-14 9.4828255e-15          0.1 0.0090013927    2.1572056  0.029897679 
number of iterations: 1498 
    4700    25.347344      184           81          103 8.2243478e-14 9.494246e-15          0.1 0.0090014112     2.219969  0.029897648 
number of iterations: 1437 
    4800    25.517684      186           83          103 8.3333386e-14 9.5060231e-15          0.1 0.0090014215    2.2835615  0.029897631 
number of iterations: 1547 
    4900     25.69836      187           84          103 8.4437737e-14 9.5181551e-15          0.1  0.009001442    2.3479942  0.029897597 
number of iterations: 1505 
    5000    25.908416      187           84          103 8.5556724e-14 9.5306405e-15          0.1 0.0090014611    2.4132786  0.029897565 
number of iterations: 1538 
    5100    26.091404      188           85          103 8.6690539e-14 9.5434776e-15          0.1 0.0090014822    2.4794258   0.02989753 
number of iterations: 1510 
    5200     26.28065      188           85          103 8.783938e-14 9.5566649e-15          0.1 0.0090015018    2.5464477  0.029897497 
number of iterations: 1513 
    5300    26.460278      188           85          103 8.9003446e-14 9.5702009e-15          0.1 0.0090015217    2.6143558  0.029897464 
number of iterations: 1514 
    5400    26.662433      190           86          104 9.0182938e-14 9.5840835e-15          0.1 0.0090015407     2.683162  0.029897433 
number of iterations: 1518 
    5500    26.940494      190           86          104 9.1378061e-14 9.5983116e-15          0.1 0.0090015611    2.7528785  0.029897399 
number of iterations: 1488 
    5600    27.114939      193           89          104 9.2589022e-14 9.6128845e-15          0.1 0.0090015724    2.8235174   0.02989738 
number of iterations: 1447 
    5700     27.29072      196           92          104 9.3816031e-14 9.6277998e-15          0.1 0.0090015847     2.895091  0.029897359 
number of iterations: 1524 
    5800    27.471976      199           95          104  9.50593e-14 9.6430566e-15          0.1 0.0090016058    2.9676119  0.029897324 
number of iterations: 1525 
    5900    27.639163      201           97          104 9.6319046e-14 9.6586538e-15          0.1  0.009001627    3.0410928  0.029897289 
number of iterations: 1530 
    6000    27.819567      203           97          106 9.7595486e-14 9.6745899e-15          0.1 0.0090016486    3.1155465  0.029897253 
number of iterations: 1664 
    6100     28.03958      204           98          106 9.8888841e-14 9.6908633e-15          0.1 0.0090016752     3.190986  0.029897208 
number of iterations: 1488 
    6200    28.218675      207           99          108 1.0019934e-13 9.7074725e-15          0.1 0.0090016938    3.2674246  0.029897178 
number of iterations: 1537 
    6300     28.39912      207           99          108 1.015272e-13 9.7244167e-15          0.1 0.0090017162    3.3448755   0.02989714 
number of iterations: 1548 
    6400    28.579992      210          102          108 1.0287266e-13 9.741695e-15          0.1  0.009001739    3.4233528  0.029897102 
number of iterations: 1543 
    6500    28.764213      210          102          108 1.0423595e-13 9.7593059e-15          0.1  0.009001762    3.5028697  0.029897064 
number of iterations: 1523 
    6600    28.935067      214          106          108 1.056173e-13 9.7772482e-15          0.1 0.0090017788    3.5834402  0.029897036 
number of iterations: 1591 
    6700    29.110406      218          110          108 1.0701697e-13 9.7955215e-15          0.1  0.009001804    3.6650784  0.029896994 
number of iterations: 1530 
    6800    29.292256      219          111          108 1.0843518e-13 9.8141241e-15          0.1 0.0090018256    3.7477984  0.029896958 
number of iterations: 1549 
    6900    29.471913      220          112          108 1.0987218e-13 9.8330552e-15          0.1 0.0090018498    3.8316149  0.029896918 
number of iterations: 1536 
    7000    29.660678      222          114          108 1.1132823e-13 9.8523135e-15          0.1   0.00900187    3.9165426  0.029896884 
number of iterations: 1559 
    7100    29.854419      222          114          108 1.1280357e-13 9.871898e-15          0.1 0.0090018948    4.0025961  0.029896843 
number of iterations: 1691 
    7200    30.044963      224          116          108 1.1429847e-13 9.8918078e-15          0.1  0.009001931    4.0897906  0.029896782 
number of iterations: 1565 
    7300    30.223838      227          119          108 1.1581318e-13 9.9120419e-15          0.1 0.0090019559    4.1781413  0.029896741 
number of iterations: 1650 
    7400    30.414545      228          119          109 1.1734795e-13 9.9325995e-15          0.1 0.0090019876    4.2676637  0.029896688 
number of iterations: 1583 
    7500    30.611443      230          121          109 1.1890307e-13 9.9534795e-15          0.1  0.009002014    4.3583734  0.029896644 
number of iterations: 1702 
    7600    30.829734      233          123          110 1.204788e-13 9.9746801e-15          0.1 0.0090020469    4.4502865  0.029896589 
number of iterations: 1572 
    7700     31.00751      235          124          111 1.2207541e-13 9.9962014e-15          0.1  0.009002074    4.5434188  0.029896544 
number of iterations: 1581 
    7800    31.239967      235          124          111 1.2369318e-13 1.0018043e-14          0.1 0.0090021015    4.6377866  0.029896498 
number of iterations: 1605 
    7900    31.420085      237          126          111 1.2533238e-13 1.0040203e-14          0.1 0.0090021305    4.7334063   0.02989645 
number of iterations: 1649 
    8000    31.622406      238          127          111 1.2699331e-13 1.0062682e-14          0.1 0.0090021569    4.8302947  0.029896406 
number of iterations: 1636 
    8100    31.812905      239          128          111 1.2867625e-13 1.0085477e-14          0.1 0.0090021867    4.9284685  0.029896356 
number of iterations: 1636 
    8200    32.164892      239          128          111 1.303815e-13 1.010859e-14          0.1 0.0090022186     5.027945  0.029896303 
number of iterations: 1584 
    8300    32.362705      242          131          111 1.3210934e-13 1.0132018e-14          0.1 0.0090022432    5.1287418  0.029896262 
number of iterations: 1575 
    8400    32.536032      243          132          111 1.3386008e-13 1.0155761e-14          0.1 0.0090022663    5.2308765  0.029896224 
number of iterations: 1631 
    8500    32.712212      244          132          112 1.3563402e-13 1.0179819e-14          0.1 0.0090022981    5.3343668  0.029896171 
number of iterations: 1599 
    8600    32.892992      248          136          112 1.3743147e-13 1.0204191e-14          0.1 0.0090023236    5.4392307  0.029896128 
number of iterations: 1581 
    8700    33.075927      250          138          112 1.3925274e-13 1.0228877e-14          0.1 0.0090023508    5.5454865  0.029896083 
number of iterations: 1591 
    8800    33.261196      254          141          113 1.4109814e-13 1.0253876e-14          0.1 0.0090023761     5.653153  0.029896041 
number of iterations: 1677 
    8900    33.455715      256          143          113  1.42968e-13 1.0279186e-14          0.1 0.0090024116     5.762249  0.029895982 
number of iterations: 1604 
    9000     33.64622      258          145          113 1.4486264e-13 1.0304809e-14          0.1 0.0090024384    5.8727934  0.029895937 
number of iterations: 1611 
    9100    33.856807      259          146          113 1.4678239e-13 1.0330742e-14          0.1 0.0090024695    5.9848054  0.029895885 
number of iterations: 1622 
    9200    34.160994      260          147          113 1.4872758e-13 1.0356987e-14          0.1 0.0090025023    6.0983051  0.029895831 
number of iterations: 1724 
    9300    34.348287      262          149          113 1.5069854e-13 1.0383541e-14          0.1 0.0090025416    6.2133115  0.029895765 
number of iterations: 1619 
    9400    34.514462      264          149          115 1.5269563e-13 1.0410406e-14          0.1 0.0090025721    6.3298451  0.029895714 
number of iterations: 1629 
    9500    34.689194      264          149          115 1.5471918e-13 1.0437579e-14          0.1 0.0090026062    6.4479262  0.029895658 
number of iterations: 1696 
    9600    34.878718      270          155          115 1.5676955e-13 1.0465061e-14          0.1 0.0090026393    6.5675754  0.029895602 
number of iterations: 1592 
    9700    35.061305      272          157          115 1.5884709e-13 1.0492851e-14          0.1 0.0090026707    6.6888135   0.02989555 
number of iterations: 1635 
    9800    35.229991      272          157          115 1.6095216e-13 1.0520949e-14          0.1 0.0090027061    6.8116617  0.029895491 
number of iterations: 1715 
    9900    35.420651      276          161          115 1.6308513e-13 1.0549355e-14          0.1 0.0090027521    6.9361417  0.029895415 
number of iterations: 1647 
   10000    35.617273      277          162          115 1.6524637e-13 1.0578067e-14          0.1 0.0090027861    7.0622751  0.029895358 
number of iterations: 1690 
   10100     35.80193      280          165          115 1.6743624e-13 1.0607087e-14          0.1 0.0090028264    7.1900839  0.029895291 
number of iterations: 1701 
   10200    36.021336      282          167          115 1.6965514e-13 1.0636413e-14          0.1 0.0090028704    7.3195904  0.029895218 
number of iterations: 1570 
   10300     36.20669      284          169          115 1.7190344e-13 1.0666045e-14          0.1 0.0090028996     7.450817  0.029895169 
number of iterations: 1715 
   10400    36.408801      285          170          115 1.7418154e-13 1.0695983e-14          0.1  0.009002942    7.5837867  0.029895098 
number of iterations: 1708 
   10500     36.61625      288          173          115 1.7648983e-13 1.0726226e-14          0.1 0.0090029921    7.7185227  0.029895015 
number of iterations: 1668 
   10600    36.812921      289          174          115 1.788287e-13 1.0756774e-14          0.1 0.0090030318    7.8550488  0.029894949 
number of iterations: 1669 
   10700    37.092409      291          176          115 1.8119858e-13 1.0787628e-14          0.1 0.0090030719    7.9933885  0.029894882 
number of iterations: 1656 
   10800     37.28417      295          180          115 1.8359985e-13 1.0818785e-14          0.1 0.0090031127     8.133566  0.029894814 
number of iterations: 1681 
   10900    37.487785      301          185          116 1.8603295e-13 1.0850247e-14          0.1 0.0090031527    8.2756058  0.029894747 
number of iterations: 1655 
   11000    37.694141      305          189          116 1.884983e-13 1.0882013e-14          0.1 0.0090031884    8.4195325  0.029894688 
number of iterations: 1728 
   11100    37.896436      306          190          116 1.9099631e-13 1.0914083e-14          0.1 0.0090032277    8.5653713  0.029894622 
number of iterations: 1695 
   11200    38.093937      308          192          116 1.9352743e-13 1.0946456e-14          0.1 0.0090032691    8.7131481  0.029894553 
number of iterations: 1682 
   11300    38.282534      309          193          116 1.9609209e-13 1.0979133e-14          0.1 0.0090033049    8.8628882  0.029894494 
number of iterations: 1740 
   11400    38.479453      311          195          116 1.9869074e-13 1.1012113e-14          0.1 0.0090033548    9.0146179  0.029894411 
number of iterations: 1660 
   11500    38.649166      315          197          118 2.0132383e-13 1.1045397e-14          0.1 0.0090033933    9.1683636  0.029894346 
number of iterations: 1725 
   11600     38.84068      317          199          118 2.0399181e-13 1.1078983e-14          0.1 0.0090034479    9.3241519  0.029894255 
number of iterations: 1666 
   11700    39.032977      318          200          118 2.0669514e-13 1.1112873e-14          0.1 0.0090034848    9.4820102  0.029894194 
number of iterations: 1703 
   11800    39.223023      324          206          118 2.0943431e-13 1.1147067e-14          0.1  0.009003531     9.641966  0.029894117 
number of iterations: 1696 
   11900    39.413923      328          208          120 2.1220977e-13 1.1181563e-14          0.1 0.0090035745    9.8040473  0.029894045 
number of iterations: 1762 
   12000    39.591379      332          212          120 2.1502201e-13 1.1216362e-14          0.1 0.0090036238    9.9682823  0.029893963 
number of iterations: 1677 
   12100    39.780801      338          218          120 2.1787152e-13 1.1251465e-14          0.1 0.0090036631    10.134699  0.029893897 
number of iterations: 1711 
   12200     39.96869      338          218          120 2.207588e-13 1.128687e-14          0.1 0.0090037117    10.303328  0.029893816 
number of iterations: 1696 
   12300    40.151683      341          220          121 2.2368433e-13 1.1322579e-14          0.1 0.0090037609    10.474198  0.029893734 
number of iterations: 1745 
   12400      40.3437      344          223          121 2.2664864e-13 1.135859e-14          0.1 0.0090038157    10.647337  0.029893643 
number of iterations: 1763 
   12500    40.533776      349          228          121 2.2965223e-13 1.1394905e-14          0.1 0.0090038739    10.822777  0.029893546 
number of iterations: 1706 
   12600    40.752425      353          232          121 2.3269562e-13 1.1431523e-14          0.1 0.0090039186    11.000548  0.029893472 
number of iterations: 1734 
   12700    41.018899      356          235          121 2.3577934e-13 1.1468444e-14          0.1 0.0090039724    11.180681  0.029893382 
number of iterations: 1733 
   12800    41.235233      356          235          121 2.3890393e-13 1.1505668e-14          0.1 0.0090040286    11.363207  0.029893288 
number of iterations: 1705 
   12900     41.43699      364          243          121 2.4206993e-13 1.1543196e-14          0.1 0.0090040768    11.548159  0.029893208 
number of iterations: 1787 
   13000    41.630304      367          246          121 2.4527789e-13 1.1581027e-14          0.1 0.0090041376    11.735569  0.029893107 
number of iterations: 1792 
   13100    41.838557      369          248          121 2.4852835e-13 1.1619162e-14          0.1 0.0090041946    11.925469  0.029893012 
number of iterations: 1763 
   13200    42.160449      373          252          121 2.518219e-13 1.1657601e-14          0.1 0.0090042509    12.117893  0.029892918 
number of iterations: 1744 
   13300    42.358517      375          254          121 2.5515908e-13 1.1696343e-14          0.1 0.0090043098    12.312873   0.02989282 
number of iterations: 1752 
   13400    42.549516      378          256          122 2.585405e-13 1.173539e-14          0.1 0.0090043655    12.510445  0.029892727 
number of iterations: 1717 
   13500    42.738696      382          258          124 2.6196672e-13 1.1774741e-14          0.1 0.0090044147    12.710642  0.029892645 
number of iterations: 1761 
   13600    42.944444      385          260          125 2.6543835e-13 1.1814396e-14          0.1 0.0090044755      12.9135  0.029892544 
number of iterations: 1813 
   13700     43.13735      387          262          125 2.6895599e-13 1.1854356e-14          0.1 0.0090045479    13.119053  0.029892423 
number of iterations: 1796 
   13800     43.31231      399          273          126 2.7252024e-13 1.1894621e-14          0.1 0.0090046115    13.327338  0.029892318 
number of iterations: 1750 
   13900    43.508091      403          277          126 2.7613172e-13 1.193519e-14          0.1 0.0090046709    13.538391  0.029892218 
number of iterations: 1767 
   14000     43.70284      405          279          126 2.7979107e-13 1.1976065e-14          0.1 0.0090047322    13.752248  0.029892116 
number of iterations: 1772 
   14100    43.892572      407          281          126 2.8349891e-13 1.2017245e-14          0.1 0.0090047964    13.968948   0.02989201 
number of iterations: 1739 
   14200    44.100232      410          282          128 2.8725589e-13 1.2058731e-14          0.1 0.0090048574    14.188526  0.029891908 
number of iterations: 1763 
   14300    44.323199      416          284          132 2.9106265e-13 1.2100523e-14          0.1 0.0090049165    14.411022  0.029891809 
number of iterations: 1753 
   14400    44.514227      419          287          132 2.9491986e-13 1.2142621e-14          0.1  0.009004973    14.636475  0.029891715 
number of iterations: 1763 
   14500    44.694128      423          291          132 2.9882819e-13 1.2185027e-14          0.1  0.009005035    14.864923  0.029891612 
number of iterations: 1758 
   14600    44.899468      428          296          132 3.0278831e-13 1.2227739e-14          0.1 0.0090050981    15.096408  0.029891507 
number of iterations: 1779 
   14700    45.091654      434          302          132 3.0680092e-13 1.2270758e-14          0.1 0.0090051612    15.330968  0.029891402 
number of iterations: 1744 
   14800    45.274884      442          310          132 3.108667e-13 1.2314086e-14          0.1 0.0090052093    15.568646  0.029891322 
number of iterations: 1791 
   14900    45.495732      445          313          132 3.1498635e-13 1.2357721e-14          0.1 0.0090052696    15.809482  0.029891221 
number of iterations: 1779 
   15000    45.702596      447          315          132 3.1916061e-13 1.2401665e-14          0.1 0.0090053399    16.053517  0.029891104 
number of iterations: 1821 
   15100    45.919933      452          320          132 3.2339018e-13 1.2445918e-14          0.1 0.0090054203    16.300795   0.02989097 
number of iterations: 1773 
   15200    46.120223      456          324          132 3.276758e-13 1.2490479e-14          0.1  0.009005485    16.551359  0.029890863 
number of iterations: 1791 
   15300    46.317552      460          328          132 3.3201821e-13 1.2535351e-14          0.1  0.009005565    16.805252  0.029890729 
number of iterations: 1814 
   15400    46.530008      465          332          133 3.3641817e-13 1.2580532e-14          0.1 0.0090056447    17.062519  0.029890597 
number of iterations: 1791 
   15500    46.738011      472          338          134 3.4087644e-13 1.2626024e-14          0.1 0.0090057177    17.323204  0.029890475 
number of iterations: 1835 
   15600    47.070996      478          342          136 3.453938e-13 1.2671826e-14          0.1 0.0090057997    17.587353  0.029890339 
number of iterations: 1859 
   15700     47.28525      482          345          137 3.4997101e-13 1.271794e-14          0.1 0.0090058951    17.855012   0.02989018 
number of iterations: 1775 
   15800    47.500301      488          350          138 3.5460889e-13 1.2764365e-14          0.1 0.0090059653    18.126226  0.029890063 
number of iterations: 1791 
   15900    47.697002      495          356          139 3.5930822e-13 1.2811102e-14          0.1 0.0090060403    18.401044  0.029889938 
number of iterations: 1824 
   16000    47.888634      504          364          140 3.6406983e-13 1.2858153e-14          0.1 0.0090061196    18.679514  0.029889806 
number of iterations: 1858 
   16100    48.094537      508          368          140 3.6889455e-13 1.2905516e-14          0.1 0.0090062163    18.961683  0.029889645 
number of iterations: 1801 
   16200    48.278465      510          370          140 3.737832e-13 1.2953194e-14          0.1 0.0090062943    19.247602  0.029889515 
number of iterations: 1818 
   16300    48.486478      513          373          140 3.7873663e-13 1.3001185e-14          0.1 0.0090063708    19.537318  0.029889387 
number of iterations: 1779 
   16400    48.679409      516          376          140 3.8375571e-13 1.3049491e-14          0.1 0.0090064454    19.830883  0.029889263 
number of iterations: 1843 
   16500    48.903515      524          384          140 3.888413e-13 1.3098112e-14          0.1 0.0090065342    20.128349  0.029889115 
number of iterations: 1845 
   16600    49.132938      528          387          141 3.9399429e-13 1.3147049e-14          0.1 0.0090066273    20.429766   0.02988896 
number of iterations: 1870 
   16700    49.337521      533          392          141 3.9921556e-13 1.3196303e-14          0.1 0.0090067265    20.735188  0.029888795 
number of iterations: 1804 
   16800     49.53135      540          399          141 4.0450603e-13 1.3245873e-14          0.1 0.0090068041    21.044668  0.029888666 
number of iterations: 1849 
   16900      49.7467      546          405          141 4.0986661e-13 1.3295761e-14          0.1 0.0090068882     21.35826  0.029888526 
number of iterations: 1824 
   17000    49.939447      553          412          141 4.1529823e-13 1.3345967e-14          0.1 0.0090069693    21.676018  0.029888391 
number of iterations: 1836 
   17100    50.158271      565          422          143 4.2080182e-13 1.3396492e-14          0.1 0.0090070512    21.997997  0.029888254 
number of iterations: 1862 
   17200    50.347942      568          425          143 4.2637835e-13 1.3447336e-14          0.1   0.00900715    22.324254   0.02988809 
number of iterations: 1837 
   17300    50.537252      572          427          145 4.3202879e-13 1.3498501e-14          0.1 0.0090072423    22.654845  0.029887936 
number of iterations: 1836 
   17400    50.778963      577          432          145 4.377541e-13 1.3549986e-14          0.1 0.0090073325    22.989828  0.029887786 
number of iterations: 1835 
   17500    50.997917      583          438          145 4.4355528e-13 1.3601792e-14          0.1 0.0090074259     23.32926   0.02988763 
number of iterations: 1893 
   17600    51.191409      592          446          146 4.4943335e-13 1.365392e-14          0.1 0.0090075411    23.673202  0.029887438 
number of iterations: 1866 
   17700    51.402215      596          450          146 4.553893e-13 1.3706371e-14          0.1 0.0090076444    24.021712  0.029887266 
number of iterations: 1858 
   17800    51.607161      601          455          146 4.6142419e-13 1.3759146e-14          0.1 0.0090077512    24.374852  0.029887089 
number of iterations: 1872 
   17900    51.794085      607          461          146 4.6753905e-13 1.3812244e-14          0.1 0.0090078549    24.732683  0.029886916 
number of iterations: 1850 
   18000     52.21115      613          467          146 4.7373495e-13 1.3865667e-14          0.1 0.0090079491    25.095267  0.029886759 
number of iterations: 1838 
   18100    52.427417      618          472          146 4.8001296e-13 1.3919415e-14          0.1 0.0090080402    25.462667  0.029886607 
number of iterations: 1883 
   18200    52.606366      622          476          146 4.8637416e-13 1.397349e-14          0.1 0.0090081528    25.834947   0.02988642 
number of iterations: 1862 
   18300     52.80264      627          480          147 4.9281966e-13 1.4027891e-14          0.1 0.0090082587    26.212172  0.029886243 
number of iterations: 1861 
   18400    53.002217      631          484          147 4.9935058e-13 1.408262e-14          0.1 0.0090083599    26.594408  0.029886075 
number of iterations: 1868 
   18500    53.212998      635          488          147 5.0596804e-13 1.4137678e-14          0.1 0.0090084614     26.98172  0.029885906 
number of iterations: 1871 
   18600    53.432098      640          493          147 5.1267321e-13 1.4193065e-14          0.1 0.0090085692    27.374177  0.029885726 
number of iterations: 1892 
   18700    53.652428      649          502          147 5.1946722e-13 1.4248781e-14          0.1 0.0090086691    27.771846   0.02988556 
number of iterations: 1881 
   18800    53.844934      659          512          147 5.2635128e-13 1.4304829e-14          0.1  0.009008783    28.174798   0.02988537 
number of iterations: 1916 
   18900    54.055776      674          525          149 5.3332656e-13 1.4361208e-14          0.1 0.0090089109      28.5831  0.029885157 
number of iterations: 1922 
   19000    54.299389      679          530          149 5.4039428e-13 1.441792e-14          0.1 0.0090090352    28.996827   0.02988495 
number of iterations: 1934 
   19100    54.513333      690          541          149 5.4755566e-13 1.4474964e-14          0.1 0.0090091494    29.416047   0.02988476 
number of iterations: 1917 
   19200    54.720446      696          547          149 5.5481194e-13 1.4532343e-14          0.1 0.0090092784    29.840837  0.029884545 
number of iterations: 1935 
   19300    54.922649      707          557          150 5.6216439e-13 1.4590057e-14          0.1 0.0090094176    30.271268  0.029884313 
number of iterations: 1911 
   19400    55.151378      719          565          154 5.6961426e-13 1.4648106e-14          0.1 0.0090095389    30.707415  0.029884111 
number of iterations: 1920 
   19500    55.378694      730          574          156 5.7716287e-13 1.4706493e-14          0.1 0.0090096699    31.149356  0.029883893 
number of iterations: 1938 
   19600     55.57054      734          578          156 5.8481151e-13 1.4765216e-14          0.1 0.0090098129    31.597167  0.029883655 
number of iterations: 1886 
   19700    55.764328      742          586          156 5.9256151e-13 1.4824279e-14          0.1 0.0090099362    32.050925   0.02988345 
number of iterations: 1933 
   19800    55.976118      750          594          156 6.0041421e-13 1.488368e-14          0.1 0.0090100721    32.510709  0.029883223 
number of iterations: 1920 
   19900    56.177287      757          601          156 6.0837098e-13 1.4943422e-14          0.1 0.0090102059      32.9766  0.029883001 
number of iterations: 1958 
   20000    56.447831      768          612          156 6.1643319e-13 1.5003505e-14          0.1 0.0090103606    33.448678  0.029882743 
number of iterations: 1920 
   20100    56.662889      775          619          156 6.2460225e-13 1.5063929e-14          0.1 0.0090104962    33.927025  0.029882517 
number of iterations: 1917 
   20200    56.874093      781          625          156 6.3287956e-13 1.5124697e-14          0.1 0.0090106225    34.411725  0.029882307 
number of iterations: 1941 
   20300    57.245267      787          631          156 6.4126656e-13 1.5185809e-14          0.1 0.0090107611    34.902862  0.029882076 
number of iterations: 1928 
   20400    57.434155      797          640          157 6.497647e-13 1.5247265e-14          0.1 0.0090108933    35.400522  0.029881856 
number of iterations: 1939 
   20500    57.649484      807          649          158 6.5837547e-13 1.5309067e-14          0.1 0.0090110347    35.904792   0.02988162 
number of iterations: 1950 
   20600    57.845555      819          658          161 6.6710034e-13 1.5371217e-14          0.1 0.0090111911    36.415759   0.02988136 
number of iterations: 1918 
   20700    58.067376      830          669          161 6.7594084e-13 1.5433714e-14          0.1 0.0090113263     36.93351  0.029881135 
number of iterations: 1964 
   20800    58.277004      838          675          163 6.8489849e-13 1.5496559e-14          0.1  0.009011488    37.458136  0.029880866 
number of iterations: 1933 
   20900    58.534668      847          683          164 6.9397484e-13 1.5559755e-14          0.1 0.0090116426    37.989728  0.029880608 
number of iterations: 1952 
   21000    58.759267      862          696          166 7.0317148e-13 1.5623301e-14          0.1  0.009011796     38.52838  0.029880353 
number of iterations: 1951 
   21100    58.957796      866          700          166 7.1248999e-13  1.56872e-14          0.1 0.0090119515    39.074184  0.029880094 
number of iterations: 1956 
   21200    59.164569      879          713          166 7.2193199e-13 1.5751451e-14          0.1 0.0090121202    39.627234  0.029879813 
number of iterations: 1951 
   21300    59.401502      891          723          168 7.3149912e-13 1.5816056e-14          0.1 0.0090122693    40.187627  0.029879564 
number of iterations: 1969 
   21400    59.609898      901          733          168 7.4119303e-13 1.5881016e-14          0.1 0.0090124319    40.755462  0.029879294 
number of iterations: 1957 
   21500     59.82034      912          744          168 7.5101541e-13 1.5946332e-14          0.1 0.0090125938    41.330835  0.029879024 
number of iterations: 1979 
   21600    60.058113      925          755          170 7.6096795e-13 1.6012005e-14          0.1 0.0090127566    41.913848  0.029878753 
number of iterations: 1938 
   21700    60.253344      942          772          170 7.7105238e-13 1.6078037e-14          0.1 0.0090129099      42.5046  0.029878498 
number of iterations: 2027 
   21800    60.463185      954          783          171 7.8127045e-13 1.6144428e-14          0.1 0.0090131082    43.103195  0.029878167 
number of iterations: 1954 
   21900    60.707346      964          792          172 7.9162393e-13 1.6211179e-14          0.1 0.0090132682    43.709739  0.029877901 
number of iterations: 1999 
   22000    60.963737      976          803          173 8.0211462e-13 1.6278292e-14          0.1 0.0090134532    44.324334  0.029877593 
number of iterations: 1987 
   22100    61.190696      988          813          175 8.1274433e-13 1.6345767e-14          0.1 0.0090136334     44.94709  0.029877293 
number of iterations: 1993 
   22200    61.418481      994          818          176 8.235149e-13 1.6413607e-14          0.1 0.0090138213    45.578114   0.02987698 
number of iterations: 1986 
   22300    61.630192     1003          827          176 8.3442821e-13 1.6481811e-14          0.1 0.0090139938    46.217516  0.029876693 
number of iterations: 1973 
   22400    61.855149     1012          835          177 8.4548614e-13 1.6550381e-14          0.1 0.0090141621    46.865408  0.029876412 
number of iterations: 1982 
   22500    62.206421     1015          837          178 8.566906e-13 1.6619319e-14          0.1 0.0090143418      47.5219  0.029876113 
number of iterations: 1984 
   22600    62.430013     1025          846          179 8.6804355e-13 1.6688626e-14          0.1  0.009014528    48.187108  0.029875803 
number of iterations: 1973 
   22700    62.632664     1034          854          180 8.7954695e-13 1.6758302e-14          0.1  0.009014697    48.861146  0.029875522 
number of iterations: 1996 
   22800    62.870896     1046          865          181 8.9120279e-13 1.6828349e-14          0.1 0.0090148807    49.544133  0.029875216 
number of iterations: 2006 
   22900    63.081978     1063          881          182 9.030131e-13 1.6898768e-14          0.1 0.0090150847    50.236186  0.029874876 
number of iterations: 2025 
   23000    63.290657     1076          894          182 9.1497992e-13 1.6969561e-14          0.1 0.0090152956    50.937426  0.029874525 
number of iterations: 2023 
   23100    63.515821     1086          904          182 9.2710531e-13 1.7040729e-14          0.1 0.0090155051    51.647975  0.029874176 
number of iterations: 1995 
   23200     63.73998     1097          914          183 9.393914e-13 1.7112272e-14          0.1 0.0090156965    52.367957  0.029873857 
number of iterations: 2027 
   23300    63.978204     1110          926          184 9.518403e-13 1.7184192e-14          0.1 0.0090159231    53.097496   0.02987348 
number of iterations: 1999 
   23400    64.200242     1124          940          184 9.6445417e-13 1.725649e-14          0.1 0.0090161183    53.836719  0.029873155 
number of iterations: 2042 
   23500    64.417539     1140          955          185 9.772352e-13 1.7329168e-14          0.1 0.0090163474    54.585754  0.029872773 
number of iterations: 1994 
   23600    64.624575     1160          971          189 9.9018561e-13 1.7402227e-14          0.1  0.009016533     55.34473  0.029872464 
number of iterations: 2058 
   23700    64.854712     1177          988          189 1.0033076e-12 1.7475667e-14          0.1 0.0090167627     56.11378  0.029872082 
number of iterations: 2040 
   23800    65.080078     1184          995          189 1.0166035e-12 1.7549491e-14          0.1 0.0090169883    56.893038  0.029871706 
number of iterations: 2034 
   23900    65.304281     1199         1010          189 1.0300757e-12  1.76237e-14          0.1 0.0090172129    57.682641  0.029871332 
number of iterations: 2044 
   24000    65.526767     1215         1025          190 1.0437263e-12 1.7698295e-14          0.1 0.0090174482    58.482725   0.02987094 
number of iterations: 2036 
   24100     65.75351     1232         1041          191 1.0575578e-12 1.7773277e-14          0.1  0.009017683    59.293431  0.029870549 
number of iterations: 2026 
   24200    65.984066     1247         1054          193 1.0715727e-12 1.7848649e-14          0.1 0.0090179101    60.114896  0.029870171 
number of iterations: 2024 
   24300    66.224346     1262         1068          194 1.0857732e-12 1.792441e-14          0.1 0.0090181237    60.947266  0.029869815 
number of iterations: 2074 
   24400    66.444587     1277         1082          195 1.100162e-12 1.8000562e-14          0.1 0.0090183867    61.790683  0.029869377 
number of iterations: 2033 
   24500    66.655518     1291         1096          195 1.1147414e-12 1.8077107e-14          0.1 0.0090186245    62.645295  0.029868981 
number of iterations: 2051 
   24600    66.884128     1310         1114          196 1.1295141e-12 1.8154047e-14          0.1 0.0090188672     63.51125  0.029868577 
number of iterations: 2045 
   24700    67.243932     1330         1134          196 1.1444824e-12 1.8231381e-14          0.1 0.0090191009    64.388698  0.029868188 
number of iterations: 2064 
   24800    67.455702     1348         1152          196 1.1596492e-12 1.8309113e-14          0.1 0.0090193666    65.277792  0.029867746 
number of iterations: 2043 
   24900     67.67968     1357         1161          196 1.175017e-12 1.8387244e-14          0.1 0.0090196073    66.178687  0.029867345 
number of iterations: 2079 
   25000     67.91831     1385         1186          199 1.1905884e-12 1.8465774e-14          0.1 0.0090198808    67.091537  0.029866889 
number of iterations: 2065 
   25100    68.125705     1400         1200          200 1.2063661e-12 1.8544705e-14          0.1 0.0090201401    68.016504  0.029866458 
number of iterations: 2060 
   25200    68.342675     1414         1213          201 1.2223529e-12 1.8624039e-14          0.1 0.0090204067    68.953745  0.029866014 
number of iterations: 2082 
   25300    68.570681     1429         1226          203 1.2385516e-12 1.8703777e-14          0.1 0.0090206949    69.903426  0.029865534 
number of iterations: 2048 
   25400    68.791653     1440         1237          203 1.254965e-12 1.8783921e-14          0.1 0.0090209446    70.865709  0.029865118 
number of iterations: 2065 
   25500    69.004068     1461         1255          206 1.2715958e-12 1.8864471e-14          0.1 0.0090212239    71.840763  0.029864653 
number of iterations: 2080 
   25600    69.247534     1479         1272          207 1.2884471e-12 1.894543e-14          0.1  0.009021502    72.828757   0.02986419 
number of iterations: 2089 
   25700    69.459143     1500         1293          207 1.3055217e-12  1.90268e-14          0.1 0.0090217848    73.829863  0.029863719 
number of iterations: 2087 
   25800    69.670963     1511         1304          207 1.3228225e-12 1.910858e-14          0.1 0.0090220765    74.844253  0.029863233 
number of iterations: 2072 
   25900    69.901913     1531         1322          209 1.3403526e-12 1.9190774e-14          0.1 0.0090223527    75.872104  0.029862773 
number of iterations: 2083 
   26000    70.126272     1554         1345          209 1.358115e-12 1.9273382e-14          0.1 0.0090226231    76.913596  0.029862323 
number of iterations: 2107 
   26100    70.347798     1568         1359          209 1.3761128e-12 1.9356407e-14          0.1 0.0090229432    77.968907   0.02986179 
number of iterations: 2095 
   26200    70.576025     1583         1374          209 1.3943491e-12 1.9439849e-14          0.1 0.0090232526    79.038223  0.029861274 
number of iterations: 2098 
   26300    70.840685     1606         1396          210 1.4128271e-12 1.952371e-14          0.1 0.0090235622    80.121728  0.029860759 
number of iterations: 2079 
   26400    71.086138     1624         1414          210 1.4315499e-12 1.9607992e-14          0.1 0.0090238383    81.219612  0.029860299 
number of iterations: 2107 
   26500    71.343294     1646         1436          210 1.4505209e-12 1.9692697e-14          0.1 0.0090241637    82.332063  0.029859757 
number of iterations: 2128 
   26600    71.574779     1660         1449          211 1.4697432e-12 1.9777825e-14          0.1 0.0090245102    83.459277   0.02985918 
number of iterations: 2101 
   26700    71.812439     1676         1465          211 1.4892203e-12 1.9863379e-14          0.1 0.0090248284    84.601449   0.02985865 
number of iterations: 2123 
   26800    72.097956     1703         1490          213 1.5089555e-12 1.994936e-14          0.1 0.0090251739    85.758777  0.029858075 
number of iterations: 2138 
   26900    72.424026     1725         1510          215 1.5289522e-12 2.003577e-14          0.1 0.0090255287     86.93146  0.029857484 
number of iterations: 2135 
   27000    72.645856     1739         1523          216 1.5492139e-12 2.012261e-14          0.1 0.0090258918    88.119701   0.02985688 
number of iterations: 2106 
   27100    72.868638     1762         1544          218 1.5697441e-12 2.0209882e-14          0.1 0.0090262213    89.323712  0.029856331 
number of iterations: 2141 
   27200    73.116293     1783         1565          218 1.5905464e-12 2.0297587e-14          0.1   0.00902658    90.543698  0.029855734 
number of iterations: 2112 
   27300    73.335993     1800         1580          220 1.6116244e-12 2.0385728e-14          0.1 0.0090269173    91.779871  0.029855172 
number of iterations: 2141 
   27400    73.587989     1826         1605          221 1.6329816e-12 2.0474306e-14          0.1 0.0090272814    93.032444  0.029854566 
number of iterations: 2132 
   27500    73.816486     1854         1632          222 1.6546219e-12 2.0563323e-14          0.1 0.0090276477    94.301638  0.029853956 
number of iterations: 2105 
   27600    74.110638     1883         1661          222 1.676549e-12 2.065278e-14          0.1 0.0090279712    95.587671  0.029853417 
number of iterations: 2155 
   27700    74.341255     1901         1679          222 1.6987666e-12 2.0742679e-14          0.1 0.0090283664    96.890768  0.029852759 
number of iterations: 2125 
   27800    74.572556     1921         1699          222 1.7212787e-12 2.0833021e-14          0.1 0.0090287237    98.211153  0.029852164 
number of iterations: 2165 
   27900     74.81715     1947         1725          222 1.7440891e-12 2.092381e-14          0.1 0.0090291363    99.549058  0.029851477 
number of iterations: 2150 
   28000    75.062212     1976         1751          225 1.7672018e-12 2.1015045e-14          0.1 0.0090295266    100.90472  0.029850827 
number of iterations: 2136 
   28100    75.305335     1992         1763          229 1.7906207e-12 2.1106729e-14          0.1 0.0090298956    102.27836  0.029850213 
number of iterations: 2149 
   28200     75.54615     2012         1782          230  1.81435e-12 2.1198865e-14          0.1 0.0090302858    103.67023  0.029849563 
number of iterations: 2178 
   28300    75.789723     2042         1811          231 1.8383938e-12 2.1291452e-14          0.1 0.0090307187    105.08056  0.029848842 
number of iterations: 2161 
   28400    76.035932     2065         1833          232 1.8627561e-12 2.1384494e-14          0.1  0.009031129    106.50961  0.029848159 
number of iterations: 2173 
   28500     76.28942     2081         1848          233 1.8874413e-12 2.1477992e-14          0.1 0.0090315561    107.95761  0.029847448 
number of iterations: 2181 
   28600    76.535093     2103         1867          236 1.9124537e-12 2.1571948e-14          0.1 0.0090320034    109.42483  0.029846703 
number of iterations: 2165 
   28700    76.783423     2133         1896          237 1.9377975e-12 2.1666363e-14          0.1 0.0090324272    110.91151  0.029845997 
number of iterations: 2171 
   28800     77.04295     2157         1920          237 1.9634771e-12 2.176124e-14          0.1 0.0090328625    112.41792  0.029845272 
number of iterations: 2165 
   28900    77.369208     2186         1949          237 1.9884501e-12 2.185658e-14          0.1 0.0090332756    113.94351  0.029844584 
number of iterations: 2161 
   29000    77.604455     2207         1970          237 2.014801e-12 2.1952386e-14          0.1 0.0090337042    115.48934   0.02984387 
number of iterations: 2160 
   29100     77.85402     2239         2002          237 2.0415011e-12 2.2048658e-14          0.1 0.0090341243    117.05568  0.029843171 
number of iterations: 2204 
   29200    78.106142     2270         2031          239 2.068555e-12 2.2145399e-14          0.1 0.0090346181     118.6428  0.029842349 
number of iterations: 2169 
   29300    78.335676     2296         2057          239 2.0959674e-12 2.2242611e-14          0.1 0.0090350354    120.25097  0.029841654 
number of iterations: 2149 
   29400    78.571482     2323         2083          240 2.1237431e-12 2.2340295e-14          0.1 0.0090354499    121.88048  0.029840964 
number of iterations: 2177 
   29500    78.805528     2346         2105          241 2.1518868e-12 2.2438454e-14          0.1 0.0090359055     123.5316  0.029840205 
number of iterations: 2200 
   29600       79.071     2383         2140          243 2.1804036e-12 2.2537089e-14          0.1 0.0090364096    125.20463  0.029839365 
number of iterations: 2195 
   29700    79.309724     2415         2172          243 2.2092982e-12 2.2636203e-14          0.1 0.0090368847    126.89985  0.029838574 
number of iterations: 2218 
   29800    79.572287     2445         2200          245 2.2385757e-12 2.2735797e-14          0.1 0.0090374145    128.61756  0.029837692 
number of iterations: 2208 
   29900    79.854654     2472         2226          246 2.2682412e-12 2.2835873e-14          0.1 0.0090379274    130.35806  0.029836838 
number of iterations: 2191 
   30000    80.103914     2502         2254          248 2.2982998e-12 2.2936433e-14          0.1 0.0090384173    132.12165  0.029836022 
number of iterations: 2185 
   30100    80.339004     2536         2288          248 2.3287567e-12 2.303748e-14          0.1 0.0090389065    133.90863  0.029835208 
number of iterations: 2192 
   30200    80.575123     2568         2319          249 2.3596172e-12 2.3139014e-14          0.1 0.0090394018    135.71931  0.029834383 
number of iterations: 2202 
   30300    80.877926     2599         2350          249 2.3908867e-12 2.3241039e-14          0.1 0.0090399002    137.55402  0.029833553 
number of iterations: 2227 
   30400    81.144179     2637         2388          249 2.4225706e-12 2.3343556e-14          0.1 0.0090404503    139.41306  0.029832637 
number of iterations: 2197 
   30500    81.373441     2673         2422          251 2.4546744e-12 2.3446567e-14          0.1 0.0090409449    141.29677  0.029831813 
number of iterations: 2205 
   30600    81.639878     2715         2463          252 2.4872035e-12 2.3550074e-14          0.1 0.0090414517    143.20547  0.029830969 
number of iterations: 2224 
   30700    81.900012     2753         2501          252 2.5201638e-12 2.3654079e-14          0.1 0.0090420288    145.13949  0.029830009 
number of iterations: 2201 
   30800    82.290096     2784         2531          253 2.5535608e-12 2.3758585e-14          0.1 0.0090425298    147.09916  0.029829174 
number of iterations: 2243 
   30900    82.535527     2813         2559          254 2.5874004e-12 2.3863592e-14          0.1 0.0090431329    149.08482   0.02982817 
number of iterations: 2219 
   31000    82.796925     2849         2595          254 2.6216884e-12 2.3969103e-14          0.1  0.009043694    151.09683  0.029827236 
number of iterations: 2239 
   31100    83.055951     2878         2622          256 2.6564307e-12 2.4075121e-14          0.1 0.0090442877    153.13553  0.029826247 
number of iterations: 2228 
   31200    83.313487     2908         2652          256 2.6916335e-12 2.4181648e-14          0.1 0.0090448451    155.20127  0.029825319 
number of iterations: 2242 
   31300    83.583875     2948         2692          256 2.7273028e-12 2.4288684e-14          0.1 0.0090454338    157.29441  0.029824339 
number of iterations: 2224 
   31400    83.829875     2991         2732          259 2.7634448e-12 2.4396234e-14          0.1 0.0090459983    159.41531  0.029823399 
number of iterations: 2259 
   31500    84.168225     3032         2772          260 2.8000656e-12 2.4504298e-14          0.1 0.0090466359    161.56434  0.029822337 
number of iterations: 2239 
   31600    84.434274     3057         2795          262 2.8371718e-12 2.461288e-14          0.1 0.0090472403    163.74188   0.02982133 
number of iterations: 2230 
   31700    84.675216     3099         2835          264 2.8738518e-12 2.4721981e-14          0.1 0.0090478319     165.9476  0.029820345 
number of iterations: 2243 
   31800     84.96686     3142         2875          267 2.9119357e-12 2.4831602e-14          0.1  0.009048439    168.18258  0.029819334 
number of iterations: 2271 
   31900    85.253285     3181         2914          267 2.9494717e-12 2.4941747e-14          0.1 0.0090490974    170.44639  0.029818238 
number of iterations: 2286 
   32000    85.511015     3224         2957          267 2.9885577e-12 2.5052418e-14          0.1 0.0090497726    172.74024  0.029817114 
number of iterations: 2257 
   32100    85.767494     3256         2989          267 3.0281617e-12 2.5163617e-14          0.1 0.0090504319     175.0645  0.029816016 
number of iterations: 2271 
   32200    86.044121     3298         3031          267 3.0682906e-12 2.5275345e-14          0.1 0.0090511058     177.4196  0.029814894 
number of iterations: 2266 
   32300    86.282811     3346         3078          268 3.1089512e-12 2.5387606e-14          0.1 0.0090517745    179.80593   0.02981378 
number of iterations: 2276 
   32400    86.568732     3377         3109          268 3.1501506e-12 2.5500402e-14          0.1 0.0090524967    182.22392  0.029812578 
number of iterations: 2264 
   32500    86.826267     3425         3155          270 3.1918959e-12 2.5613734e-14          0.1 0.0090531682    184.67398  0.029811459 
number of iterations: 2279 
   32600    87.116919     3456         3186          270 3.2341945e-12 2.5727606e-14          0.1  0.009053885    187.15653  0.029810266 
number of iterations: 2250 
   32700    87.467986     3491         3221          270 3.2770536e-12 2.5842018e-14          0.1  0.009054525    189.67202    0.0298092 
number of iterations: 2287 
   32800    87.752255     3532         3262          270 3.3204806e-12 2.5956975e-14          0.1 0.0090552479    192.22086  0.029807996 
number of iterations: 2271 
   32900    88.028047     3581         3310          271 3.3644831e-12 2.6072477e-14          0.1 0.0090559563    194.80352  0.029806817 
number of iterations: 2278 
   33000    88.290701     3626         3353          273 3.4090687e-12 2.6188527e-14          0.1 0.0090566806    197.42042  0.029805611 
number of iterations: 2306 
   33100    88.616807     3668         3393          275 3.4542451e-12 2.6305127e-14          0.1 0.0090574597    200.07202  0.029804313 
number of iterations: 2307 
   33200    88.876461     3727         3452          275 3.5000202e-12 2.642228e-14          0.1 0.0090582541    202.75881  0.029802991 
number of iterations: 2275 
   33300    89.152117     3774         3499          275 3.5464019e-12 2.6539989e-14          0.1 0.0090590114    205.48123   0.02980173 
number of iterations: 2302 
   33400    89.423922     3811         3534          277 3.5933982e-12 2.6658254e-14          0.1 0.0090597815    208.23976  0.029800447 
number of iterations: 2310 
   33500    89.698392     3867         3588          279 3.6410173e-12 2.677708e-14          0.1 0.0090605747    211.03488  0.029799126 
number of iterations: 2295 
   33600    89.967589     3917         3637          280 3.6892673e-12 2.6896468e-14          0.1 0.0090613673    213.86706  0.029797807 
number of iterations: 2280 
   33700    90.224067     3963         3683          280 3.7381568e-12 2.7016421e-14          0.1 0.0090620957    216.73682  0.029796594 
number of iterations: 2313 
   33800    90.491005     4009         3728          281 3.786587e-12 2.7136941e-14          0.1 0.0090629108    219.64379  0.029795236 
number of iterations: 2306 
   33900    90.849949     4058         3775          283 3.8367662e-12 2.7258029e-14          0.1 0.0090637149    222.58931  0.029793897 
number of iterations: 2325 
   34000    91.126298     4119         3833          286 3.8876102e-12 2.737969e-14          0.1 0.0090645796    225.57389  0.029792458 
number of iterations: 2333 
   34100    91.397888     4177         3888          289 3.939128e-12 2.7501925e-14          0.1 0.0090654683    228.59806  0.029790978 
number of iterations: 2342 
   34200    91.667615     4226         3934          292 3.9913285e-12 2.7624738e-14          0.1 0.0090663958    231.66233  0.029789433 
number of iterations: 2331 
   34300    91.959152     4281         3987          294 4.0442208e-12 2.774813e-14          0.1 0.0090673101    234.76724  0.029787911 
number of iterations: 2335 
   34400    92.455865     4342         4047          295 4.0978139e-12 2.7872104e-14          0.1 0.0090682057    237.91332   0.02978642 
number of iterations: 2324 
   34500    92.731983     4394         4097          297 4.1521172e-12 2.7996662e-14          0.1 0.0090690687    241.10114  0.029784983 
number of iterations: 2318 
   34600    93.027856     4444         4146          298 4.2071401e-12 2.8121807e-14          0.1 0.0090699656    244.33123  0.029783489 
number of iterations: 2335 
   34700    93.314702     4495         4196          299 4.2628921e-12 2.8247542e-14          0.1 0.0090708887    247.60416  0.029781952 
number of iterations: 2324 
   34800    93.574517     4558         4255          303 4.319383e-12 2.8373869e-14          0.1 0.0090717769     250.9205  0.029780473 
number of iterations: 2331 
   34900    93.860375     4615         4310          305 4.3757472e-12 2.850079e-14          0.1 0.0090726981    254.28015  0.029778939 
number of iterations: 2348 
   35000    94.179534     4661         4356          305 4.4337336e-12 2.8628308e-14          0.1 0.0090736367    257.68437  0.029777376 
Loop time of 94.1796 on 32 procs for 35000 steps with 4661 atoms

Performance: 321088723.505 tau/day, 371.630 timesteps/s
92.4% CPU use with 32 MPI tasks x no OpenMP threads

MPI task timing breakdown:
Section |  min time  |  avg time  |  max time  |%varavg| %total
---------------------------------------------------------------
Pair    | 0.0022152  | 0.071929   | 0.2805     |  22.3 |  0.08
Neigh   | 0.003213   | 0.021131   | 0.068045   |  10.3 |  0.02
Comm    | 0.057185   | 0.17901    | 0.30717    |  15.4 |  0.19
Output  | 23.329     | 23.329     | 23.336     |   0.0 | 24.77
Modify  | 69.914     | 69.963     | 70.053     |   0.4 | 74.29
Other   |            | 0.6148     |            |       |  0.65

Nlocal:    145.656 ave 461 max 3 min
Histogram: 5 8 6 5 2 1 3 1 0 1
Nghost:    77 ave 218 max 4 min
Histogram: 6 2 8 3 7 3 1 0 1 1
Neighs:    536.656 ave 2105 max 5 min
Histogram: 7 10 4 5 1 2 2 0 0 1

Total # of neighbors = 17173
Ave neighs/atom = 3.6844
Neighbor list builds = 688
Dangerous builds = 0
#shell cd ..
#clear
#next reps
#jump SELF
Total wall time: 0:01:34
