LAMMPS (20 Nov 2019)
Reading data file ...
  orthogonal box = (0 0 0) to (0.0001 0.0001 5e-05)
  2 by 2 by 2 MPI processor grid
  reading atoms ...
  50 atoms
  4 nutrients
Lattice spacing in x,y,z = 100 100 100
50 atoms in group CYANO
0 atoms in group ECW
Model is defined as a closed system. 
Neighbor list info ...
  update every 1 steps, delay 0 steps, check yes
  max neighbors/atom: 5000, page size: 100000
  master list distance cutoff = 2.43e-06
  ghost atom cutoff = 2.43e-06
  binsize = 1.215e-06, bins = 83 83 42
  1 neighbor lists, perpetual/occasional/extra = 1 0 0
  (1) pair gran/hooke/history, perpetual
      attributes: half, newton off, size, history
      pair build: half/size/bin/newtoff
      stencil: half/bin/3d/newtoff
      bin: standard
Setting up Verlet run ...
  Unit style    : lj
  Current step  : 0
  Time step     : 10
Per MPI rank memory allocation (min/avg/max) = 6.973 | 10.99 | 12.35 Mbytes
Step CPU Atoms c_myNtypes[1] c_myNtypes[2] c_myMass[1] c_myMass[2] c_myCon[1] c_myCon[2] c_myCon[3] c_myCon[4] 
       0            0       50           50            0 4.6096317e-14            0          0.1        0.009     3.42e-20       0.0299 
number of iterations: 324994 
     100    5.2413863       50           50            0 4.6994858e-14            0          0.1  0.009001705 0.0018266126  0.029897162 
number of iterations: 21597 
     200    5.8132214       50           50            0 4.7910913e-14            0          0.1 0.0090017382  0.003631227  0.029897106 
number of iterations: 21682 
     300    6.4048991       50           50            0 4.8844826e-14            0          0.1 0.0090017721 0.0054707561   0.02989705 
number of iterations: 20005 
     400    6.9421312       51           51            0 4.9796942e-14            0          0.1 0.0090017947 0.0073460177  0.029897012 
number of iterations: 21823 
     500    7.5140107       52           52            0 5.0767618e-14            0          0.1 0.0090018297 0.0092577528  0.029896954 
number of iterations: 21909 
     600    8.0914215       55           55            0 5.1757215e-14            0          0.1 0.0090018653  0.011206694  0.029896895 
number of iterations: 21994 
     700    8.6497999       58           58            0 5.2766102e-14            0          0.1 0.0090019017   0.01319358  0.029896834 
number of iterations: 22079 
     800    9.2094154       59           59            0 5.3794655e-14            0          0.1 0.0090019388  0.015219158  0.029896772 
number of iterations: 22164 
     900    9.7807364       61           61            0 5.4843257e-14            0          0.1 0.0090019766  0.017284189  0.029896709 
number of iterations: 22253 
    1000    10.350967       62           62            0 5.5912299e-14            0          0.1 0.0090020151  0.019389446  0.029896645 
number of iterations: 22355 
    1100    10.906277       62           62            0 5.700218e-14            0          0.1 0.0090020544  0.021535716   0.02989658 
number of iterations: 22456 
    1200    11.496481       63           63            0 5.8113305e-14            0          0.1 0.0090020944  0.023723804  0.029896513 
number of iterations: 22558 
    1300    12.175291       63           63            0 5.9246089e-14            0          0.1 0.0090021353  0.025954532  0.029896445 
number of iterations: 22660 
    1400    12.917963       63           63            0 6.0400954e-14            0          0.1 0.0090021769  0.028228731  0.029896376 
number of iterations: 22762 
    1500    13.690314       63           63            0 6.1578331e-14            0          0.1 0.0090022193  0.030547251  0.029896305 
number of iterations: 22863 
    1600     14.30894       65           65            0 6.2778657e-14            0          0.1 0.0090022626  0.032910955  0.029896233 
number of iterations: 22965 
    1700    14.898847       66           66            0 6.4002381e-14            0          0.1 0.0090023067  0.035320726   0.02989616 
number of iterations: 23067 
    1800    15.556008       67           67            0 6.5249959e-14            0          0.1 0.0090023517  0.037777462  0.029896085 
number of iterations: 23169 
    1900    16.232107       67           67            0 6.6521856e-14            0          0.1 0.0090023975  0.040282078  0.029896009 
number of iterations: 23271 
    2000    16.870752       68           68            0 6.7818545e-14            0          0.1 0.0090024443  0.042835509  0.029895931 
number of iterations: 23373 
    2100    17.500794       68           68            0 6.914051e-14            0          0.1 0.0090024919  0.045438706  0.029895851 
number of iterations: 23475 
    2200    18.182269       69           69            0 7.0488244e-14            0          0.1 0.0090025405  0.048092641   0.02989577 
number of iterations: 23577 
    2300    18.810671       69           69            0 7.1862248e-14            0          0.1   0.00900259  0.050798301  0.029895688 
number of iterations: 23680 
    2400    19.467083       71           71            0 7.3263036e-14            0          0.1 0.0090026405  0.053556696  0.029895604 
number of iterations: 23771 
    2500    20.087417       75           75            0 7.4691128e-14            0          0.1  0.009002692  0.056368852  0.029895518 
number of iterations: 23874 
    2600    20.744565       77           77            0 7.6147058e-14            0          0.1 0.0090027445  0.059235821  0.029895431 
number of iterations: 23986 
    2700    21.393268       77           77            0 7.7631368e-14            0          0.1  0.009002798  0.062158669  0.029895342 
number of iterations: 24088 
    2800    22.129173       79           79            0 7.9144611e-14            0          0.1 0.0090028525  0.065138485  0.029895251 
number of iterations: 24190 
    2900    22.856903       79           79            0 8.0687351e-14            0          0.1 0.0090029081  0.068176381  0.029895158 
number of iterations: 24293 
    3000    24.089037       81           81            0 8.2260164e-14            0          0.1 0.0090029648  0.071273489  0.029895064 
number of iterations: 24395 
    3100     24.72748       81           81            0 8.3863634e-14            0          0.1 0.0090030226  0.074430963  0.029894968 
number of iterations: 24498 
    3200    25.480006       81           81            0 8.5498361e-14            0          0.1 0.0090030815  0.077649981   0.02989487 
number of iterations: 24600 
    3300    26.093409       81           81            0 8.7164952e-14            0          0.1 0.0090031416  0.080931741   0.02989477 
number of iterations: 24702 
    3400    26.722798       81           81            0 8.886403e-14            0          0.1 0.0090032028  0.084277468  0.029894668 
number of iterations: 24805 
    3500    27.371337       82           82            0 9.0596228e-14            0          0.1 0.0090032653  0.087688408  0.029894564 
number of iterations: 24907 
    3600    28.087947       84           84            0 9.236219e-14            0          0.1 0.0090033289  0.091165832  0.029894458 
number of iterations: 25010 
    3700      28.7274       86           86            0 9.4162576e-14            0          0.1 0.0090033938  0.094711037   0.02989435 
number of iterations: 25113 
    3800    29.338586       87           87            0 9.5998056e-14            0          0.1   0.00900346  0.098325343  0.029894239 
number of iterations: 25211 
    3900    29.965606       88           88            0 9.7869315e-14            0          0.1 0.0090035274    0.1020101  0.029894127 
number of iterations: 25307 
    4000    30.588108       93           93            0 9.9777049e-14            0          0.1 0.0090035962   0.10576668  0.029894013 
number of iterations: 24722 
    4100    31.209042       98           98            0 1.0172197e-13            0          0.1  0.009003659   0.10959649  0.029893908 
number of iterations: 25215 
    4200    31.926066      102          102            0 1.037048e-13            0          0.1 0.0090037273   0.11350095  0.029893794 
number of iterations: 25608 
    4300    32.616258      107          107            0 1.0572629e-13            0          0.1    0.0090038   0.11748152  0.029893673 
number of iterations: 25710 
    4400    33.256218      109          109            0 1.0778717e-13            0          0.1  0.009003874   0.12153968   0.02989355 
number of iterations: 25583 
    4500    33.883132      116          116            0 1.0988823e-13            0          0.1 0.0090039467   0.12567691  0.029893429 
number of iterations: 25907 
    4600    34.530518      118          118            0 1.1203025e-13            0          0.1 0.0090040236   0.12989479  0.029893301 
number of iterations: 26014 
    4700    35.149858      120          120            0 1.1421402e-13            0          0.1 0.0090041021   0.13419489   0.02989317 
number of iterations: 26117 
    4800    35.810981      121          121            0 1.1644035e-13            0          0.1  0.009004182    0.1385788  0.029893037 
number of iterations: 26219 
    4900    36.433829      121          121            0 1.1871009e-13            0          0.1 0.0090042636   0.14304816  0.029892901 
number of iterations: 26588 
    5000    37.090997      122          122            0 1.2102406e-13            0          0.1 0.0090043499   0.14760463  0.029892758 
number of iterations: 26434 
    5100    37.767745      124          124            0 1.2338314e-13            0          0.1 0.0090044347   0.15224991  0.029892616 
number of iterations: 26529 
    5200    38.433498      127          127            0 1.2578821e-13            0          0.1 0.0090045212   0.15698574  0.029892472 
number of iterations: 26636 
    5300     39.07835      130          130            0 1.2824016e-13            0          0.1 0.0090046093   0.16181388  0.029892326 
number of iterations: 26740 
    5400    39.800668      132          132            0 1.307399e-13            0          0.1 0.0090046992   0.16673613  0.029892176 
number of iterations: 26842 
    5500    40.431326      134          134            0 1.3328837e-13            0          0.1 0.0090047908   0.17175433  0.029892024 
number of iterations: 26945 
    5600    41.106322      136          136            0 1.3588651e-13            0          0.1 0.0090048842   0.17687034  0.029891868 
number of iterations: 27048 
    5700    41.846544      139          139            0 1.385353e-13            0          0.1 0.0090049794   0.18208607  0.029891709 
number of iterations: 27151 
    5800    42.501504      139          139            0 1.4123572e-13            0          0.1 0.0090050764   0.18740346  0.029891548 
number of iterations: 27837 
    5900     43.17845      142          142            0 1.4398878e-13            0          0.1 0.0090051855   0.19282451  0.029891366 
number of iterations: 27109 
    6000    43.841976      143          143            0 1.4679551e-13            0          0.1 0.0090052828   0.19835123  0.029891204 
number of iterations: 27473 
    6100    44.521035      144          144            0 1.4965694e-13            0          0.1 0.0090053858   0.20398568  0.029891033 
number of iterations: 27565 
    6200    45.152598      147          147            0 1.5257415e-13            0          0.1 0.0090054908   0.20972996  0.029890858 
number of iterations: 27166 
    6300    45.810815      151          151            0 1.5554823e-13            0          0.1 0.0090055877    0.2155862  0.029890696 
number of iterations: 28282 
    6400    46.548349      154          154            0 1.5858028e-13            0          0.1 0.0090057064   0.22155659  0.029890499 
number of iterations: 27884 
    6500    47.274285      156          156            0 1.6167143e-13            0          0.1 0.0090058176   0.22764335  0.029890314 
number of iterations: 28198 
    6600    48.059252      157          157            0 1.6482283e-13            0          0.1 0.0090059346   0.23384875  0.029890119 
number of iterations: 28092 
    6700    48.733818      160          160            0 1.6803567e-13            0          0.1 0.0090060503   0.24017511  0.029889926 
number of iterations: 28463 
    6800    49.422917      167          167            0 1.7131113e-13            0          0.1 0.0090061733   0.24662478  0.029889721 
number of iterations: 28024 
    6900    50.102022      168          168            0 1.7465044e-13            0          0.1 0.0090062885   0.25320017   0.02988953 
number of iterations: 28401 
    7000    50.793236      170          170            0 1.7805484e-13            0          0.1 0.0090064111   0.25990373  0.029889326 
number of iterations: 28504 
    7100    51.487054      174          174            0 1.815256e-13            0          0.1 0.0090065361   0.26673795  0.029889117 
number of iterations: 28608 
    7200    52.167793      178          178            0 1.8506402e-13            0          0.1 0.0090066635    0.2737054  0.029888905 
number of iterations: 28711 
    7300    52.883359      180          180            0 1.886714e-13            0          0.1 0.0090067934   0.28080866  0.029888689 
number of iterations: 28816 
    7400    53.594574      182          182            0 1.9234911e-13            0          0.1 0.0090069258   0.28805037  0.029888468 
number of iterations: 28918 
    7500    54.297297      190          190            0 1.960985e-13            0          0.1 0.0090070608   0.29543324  0.029888244 
number of iterations: 29022 
    7600    55.012599      195          195            0 1.9992098e-13            0          0.1 0.0090071984   0.30296002  0.029888015 
number of iterations: 29627 
    7700    55.730974      199          199            0 2.0381797e-13            0          0.1 0.0090073512   0.31063351   0.02988776 
number of iterations: 29972 
    7800    56.447671      202          202            0 2.0779092e-13            0          0.1 0.0090075144   0.31845653  0.029887488 
number of iterations: 28795 
    7900    57.156641      208          208            0 2.1184132e-13            0          0.1 0.0090076459   0.32643202   0.02988727 
number of iterations: 29565 
    8000    57.897663      213          213            0 2.1597066e-13            0          0.1 0.0090077975   0.33456297  0.029887017 
number of iterations: 29555 
    8100     58.69869      215          215            0 2.201805e-13            0          0.1 0.0090079495   0.34285241  0.029886764 
number of iterations: 29661 
    8200    59.412856      219          219            0 2.244724e-13            0          0.1 0.0090081045   0.35130343  0.029886506 
number of iterations: 29699 
    8300    60.117422      228          228            0 2.2884796e-13            0          0.1 0.0090082614   0.35991919  0.029886245 
number of iterations: 29512 
    8400    60.829302      232          232            0 2.3330881e-13            0          0.1 0.0090084121   0.36870289  0.029885994 
number of iterations: 29961 
    8500    61.560232      236          236            0 2.3785662e-13            0          0.1  0.009008576    0.3776578  0.029885721 
number of iterations: 29643 
    8600    62.289727      242          242            0 2.4249307e-13            0          0.1 0.0090087327   0.38678727   0.02988546 
number of iterations: 29887 
    8700    63.074795      250          250            0 2.472199e-13            0          0.1 0.0090088964   0.39609477  0.029885187 
number of iterations: 30496 
    8800    63.851477      253          253            0 2.5203887e-13            0          0.1 0.0090090763   0.40558368  0.029884888 
number of iterations: 30365 
    8900     64.60297      256          256            0 2.5695177e-13            0          0.1 0.0090092532   0.41525756  0.029884593 
number of iterations: 30387 
    9000    65.361282      258          258            0 2.6196043e-13            0          0.1  0.009009431      0.42512  0.029884297 
number of iterations: 30572 
    9100    66.155956      265          265            0 2.6706673e-13            0          0.1 0.0090096149   0.43517468  0.029883991 
number of iterations: 30676 
    9200    66.889201      270          270            0 2.7227256e-13            0          0.1 0.0090098023   0.44542536  0.029883679 
number of iterations: 30779 
    9300    67.729073      275          275            0 2.7757987e-13            0          0.1 0.0090099934   0.45587585  0.029883361 
number of iterations: 31301 
    9400    68.498893      278          278            0 2.8299063e-13            0          0.1 0.0090102013   0.46653002  0.029883014 
number of iterations: 30994 
    9500    69.271007      284          284            0 2.8850686e-13            0          0.1 0.0090104002   0.47739187  0.029882683 
number of iterations: 30867 
    9600    70.150005      292          292            0 2.9413062e-13            0          0.1 0.0090105959   0.48846541  0.029882357 
number of iterations: 31062 
    9700    70.968704      295          295            0  2.99864e-13            0          0.1 0.0090107985   0.49975482   0.02988202 
number of iterations: 31006 
    9800    71.788798      301          301            0 3.0570913e-13            0          0.1  0.009010999   0.51126428  0.029881686 
number of iterations: 31396 
    9900    72.706341      305          305            0 3.1166821e-13            0          0.1 0.0090112134   0.52299809  0.029881329 
number of iterations: 31499 
   10000    73.645752      310          310            0 3.1774344e-13            0          0.1  0.009011432   0.53496062  0.029880965 
Loop time of 73.6458 on 8 procs for 10000 steps with 310 atoms

Performance: 117318298.792 tau/day, 135.785 timesteps/s
87.7% CPU use with 8 MPI tasks x no OpenMP threads

MPI task timing breakdown:
Section |  min time  |  avg time  |  max time  |%varavg| %total
---------------------------------------------------------------
Pair    | 0.0092849  | 0.011829   | 0.014298   |   1.4 |  0.02
Neigh   | 0.0073973  | 0.0089856  | 0.010204   |   1.1 |  0.01
Comm    | 0.033597   | 0.047804   | 0.067146   |   5.2 |  0.06
Output  | 13.725     | 13.725     | 13.728     |   0.0 | 18.64
Modify  | 59.771     | 59.775     | 59.779     |   0.0 | 81.17
Other   |            | 0.077      |            |       |  0.10

Nlocal:    38.75 ave 58 max 14 min
Histogram: 1 0 1 0 1 2 1 0 0 2
Nghost:    7.375 ave 16 max 1 min
Histogram: 1 1 2 0 1 0 1 1 0 1
Neighs:    48.125 ave 75 max 15 min
Histogram: 1 0 0 2 0 1 2 0 0 2

Total # of neighbors = 385
Ave neighs/atom = 1.24194
Neighbor list builds = 118
Dangerous builds = 0
Total wall time: 0:01:13
