 NUFEB Simulation

     100 atoms 
     2 atom types 
     4 nutrients 

  0.0e-4   1.00e-04  xlo xhi 
  0.0e-4   1.00e-04  ylo yhi 
  0.0e-4   1.00e-05  zlo zhi 

 Atoms 

     1 1 1.80e-06  370 5.30e-05 9.00e-05 7.79e-06 1.80e-06 
     2 1 1.58e-06  370 1.56e-05 8.44e-05 6.34e-06 1.58e-06 
     3 1 1.88e-06  370 8.78e-05 3.22e-05 6.75e-06 1.88e-06 
     4 1 1.69e-06  370 3.08e-05 7.22e-05 3.42e-06 1.69e-06 
     5 1 1.80e-06  370 3.08e-05 8.23e-05 6.62e-06 1.80e-06 
     6 1 1.55e-06  370 2.42e-06 2.44e-05 7.38e-06 1.55e-06 
     7 1 1.91e-06  370 7.67e-05 7.90e-05 5.41e-06 1.91e-06 
     8 1 1.81e-06  370 9.53e-05 3.39e-05 7.86e-06 1.81e-06 
     9 1 1.49e-06  370 7.07e-05 2.53e-05 3.14e-06 1.49e-06 
     10 1 1.87e-06  370 1.66e-05 4.04e-05 7.43e-06 1.87e-06 
     11 1 1.50e-06  370 2.46e-05 6.91e-05 7.82e-06 1.50e-06 
     12 1 1.65e-06  370 5.89e-06 7.71e-05 7.69e-06 1.65e-06 
     13 1 1.89e-06  370 3.05e-05 5.31e-05 4.09e-06 1.89e-06 
     14 1 1.84e-06  370 1.70e-05 5.48e-05 6.39e-06 1.84e-06 
     15 1 1.59e-06  370 3.13e-05 1.36e-05 7.01e-06 1.59e-06 
     16 1 1.85e-06  370 2.27e-05 4.82e-05 6.18e-06 1.85e-06 
     17 1 1.79e-06  370 8.82e-05 2.15e-05 5.60e-06 1.79e-06 
     18 1 1.53e-06  370 7.54e-05 3.84e-05 3.26e-06 1.53e-06 
     19 1 1.43e-06  370 7.15e-05 7.28e-05 6.11e-06 1.43e-06 
     20 1 1.47e-06  370 9.81e-05 4.09e-05 7.23e-06 1.47e-06 
     21 1 1.89e-06  370 4.57e-05 7.58e-05 6.68e-06 1.89e-06 
     22 1 1.86e-06  370 2.13e-05 7.70e-05 3.32e-06 1.86e-06 
     23 1 1.64e-06  370 9.76e-05 6.77e-05 2.37e-06 1.64e-06 
     24 1 1.37e-06  370 9.09e-05 6.54e-05 4.75e-06 1.37e-06 
     25 1 1.47e-06  370 9.24e-05 8.20e-06 6.95e-06 1.47e-06 
     26 1 1.65e-06  370 7.43e-05 5.53e-05 5.84e-06 1.65e-06 
     27 1 1.53e-06  370 3.32e-05 4.80e-05 2.44e-06 1.53e-06 
     28 1 1.89e-06  370 9.39e-05 6.71e-05 6.31e-06 1.89e-06 
     29 1 1.55e-06  370 8.41e-05 3.19e-05 3.40e-06 1.55e-06 
     30 1 1.48e-06  370 5.54e-05 7.67e-05 6.96e-06 1.48e-06 
     31 1 1.82e-06  370 2.49e-06 4.82e-05 4.63e-06 1.82e-06 
     32 1 1.42e-06  370 5.50e-05 2.96e-05 8.10e-06 1.42e-06 
     33 1 1.80e-06  370 6.42e-05 5.77e-05 4.96e-06 1.80e-06 
     34 1 1.70e-06  370 5.93e-05 3.09e-05 5.93e-06 1.70e-06 
     35 1 1.49e-06  370 7.97e-06 6.51e-05 6.24e-06 1.49e-06 
     36 1 1.69e-06  370 2.65e-05 5.75e-05 4.67e-06 1.69e-06 
     37 1 1.47e-06  370 2.27e-05 4.96e-05 6.59e-06 1.47e-06 
     38 1 1.78e-06  370 7.72e-05 1.15e-05 6.43e-06 1.78e-06 
     39 1 1.39e-06  370 7.41e-06 6.90e-05 7.40e-06 1.39e-06 
     40 1 1.70e-06  370 7.48e-05 7.38e-05 5.98e-06 1.70e-06 
     41 1 1.53e-06  370 4.27e-06 3.69e-05 4.83e-06 1.53e-06 
     42 1 1.80e-06  370 8.22e-05 7.22e-05 5.27e-06 1.80e-06 
     43 1 1.58e-06  370 2.25e-06 8.12e-05 1.73e-06 1.58e-06 
     44 1 1.69e-06  370 5.86e-05 2.20e-05 3.68e-06 1.69e-06 
     45 1 1.52e-06  370 4.56e-05 7.74e-05 7.61e-06 1.52e-06 
     46 1 1.51e-06  370 2.00e-05 8.96e-05 7.41e-06 1.51e-06 
     47 1 1.41e-06  370 1.48e-05 5.17e-05 2.80e-06 1.41e-06 
     48 1 1.46e-06  370 5.10e-05 3.94e-05 4.75e-06 1.46e-06 
     49 1 1.47e-06  370 1.57e-05 3.90e-05 2.43e-06 1.47e-06 
     50 1 1.65e-06  370 1.72e-05 3.25e-05 2.48e-06 1.65e-06 
     51 2 9.99e-07  230 4.55e-05 7.67e-05 4.92e-06 9.99e-07 
     52 2 1.11e-06  230 4.25e-05 9.05e-05 4.38e-06 1.11e-06 
     53 2 1.36e-06  230 8.93e-05 8.03e-05 8.24e-06 1.36e-06 
     54 2 1.05e-06  230 3.85e-05 4.45e-05 2.42e-06 1.05e-06 
     55 2 1.20e-06  230 1.75e-05 6.20e-05 5.74e-06 1.20e-06 
     56 2 1.09e-06  230 6.92e-05 4.63e-05 4.83e-06 1.09e-06 
     57 2 1.35e-06  230 8.23e-06 4.00e-06 7.75e-06 1.35e-06 
     58 2 9.94e-07  230 9.13e-05 3.62e-05 7.44e-06 9.94e-07 
     59 2 1.16e-06  230 1.40e-05 7.32e-05 6.08e-06 1.16e-06 
     60 2 1.34e-06  230 9.61e-05 2.20e-06 2.11e-06 1.34e-06 
     61 2 1.32e-06  230 7.41e-05 6.05e-05 2.72e-06 1.32e-06 
     62 2 1.38e-06  230 1.58e-05 2.91e-05 2.49e-06 1.38e-06 
     63 2 1.32e-06  230 3.46e-05 3.57e-05 1.93e-06 1.32e-06 
     64 2 9.09e-07  230 9.05e-06 8.49e-05 2.96e-06 9.09e-07 
     65 2 1.28e-06  230 8.35e-05 6.65e-05 1.53e-06 1.28e-06 
     66 2 1.39e-06  230 1.19e-05 4.70e-05 5.80e-06 1.39e-06 
     67 2 1.09e-06  230 1.89e-05 1.85e-05 7.19e-06 1.09e-06 
     68 2 9.19e-07  230 1.14e-05 5.33e-05 6.30e-06 9.19e-07 
     69 2 1.04e-06  230 2.23e-05 8.10e-05 8.44e-06 1.04e-06 
     70 2 8.91e-07  230 8.48e-05 5.56e-05 1.47e-06 8.91e-07 
     71 2 9.07e-07  230 7.60e-05 7.95e-05 1.60e-06 9.07e-07 
     72 2 1.03e-06  230 2.87e-05 2.88e-05 6.76e-06 1.03e-06 
     73 2 9.95e-07  230 5.51e-05 7.15e-05 7.86e-06 9.95e-07 
     74 2 1.29e-06  230 8.22e-05 4.14e-05 1.80e-06 1.29e-06 
     75 2 1.22e-06  230 5.62e-05 5.08e-05 6.89e-06 1.22e-06 
     76 2 1.22e-06  230 2.44e-05 2.30e-05 1.89e-06 1.22e-06 
     77 2 1.11e-06  230 8.55e-05 9.62e-05 2.13e-06 1.11e-06 
     78 2 1.36e-06  230 4.14e-05 5.41e-05 3.37e-06 1.36e-06 
     79 2 1.25e-06  230 2.11e-05 7.46e-05 3.75e-06 1.25e-06 
     80 2 1.26e-06  230 5.85e-05 2.53e-05 4.58e-06 1.26e-06 
     81 2 9.05e-07  230 4.87e-05 2.68e-05 5.41e-06 9.05e-07 
     82 2 1.06e-06  230 1.62e-05 5.76e-05 8.68e-06 1.06e-06 
     83 2 1.35e-06  230 9.71e-05 8.45e-05 3.36e-06 1.35e-06 
     84 2 1.20e-06  230 6.26e-05 6.79e-05 2.86e-06 1.20e-06 
     85 2 1.08e-06  230 2.79e-05 6.20e-05 3.15e-06 1.08e-06 
     86 2 1.12e-06  230 6.76e-05 4.60e-05 6.21e-06 1.12e-06 
     87 2 1.33e-06  230 6.51e-05 5.72e-06 5.30e-06 1.33e-06 
     88 2 1.18e-06  230 1.93e-06 7.12e-05 7.21e-06 1.18e-06 
     89 2 9.69e-07  230 7.27e-05 4.51e-05 6.45e-06 9.69e-07 
     90 2 1.32e-06  230 3.72e-05 9.80e-06 2.32e-06 1.32e-06 
     91 2 1.11e-06  230 1.87e-05 1.26e-06 4.34e-06 1.11e-06 
     92 2 1.25e-06  230 3.90e-05 4.58e-05 4.72e-06 1.25e-06 
     93 2 9.70e-07  230 3.79e-05 6.30e-05 8.28e-06 9.70e-07 
     94 2 1.05e-06  230 4.34e-05 3.00e-05 6.25e-06 1.05e-06 
     95 2 9.88e-07  230 3.33e-05 5.12e-05 8.06e-06 9.88e-07 
     96 2 1.06e-06  230 4.31e-05 9.76e-05 3.01e-06 1.06e-06 
     97 2 1.30e-06  230 4.04e-05 5.48e-05 5.97e-06 1.30e-06 
     98 2 1.24e-06  230 2.36e-05 4.19e-06 7.07e-06 1.24e-06 
     99 2 1.27e-06  230 9.55e-05 3.03e-05 2.89e-06 1.27e-06 
     100 2 1.20e-06  230 8.34e-05 2.02e-05 3.99e-06 1.20e-06 

 Nutrients 

     1 sub g nn nn nn 1.00e-01 1.00e-01 
     2 o2 l nn nn nd 9.00e-03 9.00e-03 
     3 suc l nn nn nn 3.42e-20 3.42e-20 
     4 co2 l nn nn nd 2.99e-02 2.99e-02 

 Type Name 

     1 cyano  
     2 ecw  

 Diffusion Coeffs 

     sub 0 
     o2 2.3e-09 
     suc 5.2e-10 
     co2 1.9e-09 

 Growth Rate 

     cyano 1.67e-05 
     ecw 1.8e-05 

 Ks 

     cyano 0.00035 0.0002 0.01 0.000138 
     ecw 0 0.001 3.6 0.05 

 Yield 

     cyano 0.55 
     ecw 0.43 

 Maintenance 

     cyano 0 
     ecw 9.5e-07 

 Decay 

     cyano 0 
     ecw 0 



