LAMMPS (20 Nov 2019)
Reading data file ...
  orthogonal box = (0 0 0) to (0.0001 0.0001 1e-05)
  8 by 4 by 1 MPI processor grid
  reading atoms ...
  100 atoms
  4 nutrients
Lattice spacing in x,y,z = 100 100 100
50 atoms in group CYANO
50 atoms in group ECW
Model is defined as a closed system. 
Neighbor list info ...
  update every 1 steps, delay 0 steps, check yes
  max neighbors/atom: 5000, page size: 100000
  master list distance cutoff = 2.41e-06
  ghost atom cutoff = 2.41e-06
  binsize = 1.205e-06, bins = 83 83 9
  1 neighbor lists, perpetual/occasional/extra = 1 0 0
  (1) pair gran/hooke/history, perpetual
      attributes: half, newton off, size, history
      pair build: half/size/bin/newtoff
      stencil: half/bin/3d/newtoff
      bin: standard
Setting up Verlet run ...
  Unit style    : lj
  Current step  : 0
  Time step     : 10
Per MPI rank memory allocation (min/avg/max) = 5.795 | 10.48 | 12.11 Mbytes
Step CPU Atoms c_myNtypes[1] c_myNtypes[2] c_myMass[1] c_myMass[2] c_myCon[1] c_myCon[2] c_myCon[3] c_myCon[4] 
       0            0      100           50           50 4.4211638e-14 9.7536398e-15          0.1        0.009     3.42e-20       0.0299 
number of iterations: 324664 
     100    15.718427      138           50           88 4.479754e-14 9.7468443e-15          0.1  0.009000707  0.035522715  0.029898822 
number of iterations: 4978 
     200    16.099255      157           50          107 4.5391207e-14 9.7415545e-15          0.1 0.0090007163  0.070368796  0.029898807 
number of iterations: 2713 
     300    16.369421      157           50          107 4.5992741e-14 9.7377531e-15          0.1 0.0090007257   0.10563682  0.029898791 
number of iterations: 2157 
     400    16.633104      157           50          107 4.6602247e-14 9.7354177e-15          0.1 0.0090007352    0.1413382  0.029898775 
number of iterations: 1853 
     500    16.868608      157           50          107 4.721983e-14 9.734535e-15          0.1 0.0090007448   0.17747999  0.029898759 
number of iterations: 1648 
     600    17.085834      157           50          107 4.7845597e-14 9.7350934e-15          0.1 0.0090007546    0.2140689  0.029898742 
number of iterations: 1497 
     700    17.281277      158           51          107 4.8479657e-14 9.7370826e-15          0.1 0.0090007646   0.25111162  0.029898726 
number of iterations: 1408 
     800    17.478477      158           51          107 4.912212e-14 9.7404928e-15          0.1 0.0090007746   0.28861482  0.029898709 
number of iterations: 1410 
     900    17.688375      158           51          107 4.9773097e-14 9.7453152e-15          0.1 0.0090007848   0.32658525  0.029898692 
number of iterations: 1615 
    1000    17.919919      161           54          107 5.0432701e-14 9.7515397e-15          0.1 0.0090008025   0.36502959  0.029898662 
number of iterations: 1417 
    1100    18.154723      162           55          107 5.1101046e-14 9.7591605e-15          0.1  0.009000813    0.4039547  0.029898645 
number of iterations: 1398 
    1200    18.352376      164           56          108 5.1778248e-14 9.7681704e-15          0.1 0.0090008142   0.44336767  0.029898643 
number of iterations: 1419 
    1300    18.550411      165           57          108 5.2464424e-14 9.7785635e-15          0.1 0.0090008249   0.48327551  0.029898625 
number of iterations: 1422 
    1400    18.743768      165           57          108 5.3159694e-14 9.7903343e-15          0.1 0.0090008357   0.52368529  0.029898607 
number of iterations: 1570 
    1500    18.934233      166           58          108 5.3864178e-14 9.8034762e-15          0.1 0.0090008512   0.56460423  0.029898581 
number of iterations: 1599 
    1600    19.134129      167           59          108 5.4577997e-14 9.8179854e-15          0.1 0.0090008668   0.60603955  0.029898555 
number of iterations: 1436 
    1700      19.3154      167           59          108 5.5301277e-14 9.8338584e-15          0.1 0.0090008782    0.6479986  0.029898536 
number of iterations: 1436 
    1800    19.498126      168           60          108 5.6034141e-14 9.8510912e-15          0.1 0.0090008898   0.69048878  0.029898516 
number of iterations: 1442 
    1900    19.829092      168           60          108 5.6776718e-14 9.8696816e-15          0.1 0.0090009015   0.73351761  0.029898497 
number of iterations: 1448 
    2000    20.036825      170           61          109 5.7529135e-14 9.8896267e-15          0.1 0.0090009081   0.77709266  0.029898486 
number of iterations: 1449 
    2100     20.22662      174           65          109 5.8291523e-14 9.9109247e-15          0.1 0.0090009147    0.8212216  0.029898474 
number of iterations: 1499 
    2200    20.414651      175           66          109 5.9064015e-14 9.9335746e-15          0.1 0.0090009228   0.86591235  0.029898461 
number of iterations: 1626 
    2300    20.599501      178           67          111 5.9846744e-14 9.9575761e-15          0.1 0.0090009393   0.91117263  0.029898433 
number of iterations: 1455 
    2400     20.77845      178           67          111 6.0639846e-14 9.9829289e-15          0.1 0.0090009517    0.9570104  0.029898413 
number of iterations: 1458 
    2500    21.010414      178           67          111 6.1443459e-14 1.0009633e-14          0.1 0.0090009642    1.0034337  0.029898392 
number of iterations: 1461 
    2600    21.182107      178           67          111 6.2257721e-14 1.0037689e-14          0.1  0.009000977    1.0504507   0.02989837 
number of iterations: 1464 
    2700    21.368034      178           67          111 6.3082773e-14 1.0067098e-14          0.1 0.0090009899    1.0980696  0.029898349 
number of iterations: 1621 
    2800    21.557963      179           67          112 6.391876e-14 1.0097862e-14          0.1 0.0090010062    1.1462988  0.029898321 
number of iterations: 1472 
    2900    21.750524      180           67          113 6.4765825e-14 1.0129982e-14          0.1 0.0090010195    1.1951466  0.029898299 
number of iterations: 1475 
    3000    21.936797      180           67          113 6.5624115e-14 1.0163461e-14          0.1  0.009001033    1.2446218  0.029898277 
number of iterations: 1611 
    3100    22.155197      181           67          114 6.649378e-14 1.0198302e-14          0.1 0.0090010516    1.2947328  0.029898245 
number of iterations: 1481 
    3200    22.352161      181           67          114 6.737497e-14 1.0234508e-14          0.1 0.0090010655    1.3454885  0.029898222 
number of iterations: 1484 
    3300     22.53617      181           67          114 6.8267837e-14 1.0272083e-14          0.1 0.0090010796    1.3968977  0.029898199 
number of iterations: 1481 
    3400    22.719088      183           69          114 6.9172537e-14 1.0311031e-14          0.1 0.0090010859    1.4489694  0.029898188 
number of iterations: 1495 
    3500    22.916668      187           72          115 7.0089226e-14 1.0351357e-14          0.1 0.0090010976    1.5017127  0.029898169 
number of iterations: 1492 
    3600    23.093096      187           72          115 7.1018063e-14 1.0393065e-14          0.1 0.0090011121    1.5551367  0.029898144 
number of iterations: 1495 
    3700    23.266706      187           72          115 7.195921e-14 1.0436162e-14          0.1 0.0090011267    1.6092508   0.02989812 
number of iterations: 1498 
    3800    23.481758      187           72          115 7.2912828e-14 1.0480653e-14          0.1 0.0090011416    1.6640644  0.029898095 
number of iterations: 1525 
    3900    23.680707      188           72          116 7.3879085e-14 1.0526546e-14          0.1 0.0090011567     1.719587   0.02989807 
number of iterations: 1504 
    4000    23.889751      188           72          116 7.4858146e-14 1.0573846e-14          0.1  0.009001172    1.7758283  0.029898044 
number of iterations: 1491 
    4100    24.101438      192           75          117 7.5850182e-14 1.0622562e-14          0.1 0.0090011791    1.8327983  0.029898032 
number of iterations: 1546 
    4200    24.282168      194           76          118 7.6855365e-14 1.0672706e-14          0.1 0.0090011962    1.8905064  0.029898004 
number of iterations: 1509 
    4300    24.480331      195           76          119 7.7873868e-14 1.0724279e-14          0.1  0.009001212     1.948963  0.029897977 
number of iterations: 1512 
    4400    24.818832      195           76          119 7.8905869e-14 1.0777291e-14          0.1  0.009001228     2.008178   0.02989795 
number of iterations: 1515 
    4500    25.028163      195           76          119 7.9951546e-14 1.0831751e-14          0.1 0.0090012443     2.068162  0.029897923 
number of iterations: 1518 
    4600    25.203874      197           76          121 8.1011081e-14 1.0887667e-14          0.1 0.0090012607    2.1289248  0.029897896 
number of iterations: 1521 
    4700     25.38091      197           76          121 8.2084657e-14 1.094505e-14          0.1 0.0090012774    2.1904774  0.029897868 
number of iterations: 1523 
    4800    25.556618      197           76          121 8.317246e-14 1.1003909e-14          0.1 0.0090012943    2.2528305   0.02989784 
number of iterations: 1530 
    4900    25.744331      199           77          122 8.4274678e-14 1.1064254e-14          0.1 0.0090013114    2.3159949  0.029897811 
number of iterations: 1461 
    5000    25.968276      200           77          123 8.5391504e-14 1.1126096e-14          0.1 0.0090013244    2.3799816  0.029897789 
number of iterations: 1617 
    5100    26.172303      203           79          124 8.652313e-14 1.1189449e-14          0.1  0.009001345    2.4448015  0.029897755 
number of iterations: 1533 
    5200    26.361381      205           79          126 8.7669753e-14 1.1254322e-14          0.1 0.0090013628    2.5104659  0.029897725 
number of iterations: 1536 
    5300     26.54761      205           79          126 8.8831571e-14 1.1320727e-14          0.1 0.0090013809    2.5769862  0.029897695 
number of iterations: 1539 
    5400    26.741848      206           79          127 9.0008785e-14 1.1388677e-14          0.1 0.0090013991    2.6443738  0.029897664 
number of iterations: 1543 
    5500    26.935928      209           81          128  9.12016e-14 1.1458184e-14          0.1 0.0090014176    2.7126405  0.029897634 
number of iterations: 1544 
    5600    27.129497      209           81          128 9.2410223e-14 1.1529262e-14          0.1 0.0090014364     2.781798  0.029897602 
number of iterations: 1547 
    5700    27.326161      210           82          128 9.3634862e-14 1.1601925e-14          0.1 0.0090014554    2.8518584   0.02989757 
number of iterations: 1582 
    5800    27.511516      213           85          128 9.4875731e-14 1.1676188e-14          0.1 0.0090014761    2.9228336  0.029897536 
number of iterations: 1493 
    5900    27.689494      218           89          129 9.6133043e-14 1.1752061e-14          0.1 0.0090014873    2.9947361  0.029897517 
number of iterations: 1697 
    6000    27.897965      221           90          131 9.7407018e-14 1.1829566e-14          0.1 0.0090015154    3.0675782   0.02989747 
number of iterations: 1652 
    6100    28.091737      223           92          131 9.8697876e-14 1.1908713e-14          0.1 0.0090015399    3.1413723  0.029897429 
number of iterations: 1496 
    6200    28.265571      224           93          131 1.0000584e-13 1.1989519e-14          0.1 0.0090015554    3.2161313  0.029897403 
number of iterations: 1602 
    6300    28.476583      225           94          131 1.0133114e-13   1.2072e-14          0.1 0.0090015775    3.2918683  0.029897366 
number of iterations: 1687 
    6400     28.67766      230           98          132  1.02674e-13 1.2156175e-14          0.1 0.0090016068    3.3685964  0.029897317 
number of iterations: 1480 
    6500    28.890368      232           99          133 1.0403466e-13 1.2242058e-14          0.1  0.009001621    3.4463288  0.029897294 
number of iterations: 1527 
    6600     29.06799      238          103          135 1.0541335e-13 1.2329669e-14          0.1 0.0090016311    3.5250788  0.029897277 
number of iterations: 1617 
    6700    29.252301      244          108          136 1.068103e-13 1.2419022e-14          0.1 0.0090016436    3.6048602  0.029897256 
number of iterations: 1605 
    6800     29.45024      246          110          136 1.0822578e-13 1.251014e-14          0.1 0.0090016686    3.6856867  0.029897214 
number of iterations: 1591 
    6900    29.799059      248          112          136 1.0966001e-13 1.2603039e-14          0.1 0.0090016854    3.7675724  0.029897186 
number of iterations: 1630 
    7000    29.996602      255          117          138 1.1111324e-13 1.269774e-14          0.1 0.0090017129    3.8505314   0.02989714 
number of iterations: 1657 
    7100    30.207834      259          119          140 1.1258574e-13 1.279426e-14          0.1 0.0090017314    3.9345775  0.029897109 
number of iterations: 1675 
    7200    30.404509      261          120          141 1.1407775e-13 1.289262e-14          0.1 0.0090017587    4.0197255  0.029897063 
number of iterations: 1688 
    7300    30.619308      263          122          141 1.1558953e-13 1.299284e-14          0.1 0.0090017864    4.1059898  0.029897017 
number of iterations: 1599 
    7400    30.903161      264          122          142 1.1712135e-13 1.3094942e-14          0.1 0.0090018101    4.1933855  0.029896978 
number of iterations: 1619 
    7500    31.097667      267          124          143 1.1867346e-13 1.3198945e-14          0.1 0.0090018394    4.2819278  0.029896929 
number of iterations: 1604 
    7600    31.285337      270          125          145 1.2024615e-13 1.3304872e-14          0.1 0.0090018638    4.3716317  0.029896888 
number of iterations: 1679 
    7700    31.481993      275          130          145 1.2183967e-13 1.3412746e-14          0.1 0.0090018952    4.4625128  0.029896835 
number of iterations: 1674 
    7800    31.671738      276          131          145 1.2345432e-13 1.3522586e-14          0.1 0.0090019089    4.5545869  0.029896812 
number of iterations: 1611 
    7900    31.857626      276          131          145 1.2509036e-13 1.363442e-14          0.1 0.0090019341    4.6478697   0.02989677 
number of iterations: 1612 
    8000    32.041625      278          133          145 1.2674808e-13 1.3748272e-14          0.1 0.0090019597    4.7423776  0.029896727 
number of iterations: 1677 
    8100    32.244454      278          133          145 1.2842778e-13 1.3864165e-14          0.1 0.0090019901    4.8381266  0.029896677 
number of iterations: 1661 
    8200    32.431088      279          133          146 1.3012973e-13 1.3982123e-14          0.1 0.0090020181    4.9351333   0.02989663 
number of iterations: 1622 
    8300     32.62942      283          136          147 1.3185423e-13 1.4102174e-14          0.1 0.0090020409    5.0334142  0.029896592 
number of iterations: 1667 
    8400    32.809469      287          138          149 1.3360159e-13 1.422434e-14          0.1 0.0090020717    5.1329863   0.02989654 
number of iterations: 1684 
    8500    33.012569      290          139          151 1.3537211e-13 1.4348653e-14          0.1 0.0090021044    5.2338667  0.029896486 
number of iterations: 1559 
    8600    33.192713      290          139          151 1.3716608e-13 1.4475135e-14          0.1 0.0090021282    5.3360729  0.029896446 
number of iterations: 1628 
    8700    33.418781      290          139          151 1.3898384e-13 1.4603814e-14          0.1 0.0090021564    5.4396225  0.029896399 
number of iterations: 1637 
    8800    33.599165      292          139          153 1.4082568e-13 1.4734717e-14          0.1 0.0090021785    5.5445331  0.029896362 
number of iterations: 1639 
    8900    33.782931      293          139          154 1.4269193e-13 1.4867874e-14          0.1 0.0090022073     5.650823  0.029896314 
number of iterations: 1568 
    9000    33.962985      297          141          156 1.4458291e-13 1.5003313e-14          0.1 0.0090022311    5.7585103  0.029896274 
number of iterations: 1611 
    9100    34.180709      302          146          156 1.4649895e-13 1.5141062e-14          0.1 0.0090022606    5.8676138  0.029896225 
number of iterations: 1675 
    9200    34.371187      305          148          157 1.4844038e-13 1.528115e-14          0.1 0.0090022964     5.978152  0.029896165 
number of iterations: 1647 
    9300    34.562362      306          148          158 1.5040755e-13 1.542361e-14          0.1 0.0090023241    6.0901441  0.029896119 
number of iterations: 1653 
    9400     34.75928      306          148          158 1.5240078e-13 1.5568472e-14          0.1 0.0090023576    6.2036093  0.029896063 
number of iterations: 1655 
    9500    34.960217      307          148          159 1.5442042e-13 1.5715768e-14          0.1 0.0090023888     6.318567   0.02989601 
number of iterations: 1586 
    9600     35.14171      316          150          166 1.5646683e-13 1.5865529e-14          0.1 0.0090024161    6.4350372  0.029895965 
number of iterations: 1763 
    9700     35.32349      318          151          167 1.5854036e-13 1.6017789e-14          0.1  0.009002454    6.5530398  0.029895902 
number of iterations: 1669 
    9800    35.498959      319          152          167 1.6064137e-13 1.6172583e-14          0.1 0.0090024909     6.672595   0.02989584 
number of iterations: 1630 
    9900    35.700615      323          155          168 1.6277022e-13 1.6329942e-14          0.1   0.00900252    6.7937235  0.029895791 
number of iterations: 1697 
   10000    35.893381      324          155          169 1.6492728e-13  1.64899e-14          0.1 0.0090025534    6.9164461  0.029895736 
number of iterations: 1660 
   10100    36.161429      327          155          172 1.6711293e-13 1.6652495e-14          0.1 0.0090025872    7.0407839  0.029895679 
number of iterations: 1677 
   10200    36.338948      329          155          174 1.6932754e-13 1.6817761e-14          0.1 0.0090026215    7.1667582  0.029895622 
number of iterations: 1693 
   10300    36.543512      331          155          176 1.7157151e-13 1.6985735e-14          0.1 0.0090026562    7.2943906  0.029895564 
number of iterations: 1680 
   10400     36.73557      336          157          179 1.738452e-13 1.7156456e-14          0.1 0.0090026913    7.4237028  0.029895505 
number of iterations: 1674 
   10500    36.914384      340          159          181 1.7614904e-13 1.7329961e-14          0.1 0.0090027255    7.5547172  0.029895448 
number of iterations: 1691 
   10600    37.089801      346          160          186 1.784834e-13 1.7506288e-14          0.1 0.0090027616    7.6874567  0.029895388 
number of iterations: 1704 
   10700     37.28334      354          166          188 1.8084869e-13 1.7685477e-14          0.1 0.0090028013    7.8219438  0.029895321 
number of iterations: 1619 
   10800    37.472492      361          169          192 1.8324533e-13 1.7867566e-14          0.1 0.0090028332    7.9582018  0.029895268 
number of iterations: 1726 
   10900    37.684475      365          171          194 1.8567374e-13 1.8052597e-14          0.1 0.0090028811     8.096254  0.029895188 
number of iterations: 1771 
   11000    37.917704      371          174          197 1.8813432e-13 1.8240607e-14          0.1 0.0090029231    8.2361243  0.029895118 
number of iterations: 1756 
   11100     38.18761      374          177          197 1.9062751e-13 1.8431639e-14          0.1  0.009002969    8.3778367  0.029895041 
number of iterations: 1673 
   11200    38.378406      377          178          199 1.9315374e-13 1.8625737e-14          0.1  0.009003003    8.5214155  0.029894984 
number of iterations: 1678 
   11300     38.57951      385          184          201 1.9571345e-13 1.8822944e-14          0.1 0.0090030411    8.6668854  0.029894921 
number of iterations: 1706 
   11400    38.757786      393          192          201 1.9830709e-13 1.9023304e-14          0.1 0.0090030744    8.8142713  0.029894865 
number of iterations: 1731 
   11500    38.957892      399          196          203 2.0093509e-13 1.9226858e-14          0.1 0.0090031108    8.9635986  0.029894804 
number of iterations: 1825 
   11600    39.153326      408          203          205 2.0359792e-13 1.9433651e-14          0.1 0.0090031562    9.1148935  0.029894728 
number of iterations: 1658 
   11700    39.356479      416          206          210 2.0629604e-13 1.9643731e-14          0.1 0.0090031951    9.2681818  0.029894663 
number of iterations: 1730 
   11800    39.540813      419          208          211 2.0902991e-13 1.9857144e-14          0.1 0.0090032399    9.4234892  0.029894589 
number of iterations: 1635 
   11900    39.727751      425          212          213 2.1180002e-13 2.0073937e-14          0.1 0.0090032717    9.5808427  0.029894535 
number of iterations: 1711 
   12000    39.926167      432          217          215 2.1460683e-13 2.029416e-14          0.1  0.009003307    9.7402692  0.029894476 
number of iterations: 1713 
   12100    40.221689      436          218          218 2.1745084e-13 2.0517859e-14          0.1 0.0090033469    9.9017964   0.02989441 
number of iterations: 1770 
   12200    40.410386      442          222          220 2.2033254e-13 2.0745086e-14          0.1 0.0090033943    10.065452   0.02989433 
number of iterations: 1726 
   12300    40.583992      448          223          225 2.2325243e-13 2.0975891e-14          0.1 0.0090034392    10.231263  0.029894255 
number of iterations: 1796 
   12400    40.779731      456          227          229 2.2621101e-13 2.1210329e-14          0.1 0.0090034994    10.399258  0.029894155 
number of iterations: 1700 
   12500    41.028732      467          235          232 2.2920881e-13 2.1448448e-14          0.1 0.0090035389    10.569467  0.029894089 
number of iterations: 1747 
   12600    41.235201      475          240          235 2.3224632e-13 2.1690306e-14          0.1 0.0090035937    10.741919  0.029893997 
number of iterations: 1831 
   12700    41.423012      487          247          240 2.353241e-13 2.1935953e-14          0.1 0.0090036521    10.916643    0.0298939 
number of iterations: 1776 
   12800    41.615397      491          249          242 2.3844265e-13 2.2185444e-14          0.1 0.0090037065     11.09367  0.029893809 
number of iterations: 1741 
   12900    41.818178      498          252          246 2.4160254e-13 2.2438835e-14          0.1 0.0090037473     11.27303  0.029893741 
number of iterations: 1747 
   13000    42.011039      502          256          246 2.448043e-13 2.2696182e-14          0.1 0.0090037998    11.454753  0.029893653 
number of iterations: 1741 
   13100    42.290583      509          258          251 2.4804849e-13 2.2957544e-14          0.1 0.0090038501    11.638871  0.029893569 
number of iterations: 1752 
   13200    42.499161      513          258          255 2.5133568e-13 2.3222977e-14          0.1 0.0090039011    11.825415  0.029893484 
number of iterations: 1772 
   13300    42.681383      518          262          256 2.5466643e-13 2.3492543e-14          0.1 0.0090039614    12.014418  0.029893383 
number of iterations: 1758 
   13400    42.872911      524          268          256 2.5804131e-13  2.37663e-14          0.1 0.0090040127    12.205911  0.029893297 
number of iterations: 1738 
   13500    43.058557      534          272          262 2.6146092e-13 2.4044311e-14          0.1 0.0090040617    12.399929  0.029893215 
number of iterations: 1709 
   13600    43.252242      537          274          263 2.6492585e-13 2.4326638e-14          0.1 0.0090041103    12.596503  0.029893134 
number of iterations: 1765 
   13700    43.450647      539          274          265 2.684367e-13 2.4613341e-14          0.1 0.0090041648    12.795668  0.029893043 
number of iterations: 1856 
   13800    43.643539      541          276          265 2.7199407e-13 2.4904491e-14          0.1 0.0090042302    12.997458  0.029892934 
number of iterations: 1772 
   13900    43.834069      544          277          267 2.7559858e-13 2.5200152e-14          0.1 0.0090042863    13.201908   0.02989284 
number of iterations: 1733 
   14000     44.04098      551          280          271 2.7925086e-13 2.5500389e-14          0.1 0.0090043343    13.409052   0.02989276 
number of iterations: 1785 
   14100    44.271877      558          285          273 2.8295155e-13 2.5805268e-14          0.1  0.009004392    13.618926  0.029892663 
number of iterations: 1807 
   14200    44.460716      562          286          276 2.8670127e-13 2.6114858e-14          0.1 0.0090044541    13.831566  0.029892559 
number of iterations: 1790 
   14300    44.642407      567          288          279 2.9050069e-13 2.6429232e-14          0.1 0.0090045131    14.047009  0.029892461 
number of iterations: 1791 
   14400    44.838482      571          288          283 2.9435045e-13 2.6748454e-14          0.1 0.0090045727    14.265292  0.029892361 
number of iterations: 1829 
   14500    45.031538      575          291          284 2.9825124e-13 2.7072603e-14          0.1 0.0090046396    14.486452  0.029892249 
number of iterations: 1823 
   14600    45.256687      579          292          287 3.0220372e-13 2.7401749e-14          0.1  0.009004703    14.710526  0.029892143 
number of iterations: 1796 
   14700    45.464515      585          296          289 3.0620857e-13 2.7735967e-14          0.1 0.0090047675    14.937554  0.029892036 
number of iterations: 1800 
   14800    45.661293      588          297          291 3.102665e-13 2.8075331e-14          0.1 0.0090048306    15.167575   0.02989193 
number of iterations: 1711 
   14900    45.862826      593          299          294 3.1437821e-13 2.8419917e-14          0.1 0.0090048847    15.400627   0.02989184 
number of iterations: 1764 
   15000    46.068435      598          300          298 3.185444e-13 2.8769802e-14          0.1 0.0090049446    15.636751   0.02989174 
number of iterations: 1794 
   15100    46.277174      607          304          303 3.2276581e-13 2.9125067e-14          0.1 0.0090050027    15.875986  0.029891642 
number of iterations: 1815 
   15200    46.463227      614          304          310 3.2704316e-13 2.9485791e-14          0.1  0.009005069    16.118375  0.029891532 
number of iterations: 1790 
   15300    46.655167      617          305          312 3.3137719e-13 2.9852056e-14          0.1 0.0090051283    16.363958  0.029891432 
number of iterations: 1793 
   15400    46.847313      632          315          317 3.3576866e-13 3.0223944e-14          0.1 0.0090051765    16.612778  0.029891352 
number of iterations: 1899 
   15500    47.045275      642          320          322 3.4021832e-13 3.0601538e-14          0.1 0.0090052631    16.864878  0.029891207 
number of iterations: 1811 
   15600    47.231905      646          323          323 3.4472695e-13 3.0984925e-14          0.1 0.0090053352    17.120301  0.029891087 
number of iterations: 1806 
   15700    47.437554      655          327          328 3.4929533e-13 3.1374191e-14          0.1 0.0090054048     17.37909   0.02989097 
number of iterations: 1749 
   15800    47.632749      666          331          335 3.5392425e-13 3.1769427e-14          0.1   0.00900546    17.641289  0.029890878 
number of iterations: 1787 
   15900    47.809053      678          339          339 3.5861452e-13 3.217072e-14          0.1 0.0090055173    17.906944  0.029890782 
number of iterations: 1815 
   16000    48.026805      690          348          342 3.6336694e-13 3.2578162e-14          0.1 0.0090055821    18.176101  0.029890674 
number of iterations: 1862 
   16100     48.22386      700          352          348 3.6818234e-13 3.2991845e-14          0.1  0.009005663    18.448806  0.029890538 
number of iterations: 1815 
   16200    48.435463      708          359          349 3.7306155e-13 3.3411861e-14          0.1 0.0090057244    18.725105  0.029890436 
number of iterations: 1871 
   16300    48.634956      720          367          353 3.7800543e-13 3.3838306e-14          0.1 0.0090058025    19.005045  0.029890305 
number of iterations: 1876 
   16400    48.825779      729          372          357 3.8301482e-13 3.4271276e-14          0.1 0.0090058729    19.288675  0.029890187 
number of iterations: 1891 
   16500    49.024223      737          376          361 3.880906e-13 3.4710868e-14          0.1 0.0090059598    19.576044  0.029890042 
number of iterations: 1808 
   16600    49.232488      747          381          366 3.9323364e-13 3.5157187e-14          0.1 0.0090060285      19.8672  0.029889927 
number of iterations: 1838 
   16700    49.426028      760          387          373 3.9844484e-13 3.561033e-14          0.1 0.0090061099    20.162193  0.029889791 
number of iterations: 1882 
   16800    49.663603      773          394          379 4.0372509e-13  3.60704e-14          0.1 0.0090061972    20.461074  0.029889646 
number of iterations: 1878 
   16900    49.875526      784          400          384 4.0907532e-13 3.6537501e-14          0.1 0.0090062807    20.763895  0.029889506 
number of iterations: 1881 
   17000    50.117748      796          408          388 4.1449646e-13 3.7011741e-14          0.1  0.009006376    21.070706  0.029889347 
number of iterations: 1777 
   17100    50.307297      809          415          394 4.1998943e-13 3.7493226e-14          0.1 0.0090064364    21.381561  0.029889246 
number of iterations: 1892 
   17200     50.51667      823          422          401 4.255552e-13 3.7982067e-14          0.1 0.0090065226    21.696513  0.029889101 
number of iterations: 1904 
   17300    50.717594      844          432          412 4.3119473e-13 3.8478372e-14          0.1 0.0090066197    22.015616  0.029888939 
number of iterations: 1905 
   17400    50.973759      859          440          419 4.3690899e-13 3.8982255e-14          0.1 0.0090067314    22.338924  0.029888753 
number of iterations: 1875 
   17500    51.188163      874          446          428 4.4269898e-13 3.9493826e-14          0.1 0.0090068023    22.666493  0.029888634 
number of iterations: 1890 
   17600    51.378106      886          452          434 4.485657e-13 4.0013208e-14          0.1 0.0090069025    22.998379  0.029888467 
number of iterations: 1903 
   17700     51.57472      895          457          438 4.5451016e-13 4.0540518e-14          0.1 0.0090069985    23.334639  0.029888306 
number of iterations: 1961 
   17800    51.785816      909          467          442 4.605334e-13 4.1075876e-14          0.1 0.0090071117     23.67533  0.029888117 
number of iterations: 1911 
   17900    52.035987      928          480          448 4.6663646e-13 4.1619402e-14          0.1 0.0090072056    24.020513   0.02988796 
number of iterations: 1915 
   18000    52.254704      940          483          457 4.728204e-13 4.2171221e-14          0.1 0.0090073056    24.370244  0.029887793 
number of iterations: 1867 
   18100    52.466471      948          488          460 4.790863e-13 4.2731459e-14          0.1 0.0090074002    24.724584  0.029887635 
number of iterations: 1921 
   18200    52.664748      960          494          466 4.8543522e-13 4.3300242e-14          0.1 0.0090075027    25.083594  0.029887463 
number of iterations: 1892 
   18300    52.859019      970          499          471 4.9186829e-13  4.38777e-14          0.1  0.009007595    25.447336  0.029887309 
number of iterations: 1911 
   18400    53.096958      985          508          477 4.983866e-13 4.4463966e-14          0.1 0.0090076838    25.815871  0.029887161 
number of iterations: 1930 
   18500    53.328489      994          511          483 5.049913e-13 4.5059172e-14          0.1 0.0090077946    26.189262  0.029886975 
number of iterations: 1911 
   18600     53.52918     1003          514          489 5.1168352e-13 4.5663452e-14          0.1 0.0090079098    26.567575  0.029886783 
number of iterations: 1895 
   18700    53.744662     1016          518          498 5.1846443e-13 4.6276946e-14          0.1 0.0090080186    26.950871  0.029886601 
number of iterations: 1882 
   18800      53.9439     1027          525          502 5.253352e-13 4.6899796e-14          0.1 0.0090081209    27.339218   0.02988643 
number of iterations: 1904 
   18900    54.215685     1037          532          505 5.3229702e-13 4.7532141e-14          0.1 0.0090082228    27.732682   0.02988626 
number of iterations: 1918 
   19000    54.441661     1048          539          509 5.393511e-13 4.8174124e-14          0.1 0.0090083347     28.13133  0.029886073 
number of iterations: 1938 
   19100     54.75959     1064          544          520 5.4649866e-13 4.8825892e-14          0.1 0.0090084411    28.535232  0.029885895 
number of iterations: 1921 
   19200    54.960195     1076          553          523 5.5374094e-13 4.9487593e-14          0.1 0.0090085615    28.944455  0.029885694 
number of iterations: 1911 
   19300    55.169342     1093          560          533 5.610792e-13 5.0159381e-14          0.1 0.0090086796     29.35907  0.029885496 
number of iterations: 1925 
   19400    55.366606     1099          561          538 5.685147e-13 5.0841405e-14          0.1 0.0090087978    29.779149  0.029885298 
number of iterations: 1933 
   19500    55.569564     1111          568          543 5.7604874e-13 5.1533823e-14          0.1 0.0090089185    30.204763  0.029885097 
number of iterations: 1924 
   19600    55.779582     1125          575          550 5.8368262e-13 5.2236791e-14          0.1  0.009009038    30.635984  0.029884897 
number of iterations: 1917 
   19700    55.986565     1137          579          558 5.9141767e-13 5.2950472e-14          0.1 0.0090091476    31.072887  0.029884714 
number of iterations: 1965 
   19800    56.214081     1151          589          562 5.9925522e-13 5.367503e-14          0.1 0.0090092709    31.515546  0.029884507 
number of iterations: 1945 
   19900    56.436211     1168          596          572 6.0719664e-13 5.441063e-14          0.1 0.0090094019    31.964037  0.029884288 
number of iterations: 1957 
   20000    56.650551     1183          602          581 6.1524329e-13 5.5157435e-14          0.1 0.0090095261    32.418437  0.029884081 
number of iterations: 1935 
   20100    56.863344     1193          603          590 6.2339658e-13 5.591562e-14          0.1  0.009009649    32.878823  0.029883875 
number of iterations: 1941 
   20200    57.067287     1210          611          599 6.3165792e-13 5.6685357e-14          0.1 0.0090097753    33.345274  0.029883664 
number of iterations: 1987 
   20300    57.272456     1228          621          607 6.4002874e-13 5.7466821e-14          0.1 0.0090099194     33.81787  0.029883423 
number of iterations: 1980 
   20400    57.491705     1242          628          614 6.4851049e-13 5.826019e-14          0.1  0.009010055    34.296692  0.029883197 
number of iterations: 1910 
   20500    57.718806     1258          637          621 6.5710464e-13 5.9065648e-14          0.1 0.0090101835    34.781823  0.029882982 
number of iterations: 1908 
   20600    57.958585     1269          641          628 6.6581268e-13 5.9883379e-14          0.1  0.009010303    35.273345  0.029882782 
number of iterations: 1966 
   20700     58.23381     1284          650          634 6.7463611e-13 6.071357e-14          0.1 0.0090104373    35.771342  0.029882557 
number of iterations: 1991 
   20800    58.480943     1300          656          644 6.8357648e-13 6.1556412e-14          0.1 0.0090105788      36.2759  0.029882321 
number of iterations: 1940 
   20900    58.688848     1318          663          655 6.9263533e-13 6.2412096e-14          0.1  0.009010704    36.787105  0.029882111 
number of iterations: 1978 
   21000    58.905269     1332          669          663 7.0181422e-13 6.3280821e-14          0.1 0.0090108532    37.305043  0.029881862 
number of iterations: 1980 
   21100    59.118713     1342          671          671 7.1111475e-13 6.4162783e-14          0.1 0.0090109955    37.829806  0.029881624 
number of iterations: 2035 
   21200     59.34901     1358          679          679 7.2053854e-13 6.5058185e-14          0.1 0.0090111696    38.361482  0.029881333 
number of iterations: 1972 
   21300    59.564859     1376          688          688 7.3008721e-13 6.5967236e-14          0.1 0.0090113278     38.90016  0.029881069 
number of iterations: 1991 
   21400    59.938941     1407          703          704 7.3976241e-13 6.6890139e-14          0.1 0.0090114915    39.445935  0.029880795 
number of iterations: 2029 
   21500    60.163733     1427          718          709 7.4956584e-13 6.7827103e-14          0.1 0.0090116539    39.998899  0.029880523 
number of iterations: 1999 
   21600    60.401333     1459          732          727 7.5949918e-13 6.8778345e-14          0.1 0.0090118059    40.559146  0.029880269 
number of iterations: 1985 
   21700    60.624365     1487          751          736 7.6956415e-13 6.9744084e-14          0.1 0.0090119591    41.126773  0.029880013 
number of iterations: 1961 
   21800     60.86874     1511          763          748 7.7976251e-13 7.072454e-14          0.1 0.0090120932    41.701875  0.029879788 
number of iterations: 1962 
   21900    61.088108     1537          780          757 7.9009602e-13 7.171994e-14          0.1 0.0090122447    42.284552  0.029879535 
number of iterations: 2011 
   22000    61.308348     1569          796          773 8.0056647e-13 7.273051e-14          0.1 0.0090123977    42.874904  0.029879279 
number of iterations: 1991 
   22100    61.513917     1595          808          787 8.1117567e-13 7.3756485e-14          0.1 0.0090125548    43.473031  0.029879016 
number of iterations: 1980 
   22200    61.742561     1625          825          800 8.2192546e-13 7.4798096e-14          0.1 0.0090127065    44.079036  0.029878763 
number of iterations: 2034 
   22300    61.971477     1645          833          812 8.3281772e-13 7.5855586e-14          0.1 0.0090128915    44.693021  0.029878453 
number of iterations: 1997 
   22400    62.191845     1669          846          823 8.4385431e-13 7.6929196e-14          0.1  0.009013071    45.315092  0.029878153 
number of iterations: 1995 
   22500    62.431253     1698          858          840 8.5386253e-13 7.8019171e-14          0.1 0.0090132226    45.944457    0.0298779 
number of iterations: 1989 
   22600    62.632718     1721          866          855 8.6517801e-13 7.9125758e-14          0.1 0.0090133831     46.58211  0.029877631 
number of iterations: 2021 
   22700    62.849351     1735          877          858 8.7664345e-13 8.0249211e-14          0.1 0.0090135746    47.228161  0.029877311 
number of iterations: 1998 
   22800    63.127274     1752          887          865 8.8826082e-13 8.138979e-14          0.1  0.009013757     47.88272  0.029877006 
number of iterations: 2058 
   22900    63.343936     1778          901          877 9.0003215e-13 8.2547756e-14          0.1 0.0090139532    48.545899  0.029876678 
number of iterations: 2038 
   23000    63.585203     1801          915          886 9.1195948e-13 8.3723377e-14          0.1  0.009014153     49.21781  0.029876344 
number of iterations: 2012 
   23100    63.806848     1817          920          897 9.2404486e-13 8.4916922e-14          0.1 0.0090143453     49.89857  0.029876022 
number of iterations: 2025 
   23200    64.041458     1848          935          913 9.362904e-13 8.6128663e-14          0.1  0.009014529    50.588293  0.029875715 
number of iterations: 2025 
   23300    64.289462     1880          947          933 9.4869822e-13 8.7358878e-14          0.1 0.0090147164    51.287099  0.029875402 
number of iterations: 2033 
   23400    64.525426     1905          959          946 9.6127046e-13 8.860785e-14          0.1  0.009014899    51.995106  0.029875096 
number of iterations: 2062 
   23500    64.904689     1936          970          966 9.7400932e-13 8.9875868e-14          0.1 0.0090151001    52.712436   0.02987476 
number of iterations: 1992 
   23600    65.115737     1972          985          987 9.8691699e-13 9.1163218e-14          0.1 0.0090152831    53.439212  0.029874454 
number of iterations: 2063 
   23700    65.355462     2001         1001         1000 9.9999571e-13 9.2470197e-14          0.1 0.0090154703     54.17556   0.02987414 
number of iterations: 2061 
   23800    65.582527     2018         1011         1007 1.0132477e-12 9.3797106e-14          0.1 0.0090156706    54.921603  0.029873805 
number of iterations: 2067 
   23900    65.817707     2049         1030         1019 1.0266754e-12 9.5144255e-14          0.1 0.0090158829     55.67747   0.02987345 
number of iterations: 2061 
   24000    66.043561     2067         1039         1028 1.040281e-12 9.6511953e-14          0.1 0.0090161067    56.443287  0.029873076 
number of iterations: 2056 
   24100    66.270805     2089         1053         1036 1.0540669e-12 9.7900515e-14          0.1 0.0090163138    57.219186   0.02987273 
number of iterations: 2077 
   24200    66.495991     2118         1064         1054 1.0680355e-12 9.9310258e-14          0.1 0.0090165163    58.005301  0.029872391 
number of iterations: 2073 
   24300    66.733609     2147         1077         1070 1.0821892e-12 1.007415e-13          0.1 0.0090167338    58.801767  0.029872027 
number of iterations: 2061 
   24400    66.957306     2176         1094         1082 1.0965305e-12 1.0219458e-13          0.1   0.00901695    59.608719  0.029871666 
number of iterations: 2055 
   24500    67.180843     2206         1110         1096 1.1110618e-12 1.0366982e-13          0.1 0.0090171505    60.426295   0.02987133 
number of iterations: 2113 
   24600    67.436532     2227         1120         1107 1.1257857e-12 1.0516756e-13          0.1 0.0090173776    61.254634   0.02987095 
number of iterations: 2070 
   24700    67.689709     2259         1131         1128 1.1407047e-12 1.0668816e-13          0.1  0.009017604    62.093879  0.029870572 
number of iterations: 2025 
   24800     67.90882     2275         1136         1139 1.1558214e-12 1.0823197e-13          0.1 0.0090178175    62.944173  0.029870214 
number of iterations: 2086 
   24900    68.158774     2303         1147         1156 1.1711384e-12 1.0979933e-13          0.1 0.0090180726    63.805658  0.029869788 
number of iterations: 2104 
   25000    68.400956     2332         1160         1172 1.1866584e-12 1.113906e-13          0.1 0.0090183096    64.678485  0.029869391 
number of iterations: 2074 
   25100    68.635676     2363         1170         1193 1.2023841e-12 1.1300617e-13          0.1 0.0090185614      65.5628   0.02986897 
number of iterations: 2125 
   25200    68.862473     2394         1183         1211 1.2183182e-12 1.1464639e-13          0.1 0.0090188359    66.458757  0.029868511 
number of iterations: 2088 
   25300    69.083677     2429         1196         1233 1.2344635e-12 1.1631164e-13          0.1 0.0090190819    67.366508    0.0298681 
number of iterations: 2040 
   25400    69.319085     2458         1207         1251 1.2508227e-12 1.1800231e-13          0.1 0.0090193067    68.286208  0.029867724 
number of iterations: 2100 
   25500    69.554669     2486         1220         1266 1.2673986e-12 1.1971879e-13          0.1 0.0090195623    69.218012  0.029867296 
number of iterations: 2110 
   25600     69.96353     2524         1238         1286 1.2841943e-12 1.2146146e-13          0.1 0.0090198433    70.162082  0.029866826 
number of iterations: 2050 
   25700    70.183524     2554         1255         1299 1.3012125e-12 1.2323075e-13          0.1  0.009020067    71.118578  0.029866452 
number of iterations: 2119 
   25800    70.427946     2601         1277         1324 1.3184563e-12 1.2502704e-13          0.1 0.0090203364    72.087663  0.029866001 
number of iterations: 2123 
   25900    70.721657     2636         1295         1341 1.3359285e-12 1.2685076e-13          0.1 0.0090206306    73.069503  0.029865509 
number of iterations: 2093 
   26000    70.998296     2681         1320         1361 1.3536324e-12 1.2870232e-13          0.1 0.0090208809    74.064268   0.02986509 
number of iterations: 2123 
   26100    71.257737     2724         1339         1385 1.3715708e-12 1.3058215e-13          0.1 0.0090211687    75.072125  0.029864609 
number of iterations: 2107 
   26200    71.484447     2755         1356         1399 1.3897469e-12 1.3249069e-13          0.1 0.0090214401    76.093245  0.029864154 
number of iterations: 2094 
   26300    71.731917     2798         1369         1429 1.4081639e-12 1.3442837e-13          0.1  0.009021703    77.127806  0.029863715 
number of iterations: 2107 
   26400    71.957168     2836         1392         1444 1.426825e-12 1.3639564e-13          0.1 0.0090219931    78.175983  0.029863229 
number of iterations: 2125 
   26500    72.203905     2884         1416         1468 1.4457333e-12 1.3839296e-13          0.1 0.0090222951    79.237953  0.029862724 
number of iterations: 2147 
   26600     72.43008     2926         1438         1488 1.4648923e-12 1.4042078e-13          0.1 0.0090225919    80.313899  0.029862228 
number of iterations: 2092 
   26700    72.679894     2971         1461         1510 1.4843051e-12 1.4247958e-13          0.1 0.0090228625    81.404004  0.029861775 
number of iterations: 2112 
   26800    72.938802     3008         1478         1530 1.5025602e-12 1.4456983e-13          0.1 0.0090231724    82.507369  0.029861256 
number of iterations: 2127 
   26900    73.206029     3044         1492         1552 1.5224722e-12 1.4669201e-13          0.1 0.0090234582    83.625253  0.029860778 
number of iterations: 2143 
   27000    73.457714     3084         1509         1575 1.5426481e-12 1.488466e-13          0.1 0.0090237713    84.757846  0.029860254 
number of iterations: 2144 
   27100    73.717721     3124         1531         1593 1.5621186e-12 1.5103411e-13          0.1 0.0090240822    85.904597  0.029859734 
number of iterations: 2142 
   27200    73.949624     3178         1558         1620 1.5828199e-12 1.5325504e-13          0.1 0.0090244084    87.066438  0.029859189 
number of iterations: 2171 
   27300    74.292547     3229         1578         1651 1.6037955e-12 1.555099e-13          0.1 0.0090247569    88.243566  0.029858606 
number of iterations: 2116 
   27400    74.542739     3273         1593         1680 1.6250491e-12 1.577992e-13          0.1 0.0090250673    89.436186  0.029858086 
number of iterations: 2161 
   27500    75.040528     3318         1611         1707 1.6465843e-12 1.6012349e-13          0.1 0.0090254208    90.644495  0.029857495 
number of iterations: 2146 
   27600    75.277797     3360         1627         1733 1.6684048e-12 1.6248329e-13          0.1 0.0090257575    91.868702  0.029856932 
number of iterations: 2168 
   27700    75.514779     3408         1651         1757 1.6905146e-12 1.6487916e-13          0.1 0.0090260916    93.109016  0.029856373 
number of iterations: 2162 
   27800    75.747164     3472         1683         1789 1.7129173e-12 1.6731164e-13          0.1 0.0090264281     94.36565   0.02985581 
number of iterations: 2160 
   27900     75.99034     3514         1703         1811 1.7337663e-12 1.6978128e-13          0.1 0.0090267435    95.637402  0.029855282 
number of iterations: 2174 
   28000     76.22559     3584         1740         1844 1.7567422e-12 1.7228867e-13          0.1 0.0090271286    96.925886  0.029854637 
number of iterations: 2175 
   28100    76.469084     3634         1771         1863 1.7800225e-12 1.7483439e-13          0.1 0.0090274751    98.231322  0.029854058 
number of iterations: 2153 
   28200    76.703956     3682         1792         1890 1.8036114e-12 1.7741901e-13          0.1 0.0090278389    99.553933  0.029853449 
number of iterations: 2140 
   28300    76.971829     3735         1820         1915 1.8275129e-12 1.8004314e-13          0.1 0.0090281616    100.89394  0.029852909 
number of iterations: 2166 
   28400    77.209418     3795         1852         1943 1.8517312e-12 1.8270739e-13          0.1 0.0090285092    102.25159  0.029852327 
number of iterations: 2179 
   28500    77.454395     3841         1876         1965 1.8762703e-12 1.8541237e-13          0.1 0.0090289041    103.62709  0.029851666 
number of iterations: 2178 
   28600    77.705424     3892         1904         1988 1.9011347e-12 1.881587e-13          0.1 0.0090292786    105.02068   0.02985104 
number of iterations: 2165 
   28700    77.957949     3932         1919         2013 1.9263285e-12 1.9094702e-13          0.1 0.0090296486    106.43261   0.02985042 
number of iterations: 2194 
   28800    78.525344     3985         1946         2039 1.9518563e-12 1.9377798e-13          0.1 0.0090300443    107.86311  0.029849758 
number of iterations: 2208 
   28900    78.780754     4051         1972         2079 1.9777223e-12 1.9665222e-13          0.1  0.009030485    109.31244  0.029849021 
number of iterations: 2231 
   29000    79.045705     4120         1999         2121 2.003931e-12 1.9957042e-13          0.1 0.0090309089    110.78082  0.029848312 
number of iterations: 2159 
   29100    79.345313     4167         2018         2149 2.0304871e-12 2.0253324e-13          0.1 0.0090313053    112.26852  0.029847649 
number of iterations: 2213 
   29200    79.607083     4213         2037         2176 2.0565038e-12 2.0554137e-13          0.1 0.0090317532    113.77511    0.0298469 
number of iterations: 2226 
   29300    79.989474     4276         2063         2213 2.0837565e-12 2.085955e-13          0.1 0.0090321735    115.30151  0.029846196 
number of iterations: 2218 
   29400    80.242661     4342         2091         2251 2.1113705e-12 2.1169634e-13          0.1 0.0090326003    116.84798  0.029845482 
number of iterations: 2212 
   29500    80.506866     4400         2117         2283 2.1393503e-12 2.1484461e-13          0.1 0.0090330235     118.4148  0.029844774 
number of iterations: 2216 
   29600    80.827992     4462         2147         2315 2.167701e-12 2.1804105e-13          0.1 0.0090334992    120.00222  0.029843978 
number of iterations: 2230 
   29700    81.097609     4506         2170         2336 2.1964273e-12 2.2128638e-13          0.1 0.0090339747    121.61052  0.029843183 
number of iterations: 2195 
   29800    81.360939     4564         2194         2370 2.2237381e-12 2.2458135e-13          0.1 0.0090343893     123.2386  0.029842488 
number of iterations: 2186 
   29900    81.630593     4626         2216         2410 2.2520543e-12 2.2792673e-13          0.1 0.0090348146     124.8872  0.029841777 
number of iterations: 2219 
   30000    81.891671     4695         2250         2445 2.2808512e-12 2.3132329e-13          0.1 0.0090352305    126.55669   0.02984108 
number of iterations: 2205 
   30100    82.161517     4744         2270         2474 2.3082338e-12 2.3477181e-13          0.1 0.0090356643    128.24595  0.029840354 
number of iterations: 2217 
   30200    82.422843     4805         2292         2513 2.3388225e-12 2.3827309e-13          0.1 0.0090361318    129.95742  0.029839571 
number of iterations: 2226 
   30300    82.677333     4875         2322         2553 2.3698165e-12 2.4182795e-13          0.1 0.0090365979     131.6914  0.029838791 
number of iterations: 2207 
   30400    82.948162     4946         2352         2594 2.3989162e-12 2.454372e-13          0.1 0.0090370681    133.44642  0.029838004 
number of iterations: 2256 
   30500    83.260957     5013         2385         2628 2.4307066e-12 2.4910168e-13          0.1 0.0090375858    135.22451  0.029837139 
number of iterations: 2233 
   30600    83.531216     5085         2418         2667 2.4629182e-12 2.5282223e-13          0.1 0.0090381165    137.02599  0.029836251 
number of iterations: 2225 
   30700    83.815238     5160         2447         2713 2.4945782e-12 2.5659971e-13          0.1 0.0090385853    138.85041  0.029835466 
number of iterations: 2256 
   30800    84.118702     5229         2474         2755 2.5276362e-12 2.6034442e-13          0.1 0.0090391249    140.69885  0.029834563 
number of iterations: 2253 
   30900    84.403969     5302         2503         2799 2.5597887e-12 2.6423706e-13          0.1 0.0090396659    142.57057  0.029833658 
number of iterations: 2236 
   31000    84.663412     5372         2538         2834 2.5937109e-12 2.6818927e-13          0.1 0.0090402017     144.4669  0.029832761 
number of iterations: 2270 
   31100    85.073343     5451         2572         2879 2.6280826e-12 2.7220197e-13          0.1 0.0090407467    146.38816  0.029831849 
number of iterations: 2291 
   31200     85.38652     5542         2610         2932 2.6616316e-12 2.762761e-13          0.1 0.0090413148     148.3337  0.029830898 
number of iterations: 2251 
   31300    85.662524     5620         2649         2971 2.6954722e-12 2.8029221e-13          0.1 0.0090418633    150.30377  0.029829981 
number of iterations: 2248 
   31400    85.931042     5693         2683         3010 2.7311924e-12 2.8449021e-13          0.1 0.0090424294    152.29974  0.029829033 
number of iterations: 2260 
   31500    86.193194     5769         2707         3062 2.767386e-12 2.8875248e-13          0.1 0.0090429566    154.32195   0.02982815 
number of iterations: 2289 
   31600    86.480209     5865         2751         3114 2.8040592e-12 2.9308001e-13          0.1 0.0090435387    156.37075  0.029827176 
number of iterations: 2268 
   31700    86.808753     5948         2789         3159 2.8412184e-12 2.9747379e-13          0.1 0.0090441318    158.44649  0.029826184 
number of iterations: 2276 
   31800    87.089847     6022         2820         3202  2.87887e-12 3.0193484e-13          0.1 0.0090447318    160.54951   0.02982518 
number of iterations: 2285 
   31900    87.348253     6098         2854         3244 2.9170205e-12 3.063373e-13          0.1 0.0090453524    162.68022  0.029824141 
number of iterations: 2269 
   32000    87.605052     6182         2893         3289 2.9556766e-12 3.1093411e-13          0.1  0.009045961    164.83894  0.029823123 
number of iterations: 2276 
   32100    87.890939     6271         2931         3340 2.994845e-12 3.1560131e-13          0.1 0.0090465652    167.02604  0.029822112 
number of iterations: 2267 
   32200    88.175092     6356         2962         3394 3.0331334e-12 3.2033998e-13          0.1 0.0090471575    169.24081   0.02982112 
number of iterations: 2268 
   32300    88.438312     6450         2999         3451 3.0723247e-12 3.2515121e-13          0.1 0.0090477577    171.48394  0.029820115 
number of iterations: 2272 
   32400    88.709937     6549         3041         3508 3.1118499e-12 3.3003613e-13          0.1 0.0090483788    173.75563  0.029819076 
number of iterations: 2278 
   32500    89.035323     6656         3094         3562 3.1517103e-12 3.3499587e-13          0.1 0.0090490732    176.05614  0.029817914 
number of iterations: 2292 
   32600    89.329749     6737         3141         3596 3.1934765e-12 3.4003157e-13          0.1 0.0090497315    178.38688  0.029816812 
number of iterations: 2272 
   32700     89.61395     6862         3210         3652 3.2357961e-12 3.4505542e-13          0.1 0.0090503438    180.74829  0.029815787 
number of iterations: 2277 
   32800    90.036447     6948         3254         3694 3.2774386e-12 3.5024521e-13          0.1 0.0090509796    183.13979  0.029814722 
number of iterations: 2273 
   32900    90.329565     7067         3293         3774 3.3190332e-12 3.5551449e-13          0.1 0.0090515896    185.56133  0.029813701 
number of iterations: 2295 
   33000    90.608032     7154         3336         3818 3.3630166e-12 3.6086449e-13          0.1 0.0090522471    188.01468    0.0298126 
number of iterations: 2327 
   33100    90.941949     7257         3373         3884 3.4075829e-12 3.6629644e-13          0.1 0.0090529902    190.50028  0.029811356 
number of iterations: 2316 
   33200    91.236784     7369         3429         3940 3.4527397e-12 3.7181162e-13          0.1  0.009053759    193.01855   0.02981007 
number of iterations: 2319 
   33300    91.517953     7473         3468         4005 3.4971126e-12 3.7729756e-13          0.1 0.0090544412    195.56889  0.029808928 
number of iterations: 2324 
   33400    91.808975     7567         3505         4062 3.5425044e-12 3.8298132e-13          0.1 0.0090551906    198.15202  0.029807674 
number of iterations: 2334 
   33500    92.078724     7677         3559         4118 3.5894492e-12 3.8875218e-13          0.1 0.0090559405     200.7691  0.029806418 
number of iterations: 2345 
   33600    92.384888     7789         3607         4182 3.637016e-12 3.9461147e-13          0.1 0.0090566819    203.42056  0.029805177 
number of iterations: 2312 
   33700    92.697345     7884         3640         4244 3.6841743e-12 4.0045696e-13          0.1 0.0090574735    206.10613  0.029803852 
number of iterations: 2302 
   33800    92.984922     7991         3689         4302 3.7329965e-12  4.06406e-13          0.1  0.009058179    208.82701  0.029802671 
number of iterations: 2352 
   33900    93.286706     8110         3740         4370 3.7824656e-12 4.1239753e-13          0.1 0.0090589697    211.58369  0.029801347 
number of iterations: 2335 
   34000    93.567172     8213         3785         4428 3.8312325e-12 4.1861926e-13          0.1 0.0090597084    214.37555   0.02980011 
number of iterations: 2340 
   34100    93.851736     8321         3835         4486 3.8808926e-12 4.2493634e-13          0.1 0.0090605347    217.20326  0.029798728 
number of iterations: 2342 
   34200    94.237505     8434         3885         4549 3.9312495e-12 4.3135024e-13          0.1 0.0090613271    220.06728  0.029797401 
number of iterations: 2345 
   34300    94.558288     8550         3944         4606 3.9833458e-12 4.3786246e-13          0.1 0.0090621479    222.96895  0.029796027 
number of iterations: 2347 
   34400    95.050392     8674         3989         4685 4.033755e-12 4.4436368e-13          0.1 0.0090629613    225.90698  0.029794665 
number of iterations: 2329 
   34500    95.338202     8796         4034         4762 4.0855079e-12 4.5107538e-13          0.1 0.0090637509    228.88231  0.029793343 
number of iterations: 2367 
   34600      95.6511     8912         4081         4831 4.1396483e-12 4.5759564e-13          0.1   0.00906463    231.89685  0.029791871 
number of iterations: 2348 
   34700    95.954205     9032         4124         4908 4.1924742e-12 4.6439112e-13          0.1 0.0090654474    234.94949  0.029790503 
number of iterations: 2366 
   34800    96.292592     9151         4173         4978 4.2467729e-12 4.7140993e-13          0.1 0.0090663959    238.04128  0.029788915 
number of iterations: 2372 
   34900    96.600646     9294         4234         5060 4.3016122e-12 4.7834444e-13          0.1 0.0090673182    241.17266  0.029787372 
number of iterations: 2347 
   35000    96.929139     9422         4291         5131 4.3576132e-12 4.8535734e-13          0.1 0.0090681916    244.34447  0.029785909 
Loop time of 96.9292 on 32 procs for 35000 steps with 9422 atoms

Performance: 311980336.399 tau/day, 361.088 timesteps/s
92.0% CPU use with 32 MPI tasks x no OpenMP threads

MPI task timing breakdown:
Section |  min time  |  avg time  |  max time  |%varavg| %total
---------------------------------------------------------------
Pair    | 0.027142   | 0.12936    | 0.33174    |  18.3 |  0.13
Neigh   | 0.0093232  | 0.046581   | 0.10603    |  10.3 |  0.05
Comm    | 0.16382    | 0.24264    | 0.35809    |  11.2 |  0.25
Output  | 25.596     | 25.596     | 25.604     |   0.0 | 26.41
Modify  | 70.237     | 70.312     | 70.404     |   0.4 | 72.54
Other   |            | 0.6023     |            |       |  0.62

Nlocal:    294.438 ave 607 max 57 min
Histogram: 2 2 6 4 8 4 2 2 0 2
Nghost:    173.281 ave 397 max 20 min
Histogram: 1 4 7 3 10 1 3 1 1 1
Neighs:    1365.69 ave 2997 max 268 min
Histogram: 2 4 6 6 3 5 3 1 0 2

Total # of neighbors = 43702
Ave neighs/atom = 4.63829
Neighbor list builds = 689
Dangerous builds = 0
Total wall time: 0:01:37
