LAMMPS (20 Nov 2019)
Reading data file ...
  orthogonal box = (0 0 0) to (0.001 0.001 0.0001)
  2 by 3 by 1 MPI processor grid
  reading atoms ...
  2 atoms
  4 nutrients
Lattice spacing in x,y,z = 100 100 100
1 atoms in group CYANO
1 atoms in group ECW
Model is defined as a closed system. 
Neighbor list info ...
  update every 1 steps, delay 0 steps, check yes
  max neighbors/atom: 5000, page size: 100000
  master list distance cutoff = 1.89e-06
  ghost atom cutoff = 1.89e-06
  binsize = 9.45e-07, bins = 1059 1059 106
  1 neighbor lists, perpetual/occasional/extra = 1 0 0
  (1) pair gran/hooke/history, perpetual
      attributes: half, newton off, size, history
      pair build: half/size/bin/newtoff
      stencil: half/bin/3d/newtoff
      bin: standard
Setting up Verlet run ...
  Unit style    : lj
  Current step  : 0
  Time step     : 10
Per MPI rank memory allocation (min/avg/max) = 84.25 | 92.35 | 108.5 Mbytes
Step CPU Atoms c_myNtypes[1] c_myNtypes[2] c_myMass[1] c_myMass[2] c_myCon[1] c_myCon[2] c_myCon[3] c_myCon[4] 
       0            0        2            1            1 5.2028912e-16 1.3941014e-16          0.1        0.009     3.42e-20       0.0299 
number of iterations: 578270 
     100    3.3454092        3            1            2 5.2906566e-16 1.3929094e-16          0.1 0.0090000007 2.9740235e-08  0.029899999 
number of iterations: 265337 
     200     5.024934        3            1            2 5.3799024e-16 1.3917185e-16          0.1 0.0090000007 1.2273968e-07  0.029899999 
number of iterations: 172174 
     300     6.119386        3            1            2 5.4706536e-16 1.3905286e-16          0.1 0.0090000007 2.6791938e-07  0.029899999 
number of iterations: 147090 
     400    7.1595879        3            1            2 5.5629357e-16 1.3893397e-16          0.1 0.0090000007 4.3528268e-07  0.029899999 
number of iterations: 128083 
     500    8.0343455        3            1            2 5.6567744e-16 1.3881518e-16          0.1 0.0090000007 6.2301226e-07  0.029899999 
number of iterations: 113083 
     600    8.7828492        3            1            2 5.7521961e-16 1.3869649e-16          0.1 0.0090000008 8.296529e-07  0.029899999 
number of iterations: 100861 
     700    9.4636423        3            1            2 5.8492274e-16 1.3857791e-16          0.1 0.0090000008 1.054051e-06  0.029899999 
number of iterations: 90654 
     800    10.071677        3            1            2 5.9478955e-16 1.3845943e-16          0.1 0.0090000008 1.2952826e-06  0.029899999 
number of iterations: 81956 
     900    10.638902        3            1            2 6.048228e-16 1.3834105e-16          0.1 0.0090000008 1.5526089e-06  0.029899999 
number of iterations: 74423 
    1000    11.576175        3            1            2 6.1502529e-16 1.3822277e-16          0.1 0.0090000008 1.8254334e-06  0.029899999 
number of iterations: 67812 
    1100    12.058072        3            1            2 6.2539989e-16 1.3810459e-16          0.1 0.0090000008 2.1132717e-06  0.029899999 
number of iterations: 61945 
    1200    12.506356        3            1            2 6.3594949e-16 1.3798652e-16          0.1 0.0090000008 2.4157305e-06  0.029899999 
number of iterations: 56687 
    1300    12.938542        3            1            2 6.4667705e-16 1.3786855e-16          0.1 0.0090000009 2.7324937e-06  0.029899999 
number of iterations: 51940 
    1400    13.383712        3            1            2 6.5758556e-16 1.3775068e-16          0.1 0.0090000009 3.0632997e-06  0.029899999 
number of iterations: 47622 
    1500    13.755207        3            1            2 6.6867809e-16 1.3763291e-16          0.1 0.0090000009 3.4079427e-06  0.029899999 
number of iterations: 43672 
    1600    14.082854        3            1            2 6.7995773e-16 1.3751524e-16          0.1 0.0090000009 3.7662561e-06  0.029899999 
number of iterations: 40039 
    1700    14.382444        3            1            2 6.9142764e-16 1.3739767e-16          0.1 0.0090000009 4.138111e-06  0.029899999 
number of iterations: 36682 
    1800    14.715341        3            1            2 7.0309104e-16 1.3728021e-16          0.1 0.0090000009 4.5234094e-06  0.029899998 
number of iterations: 33567 
    1900    15.008583        3            1            2 7.1495118e-16 1.3716284e-16          0.1  0.009000001 4.9220811e-06  0.029899998 
number of iterations: 30666 
    2000     15.69666        3            1            2 7.2701138e-16 1.3704558e-16          0.1  0.009000001 5.334079e-06  0.029899998 
number of iterations: 27955 
    2100    15.953499        3            1            2 7.3927502e-16 1.3692842e-16          0.1  0.009000001 5.759378e-06  0.029899998 
number of iterations: 25414 
    2200    16.198293        3            1            2 7.5174553e-16 1.3681136e-16          0.1  0.009000001 6.1979718e-06  0.029899998 
number of iterations: 23026 
    2300    16.422408        3            1            2 7.644264e-16 1.366944e-16          0.1  0.009000001 6.6498702e-06  0.029899998 
number of iterations: 20777 
    2400    16.649465        3            1            2 7.7732118e-16 1.3657754e-16          0.1  0.009000001 7.1150965e-06  0.029899998 
number of iterations: 18653 
    2500    16.868596        3            1            2 7.9043347e-16 1.3646078e-16          0.1 0.0090000011 7.5936911e-06  0.029899998 
number of iterations: 16642 
    2600    17.096723        3            1            2 8.0376695e-16 1.3634412e-16          0.1 0.0090000011 8.0857092e-06  0.029899998 
number of iterations: 14736 
    2700    17.291179        3            1            2 8.1732535e-16 1.3622757e-16          0.1 0.0090000011 8.5912132e-06  0.029899998 
number of iterations: 12928 
    2800    17.467184        3            1            2 8.3111246e-16 1.3611111e-16          0.1 0.0090000011 9.1102721e-06  0.029899998 
number of iterations: 11206 
    2900    17.642625        3            1            2 8.4513213e-16 1.3599476e-16          0.1 0.0090000011 9.6429769e-06  0.029899998 
number of iterations: 9565 
    3000    18.214808        3            1            2 8.593883e-16 1.3587851e-16          0.1 0.0090000012 1.0189424e-05  0.029899998 
number of iterations: 7999 
    3100    18.373824        3            1            2 8.7388495e-16 1.3576235e-16          0.1 0.0090000012 1.0749717e-05  0.029899998 
number of iterations: 7626 
    3200    18.530097        3            1            2 8.8862614e-16 1.356463e-16          0.1 0.0090000012 1.1323967e-05  0.029899998 
number of iterations: 7710 
    3300    18.679357        3            1            2 9.0361599e-16 1.3553035e-16          0.1 0.0090000012 1.1912293e-05  0.029899998 
number of iterations: 7794 
    3400    18.821107        3            1            2 9.1885869e-16 1.354145e-16          0.1 0.0090000012 1.2514827e-05  0.029899998 
number of iterations: 7879 
    3500    18.976564        3            1            2 9.3435852e-16 1.3529875e-16          0.1 0.0090000013 1.3131706e-05  0.029899998 
number of iterations: 7965 
    3600    19.109948        3            1            2 9.5011981e-16 1.351831e-16          0.1 0.0090000013 1.3763067e-05  0.029899998 
number of iterations: 8051 
    3700    19.249996        3            1            2 9.6614697e-16 1.3506755e-16          0.1 0.0090000013 1.4408793e-05  0.029899998 
number of iterations: 8138 
    3800    19.400726        3            1            2 9.8244449e-16 1.349521e-16          0.1 0.0090000013 1.5065412e-05  0.029899998 
number of iterations: 8225 
    3900    19.555785        3            1            2 9.9901692e-16 1.3483675e-16          0.1 0.0090000013 1.5733107e-05  0.029899998 
number of iterations: 8313 
    4000    20.112438        3            1            2 1.0158689e-15 1.347215e-16          0.1 0.0090000014 1.6412065e-05  0.029899998 
number of iterations: 8402 
    4100    20.242494        3            1            2 1.0330052e-15 1.3460635e-16          0.1 0.0090000014 1.7102476e-05  0.029899998 
number of iterations: 8491 
    4200    20.375855        3            1            2 1.0504305e-15 1.344913e-16          0.1 0.0090000014 1.7804533e-05  0.029899998 
number of iterations: 8581 
    4300     20.51747        3            1            2 1.0681497e-15 1.3437635e-16          0.1 0.0090000014 1.8518433e-05  0.029899998 
number of iterations: 8671 
    4400    20.657852        3            1            2 1.0861679e-15 1.342615e-16          0.1 0.0090000015 1.9244375e-05  0.029899998 
number of iterations: 8761 
    4500    20.791977        3            1            2  1.10449e-15 1.3414675e-16          0.1 0.0090000015 1.9982563e-05  0.029899998 
number of iterations: 8853 
    4600    20.924562        3            1            2 1.1231211e-15 1.340321e-16          0.1 0.0090000015 2.0733203e-05  0.029899998 
number of iterations: 8945 
    4700    21.055784        3            1            2 1.1420666e-15 1.3391754e-16          0.1 0.0090000015 2.1496506e-05  0.029899997 
number of iterations: 9037 
    4800     21.19741        3            1            2 1.1613316e-15 1.3380309e-16          0.1 0.0090000016 2.2272684e-05  0.029899997 
number of iterations: 9131 
    4900    21.331975        3            1            2 1.1809216e-15 1.3368874e-16          0.1 0.0090000016 2.3061955e-05  0.029899997 
number of iterations: 9224 
    5000      21.9028        3            1            2 1.2008421e-15 1.3357449e-16          0.1 0.0090000016 2.386454e-05  0.029899997 
number of iterations: 9318 
    5100    22.065178        3            1            2 1.2210986e-15 1.3346034e-16          0.1 0.0090000016 2.4680663e-05  0.029899997 
number of iterations: 9413 
    5200    22.203682        3            1            2 1.2416967e-15 1.3334628e-16          0.1 0.0090000017 2.5510553e-05  0.029899997 
number of iterations: 9508 
    5300    22.338961        3            1            2 1.2626424e-15 1.3323233e-16          0.1 0.0090000017 2.6354442e-05  0.029899997 
number of iterations: 9604 
    5400    22.474637        3            1            2 1.2839414e-15 1.3311847e-16          0.1 0.0090000017 2.7212567e-05  0.029899997 
number of iterations: 9700 
    5500    22.645399        3            1            2 1.3055996e-15 1.3300472e-16          0.1 0.0090000018 2.8085166e-05  0.029899997 
number of iterations: 9797 
    5600    22.819512        3            1            2 1.3276232e-15 1.3289106e-16          0.1 0.0090000018 2.897249e-05  0.029899997 
number of iterations: 9895 
    5700    22.963718        3            1            2 1.3500183e-15 1.3277751e-16          0.1 0.0090000018 2.9874781e-05  0.029899997 
number of iterations: 9993 
    5800    23.111955        3            1            2 1.3727912e-15 1.3266405e-16          0.1 0.0090000019 3.0792293e-05  0.029899997 
number of iterations: 10091 
    5900    23.259186        3            1            2 1.3959482e-15 1.3255069e-16          0.1 0.0090000019 3.1725282e-05  0.029899997 
number of iterations: 10190 
    6000    23.805506        3            1            2 1.4194958e-15 1.3243743e-16          0.1 0.0090000019 3.2674009e-05  0.029899997 
number of iterations: 10290 
    6100    23.953905        3            1            2 1.4434407e-15 1.3232427e-16          0.1  0.009000002 3.363874e-05  0.029899997 
number of iterations: 10390 
    6200    24.121897        3            1            2 1.4677895e-15 1.322112e-16          0.1  0.009000002 3.4619745e-05  0.029899997 
number of iterations: 30793 
    6300    24.543229        4            2            2 1.492549e-15 1.3209824e-16          0.1 0.0090000019 3.5617294e-05  0.029899997 
number of iterations: 6222 
    6400    24.690519        4            2            2 1.5177262e-15 1.3198537e-16          0.1 0.0090000019 3.6631671e-05  0.029899997 
number of iterations: 7627 
    6500    24.832739        4            2            2 1.543328e-15 1.3187261e-16          0.1 0.0090000019 3.7663159e-05  0.029899997 
number of iterations: 7992 
    6600    24.983689        4            2            2 1.5693617e-15 1.3175994e-16          0.1  0.009000002 3.8712047e-05  0.029899997 
number of iterations: 8216 
    6700    25.122482        4            2            2 1.5958346e-15 1.3164737e-16          0.1  0.009000002 3.9778628e-05  0.029899997 
number of iterations: 8372 
    6800    25.264353        4            2            2 1.6227541e-15 1.315349e-16          0.1  0.009000002  4.08632e-05  0.029899997 
number of iterations: 8495 
    6900    25.412948        4            2            2 1.6501276e-15 1.3142253e-16          0.1  0.009000002 4.1966068e-05  0.029899997 
number of iterations: 8603 
    7000    25.997606        4            2            2 1.6779629e-15 1.3131025e-16          0.1 0.0090000021 4.308754e-05  0.029899997 
number of iterations: 8704 
    7100    26.171166        4            2            2 1.7062677e-15 1.3119808e-16          0.1 0.0090000021 4.4227929e-05  0.029899997 
number of iterations: 8802 
    7200    26.319966        4            2            2  1.73505e-15  1.31086e-16          0.1 0.0090000021 4.5387555e-05  0.029899996 
number of iterations: 8899 
    7300    26.453595        4            2            2 1.7643178e-15 1.3097402e-16          0.1 0.0090000022 4.6566742e-05  0.029899996 
number of iterations: 8996 
    7400    26.605031        4            2            2 1.7940793e-15 1.3086214e-16          0.1 0.0090000022 4.776582e-05  0.029899996 
number of iterations: 9092 
    7500    26.749053        4            2            2 1.8243429e-15 1.3075036e-16          0.1 0.0090000023 4.8985125e-05  0.029899996 
number of iterations: 9190 
    7600    26.888699        4            2            2 1.8551169e-15 1.3063868e-16          0.1 0.0090000023 5.0224998e-05  0.029899996 
number of iterations: 9287 
    7700    27.040461        4            2            2 1.8864101e-15 1.3052709e-16          0.1 0.0090000023 5.1485785e-05  0.029899996 
number of iterations: 9385 
    7800    27.196545        4            2            2 1.9182311e-15 1.304156e-16          0.1 0.0090000024 5.2767841e-05  0.029899996 
number of iterations: 9484 
    7900    27.353537        4            2            2 1.950589e-15 1.3030421e-16          0.1 0.0090000024 5.4071522e-05  0.029899996 
number of iterations: 9583 
    8000    27.919486        4            2            2 1.9834926e-15 1.3019292e-16          0.1 0.0090000025 5.5397195e-05  0.029899996 
number of iterations: 9683 
    8100    28.067559        4            2            2 2.0169513e-15 1.3008173e-16          0.1 0.0090000025 5.6745231e-05  0.029899996 
number of iterations: 9783 
    8200    28.212712        4            2            2 2.0509744e-15 1.2997063e-16          0.1 0.0090000025 5.8116005e-05  0.029899996 
number of iterations: 9884 
    8300    28.369007        4            2            2 2.0855714e-15 1.2985963e-16          0.1 0.0090000026 5.9509903e-05  0.029899996 
number of iterations: 9986 
    8400    28.549138        4            2            2 2.120752e-15 1.2974873e-16          0.1 0.0090000026 6.0927313e-05  0.029899996 
number of iterations: 10088 
    8500    28.703927        4            2            2 2.156526e-15 1.2963793e-16          0.1 0.0090000027 6.2368634e-05  0.029899996 
number of iterations: 10191 
    8600    28.854783        4            2            2 2.1929035e-15 1.2952723e-16          0.1 0.0090000027 6.3834267e-05  0.029899996 
number of iterations: 10294 
    8700    29.011685        4            2            2 2.2298946e-15 1.2941662e-16          0.1 0.0090000028 6.5324623e-05  0.029899995 
number of iterations: 10399 
    8800    29.168267        4            2            2 2.2675098e-15 1.2930611e-16          0.1 0.0090000028 6.684012e-05  0.029899995 
number of iterations: 10503 
    8900    29.329117        4            2            2 2.3057594e-15 1.291957e-16          0.1 0.0090000029 6.8381181e-05  0.029899995 
number of iterations: 10608 
    9000    29.963666        4            2            2 2.3446543e-15 1.2908538e-16          0.1 0.0090000029 6.9948237e-05  0.029899995 
number of iterations: 10714 
    9100    30.192484        4            2            2 2.3842052e-15 1.2897517e-16          0.1  0.009000003 7.1541727e-05  0.029899995 
number of iterations: 10820 
    9200    30.386826        4            2            2 2.4244234e-15 1.2886505e-16          0.1  0.009000003 7.3162097e-05  0.029899995 
number of iterations: 10927 
    9300    30.566575        4            2            2 2.4653199e-15 1.2875503e-16          0.1 0.0090000031 7.4809801e-05  0.029899995 
number of iterations: 11035 
    9400    30.744322        4            2            2 2.5069063e-15 1.286451e-16          0.1 0.0090000031 7.6485298e-05  0.029899995 
number of iterations: 11143 
    9500    30.919096        4            2            2 2.5491942e-15 1.2853528e-16          0.1 0.0090000032 7.8189059e-05  0.029899995 
number of iterations: 11251 
    9600    31.095347        4            2            2 2.5921955e-15 1.2842555e-16          0.1 0.0090000032 7.992156e-05  0.029899995 
number of iterations: 11361 
    9700    31.268784        4            2            2 2.6359221e-15 1.2831591e-16          0.1 0.0090000033 8.1683286e-05  0.029899995 
number of iterations: 11470 
    9800    31.448605        4            2            2 2.6803863e-15 1.2820638e-16          0.1 0.0090000033 8.347473e-05  0.029899995 
number of iterations: 11581 
    9900    31.623893        4            2            2 2.7256006e-15 1.2809694e-16          0.1 0.0090000034 8.5296392e-05  0.029899994 
number of iterations: 32192 
   10000    32.439786        5            3            2 2.7715776e-15 1.279876e-16          0.1 0.0090000036 8.7148786e-05  0.029899994 
number of iterations: 13172 
   10100    32.622459        5            3            2 2.8183301e-15 1.2787836e-16          0.1 0.0090000037 8.9032428e-05  0.029899994 
number of iterations: 13400 
   10200    32.808414        5            3            2 2.8658713e-15 1.2776922e-16          0.1 0.0090000037 9.0947843e-05  0.029899994 
number of iterations: 13532 
   10300    32.989674        5            3            2 2.9142145e-15 1.2766017e-16          0.1 0.0090000038 9.2895569e-05  0.029899994 
number of iterations: 13652 
   10400    33.186701        5            3            2 2.9633731e-15 1.2755122e-16          0.1 0.0090000039 9.487615e-05  0.029899994 
number of iterations: 13771 
   10500    33.378907        5            3            2 3.013361e-15 1.2744237e-16          0.1 0.0090000039 9.6890141e-05  0.029899994 
number of iterations: 13891 
   10600    33.579959        5            3            2 3.064192e-15 1.2733361e-16          0.1  0.009000004 9.8938104e-05  0.029899993 
number of iterations: 14012 
   10700    33.772812        5            3            2 3.1158806e-15 1.2722495e-16          0.1 0.0090000041 0.00010102061  0.029899993 
number of iterations: 14133 
   10800    33.963082        5            3            2 3.168441e-15 1.2711639e-16          0.1 0.0090000041 0.00010313825  0.029899993 
number of iterations: 14255 
   10900    34.163026        5            3            2 3.2218881e-15 1.2700792e-16          0.1 0.0090000042 0.00010529161  0.029899993 
number of iterations: 28483 
   11000    34.977565        6            4            2 3.2762367e-15 1.2689956e-16          0.1 0.0090000042 0.0001074813  0.029899993 
number of iterations: 11405 
   11100    35.147334        6            4            2 3.3315021e-15 1.2679129e-16          0.1 0.0090000042 0.00010970791  0.029899993 
number of iterations: 12339 
   11200    35.322146        6            4            2 3.3876998e-15 1.2668311e-16          0.1 0.0090000043 0.00011197209  0.029899993 
number of iterations: 13355 
   11300    35.509622        6            4            2 3.4448454e-15 1.2657504e-16          0.1 0.0090000043 0.00011427447  0.029899993 
number of iterations: 13567 
   11400    35.708338        6            4            2 3.502955e-15 1.2646706e-16          0.1 0.0090000044 0.00011661568  0.029899993 
number of iterations: 31549 
   11500    36.068486        6            4            2 3.5620449e-15 1.2635918e-16          0.1 0.0090000044 0.00011899638  0.029899993 
number of iterations: 13629 
   11600     36.25468        6            4            2 3.6221315e-15 1.2625139e-16          0.1 0.0090000044 0.00012141723  0.029899993 
number of iterations: 14543 
   11700    36.438095        6            4            2 3.6832316e-15 1.261437e-16          0.1 0.0090000045 0.00012387893  0.029899993 
number of iterations: 14837 
   11800    36.634881        6            4            2 3.7453625e-15 1.2603611e-16          0.1 0.0090000045 0.00012638215  0.029899992 
number of iterations: 15007 
   11900    36.865641        6            4            2 3.8085414e-15 1.2592862e-16          0.1 0.0090000046 0.0001289276  0.029899992 
number of iterations: 15142 
   12000    37.548752        6            4            2 3.872786e-15 1.2582122e-16          0.1 0.0090000047 0.00013151598  0.029899992 
number of iterations: 15268 
   12100    37.769023        6            4            2 3.9381143e-15 1.2571392e-16          0.1 0.0090000048 0.00013414803  0.029899992 
number of iterations: 15391 
   12200    37.993301        6            4            2 4.0045447e-15 1.2560672e-16          0.1 0.0090000048 0.00013682447  0.029899992 
number of iterations: 15513 
   12300    38.206174        6            4            2 4.0720956e-15 1.2549961e-16          0.1 0.0090000049 0.00013954606  0.029899992 
number of iterations: 15636 
   12400    38.427493        6            4            2 4.140786e-15 1.2539261e-16          0.1  0.009000005 0.00014231357  0.029899992 
number of iterations: 15759 
   12500     38.65805        6            4            2 4.2106352e-15 1.2528569e-16          0.1 0.0090000051 0.00014512775  0.029899992 
number of iterations: 15882 
   12600    38.889742        6            4            2 4.2816625e-15 1.2517888e-16          0.1 0.0090000052 0.00014798941  0.029899991 
number of iterations: 16005 
   12700    39.124834        6            4            2 4.353888e-15 1.2507216e-16          0.1 0.0090000053 0.00015089934  0.029899991 
number of iterations: 16129 
   12800    39.340503        6            4            2 4.4273319e-15 1.2496554e-16          0.1 0.0090000054 0.00015385835  0.029899991 
number of iterations: 16254 
   12900    39.572077        6            4            2 4.5020146e-15 1.2485902e-16          0.1 0.0090000055 0.00015686728  0.029899991 
number of iterations: 16378 
   13000    40.279912        6            4            2 4.5779572e-15 1.2475259e-16          0.1 0.0090000055 0.00015992697  0.029899991 
number of iterations: 16503 
   13100    40.511191        6            4            2 4.6551807e-15 1.2464627e-16          0.1 0.0090000056 0.00016303827  0.029899991 
number of iterations: 16629 
   13200    40.745403        6            4            2 4.733707e-15 1.2454003e-16          0.1 0.0090000057 0.00016620205  0.029899991 
number of iterations: 16755 
   13300    40.976811        6            4            2 4.8135578e-15 1.244339e-16          0.1 0.0090000058 0.0001694192   0.02989999 
number of iterations: 16881 
   13400    41.222818        6            4            2 4.8947556e-15 1.2432786e-16          0.1 0.0090000059 0.00017269062   0.02989999 
number of iterations: 17008 
   13500     41.46393        6            4            2 4.9773232e-15 1.2422192e-16          0.1  0.009000006 0.00017601722   0.02989999 
number of iterations: 17135 
   13600    41.713714        6            4            2 5.0612835e-15 1.2411608e-16          0.1 0.0090000061 0.00017939994   0.02989999 
number of iterations: 17262 
   13700    41.949041        6            4            2 5.1466601e-15 1.2401033e-16          0.1 0.0090000062 0.00018283972   0.02989999 
number of iterations: 17390 
   13800    42.193686        6            4            2 5.2334768e-15 1.2390468e-16          0.1 0.0090000063 0.00018633752   0.02989999 
number of iterations: 31313 
   13900    42.624145        7            5            2 5.3217581e-15 1.2379913e-16          0.1 0.0090000066 0.00018989433  0.029899989 
number of iterations: 37980 
   14000    43.538296        7            5            2 5.4115285e-15 1.2369368e-16          0.1  0.009000007 0.00019351115  0.029899988 
number of iterations: 17805 
   14100    43.779102        7            5            2 5.5028132e-15 1.2358832e-16          0.1 0.0090000071 0.00019718897  0.029899988 
number of iterations: 18012 
   14200    43.986231        7            5            2 5.5956378e-15 1.2348306e-16          0.1 0.0090000072 0.00020092883  0.029899988 
number of iterations: 29806 
   14300    44.332766        8            6            2 5.6900282e-15 1.233779e-16          0.1 0.0090000072 0.00020473178  0.029899988 
number of iterations: 15859 
   14400    44.546323        8            6            2 5.7860108e-15 1.2327284e-16          0.1 0.0090000073 0.00020859887  0.029899988 
number of iterations: 17100 
   14500    44.768023        9            7            2 5.8836125e-15 1.2316787e-16          0.1 0.0090000074 0.0002125312  0.029899988 
number of iterations: 17658 
   14600    44.987665        9            7            2 5.9828606e-15  1.23063e-16          0.1 0.0090000076 0.00021652986  0.029899988 
number of iterations: 17827 
   14700    45.219023        9            7            2 6.0837829e-15 1.2295823e-16          0.1 0.0090000077 0.00022059597  0.029899987 
number of iterations: 17975 
   14800    45.428989        9            7            2 6.1864076e-15 1.2285355e-16          0.1 0.0090000078 0.00022473068  0.029899987 
number of iterations: 18118 
   14900    45.638118        9            7            2 6.2907635e-15 1.2274898e-16          0.1 0.0090000079 0.00022893512  0.029899987 
number of iterations: 18260 
   15000    46.256034        9            7            2 6.3968796e-15 1.226445e-16          0.1 0.0090000081 0.0002332105  0.029899987 
number of iterations: 18403 
   15100    46.481095        9            7            2 6.5047858e-15 1.2254012e-16          0.1 0.0090000082 0.00023755799  0.029899986 
number of iterations: 18546 
   15200    46.721294        9            7            2 6.6145122e-15 1.2243583e-16          0.1 0.0090000084 0.00024197881  0.029899986 
number of iterations: 18689 
   15300    46.965536        9            7            2 6.7260896e-15 1.2233165e-16          0.1 0.0090000085 0.00024647421  0.029899986 
number of iterations: 18833 
   15400    47.216669        9            7            2 6.839549e-15 1.2222756e-16          0.1 0.0090000086 0.00025104544  0.029899986 
number of iterations: 18977 
   15500     47.44992        9            7            2 6.9549224e-15 1.2212357e-16          0.1 0.0090000088 0.00025569378  0.029899985 
number of iterations: 19122 
   15600    47.692879        9            7            2 7.072242e-15 1.2201968e-16          0.1 0.0090000089 0.00026042054  0.029899985 
number of iterations: 19267 
   15700    47.948141        9            7            2 7.1915406e-15 1.2191589e-16          0.1 0.0090000091 0.00026522702  0.029899985 
number of iterations: 19413 
   15800    48.200082       10            8            2 7.3128516e-15 1.2181219e-16          0.1 0.0090000092 0.00027011459  0.029899985 
number of iterations: 19559 
   15900    48.459933       10            8            2 7.4362089e-15 1.2170859e-16          0.1 0.0090000094 0.0002750846  0.029899984 
number of iterations: 19706 
   16000    49.119193       10            8            2 7.5616471e-15 1.2160509e-16          0.1 0.0090000096 0.00028013844  0.029899984 
number of iterations: 19853 
   16100    49.364017       10            8            2 7.6892012e-15 1.2150169e-16          0.1 0.0090000097 0.00028527754  0.029899984 
number of iterations: 20000 
   16200    49.633337       10            8            2 7.818907e-15 1.2139839e-16          0.1 0.0090000099 0.00029050333  0.029899984 
number of iterations: 20148 
   16300    49.887605       10            8            2 7.9508008e-15 1.2129519e-16          0.1   0.00900001 0.00029581727  0.029899983 
number of iterations: 20296 
   16400    50.131928       10            8            2 8.0849194e-15 1.2119208e-16          0.1 0.0090000102 0.00030122084  0.029899983 
number of iterations: 20445 
   16500    50.357323       10            8            2 8.2213004e-15 1.2108907e-16          0.1 0.0090000104 0.00030671557  0.029899983 
number of iterations: 20594 
   16600    50.605179       10            8            2 8.3599819e-15 1.2098616e-16          0.1 0.0090000106 0.00031230299  0.029899983 
number of iterations: 20744 
   16700    50.845515       10            8            2 8.5010028e-15 1.2088336e-16          0.1 0.0090000107 0.00031798465  0.029899982 
number of iterations: 20893 
   16800    51.092264       10            8            2 8.6444025e-15 1.2078064e-16          0.1 0.0090000109 0.00032376216  0.029899982 
number of iterations: 21044 
   16900    51.337148       10            8            2 8.7902212e-15 1.2067803e-16          0.1 0.0090000111 0.00032963713  0.029899982 
number of iterations: 21195 
   17000    52.012468       11            9            2 8.9384996e-15 1.2057552e-16          0.1 0.0090000113 0.0003356112  0.029899981 
number of iterations: 21346 
   17100      52.2665       11            9            2 9.0892793e-15 1.2047311e-16          0.1 0.0090000115 0.00034168604  0.029899981 
number of iterations: 21498 
   17200    52.511885       11            9            2 9.2426024e-15 1.2037079e-16          0.1 0.0090000117 0.00034786336  0.029899981 
number of iterations: 21650 
   17300    52.754432       11            9            2 9.3985119e-15 1.2026858e-16          0.1 0.0090000119 0.00035414488   0.02989998 
number of iterations: 21802 
   17400    53.005472       11            9            2 9.5570513e-15 1.2016646e-16          0.1 0.0090000121 0.00036053236   0.02989998 
number of iterations: 21955 
   17500    53.254454       11            9            2 9.718265e-15 1.2006445e-16          0.1 0.0090000123 0.00036702759   0.02989998 
number of iterations: 22108 
   17600    53.493799       11            9            2 9.8821982e-15 1.1996253e-16          0.1 0.0090000125 0.00037363238  0.029899979 
number of iterations: 22262 
   17700    53.754487       11            9            2 1.0048897e-14 1.1986072e-16          0.1 0.0090000127 0.00038034859  0.029899979 
number of iterations: 22416 
   17800    53.997562       11            9            2 1.0218407e-14  1.19759e-16          0.1 0.0090000129 0.00038717809  0.029899979 
number of iterations: 22570 
   17900    54.235494       11            9            2 1.0390777e-14 1.1965738e-16          0.1 0.0090000131 0.00039412279  0.029899978 
number of iterations: 22725 
   18000    54.911272       11            9            2 1.0566055e-14 1.1955587e-16          0.1 0.0090000134 0.00040118464  0.029899978 
number of iterations: 22880 
   18100    55.175602       12           10            2 1.0744289e-14 1.1945445e-16          0.1 0.0090000136 0.00040836562  0.029899977 
number of iterations: 23036 
   18200    55.472653       12           10            2 1.092553e-14 1.1935314e-16          0.1 0.0090000138 0.00041566772  0.029899977 
number of iterations: 23192 
   18300    55.726513       12           10            2 1.1109828e-14 1.1925192e-16          0.1 0.0090000141  0.000423093  0.029899977 
number of iterations: 23348 
   18400    55.985417       12           10            2 1.1297234e-14 1.1915081e-16          0.1 0.0090000143 0.00043064354  0.029899976 
number of iterations: 35514 
   18500    56.361812       14           12            2 1.1487803e-14 1.1904979e-16          0.1 0.0090000147 0.00043832144  0.029899976 
number of iterations: 24015 
   18600    56.625468       14           12            2 1.1681585e-14 1.1894888e-16          0.1  0.009000015 0.00044612887  0.029899975 
number of iterations: 24277 
   18700     56.90269       14           12            2 1.1878637e-14 1.1884807e-16          0.1 0.0090000152 0.00045406799  0.029899975 
number of iterations: 24437 
   18800     57.16312       14           12            2 1.2079012e-14 1.1874736e-16          0.1 0.0090000155 0.00046214103  0.029899974 
number of iterations: 24594 
   18900    57.433741       14           12            2 1.2282768e-14 1.1864675e-16          0.1 0.0090000157 0.00047035025  0.029899974 
number of iterations: 35648 
   19000    58.224818       15           13            2 1.2489961e-14 1.1854624e-16          0.1 0.0090000162 0.00047869795  0.029899973 
number of iterations: 25206 
   19100    58.499878       16           14            2 1.2700648e-14 1.1844584e-16          0.1 0.0090000164 0.00048718647  0.029899973 
number of iterations: 25447 
   19200    58.772076       16           14            2 1.291489e-14 1.1834554e-16          0.1 0.0090000167 0.00049581818  0.029899972 
number of iterations: 25607 
   19300    59.036212       16           14            2 1.3132746e-14 1.1824533e-16          0.1  0.009000017 0.00050459549  0.029899972 
number of iterations: 25765 
   19400    59.311698       17           15            2 1.3354276e-14 1.1814524e-16          0.1 0.0090000173 0.00051352086  0.029899971 
number of iterations: 25924 
   19500    59.607883       17           15            2 1.3579544e-14 1.1804524e-16          0.1 0.0090000176 0.00052259679  0.029899971 
number of iterations: 26083 
   19600    59.904042       17           15            2 1.3808611e-14 1.1794535e-16          0.1 0.0090000179 0.00053182582   0.02989997 
number of iterations: 26243 
   19700    60.188644       17           15            2 1.4041543e-14 1.1784555e-16          0.1 0.0090000182 0.00054121053   0.02989997 
number of iterations: 26402 
   19800    60.479498       17           15            2 1.4278403e-14 1.1774587e-16          0.1 0.0090000185 0.00055075354  0.029899969 
number of iterations: 26563 
   19900    60.760454       17           15            2 1.451926e-14 1.1764628e-16          0.1 0.0090000188 0.00056045753  0.029899969 
number of iterations: 26723 
   20000    61.478772       17           15            2 1.4764179e-14 1.175468e-16          0.1 0.0090000191 0.00057032521  0.029899968 
number of iterations: 26884 
   20100    61.782638       17           15            2 1.5013229e-14 1.1744742e-16          0.1 0.0090000194 0.00058035935  0.029899968 
number of iterations: 27045 
   20200    62.072159       17           15            2 1.5266481e-14 1.1734815e-16          0.1 0.0090000198 0.00059056275  0.029899967 
number of iterations: 27206 
   20300    62.380032       17           15            2 1.5524004e-14 1.1724898e-16          0.1 0.0090000201 0.00060093827  0.029899967 
number of iterations: 27368 
   20400    62.714406       17           15            2 1.5785872e-14 1.1714991e-16          0.1 0.0090000204 0.0006114888  0.029899966 
number of iterations: 27530 
   20500    63.035914       17           15            2 1.6052157e-14 1.1705095e-16          0.1 0.0090000208 0.00062221731  0.029899965 
number of iterations: 27693 
   20600    63.321238       17           15            2 1.6322934e-14 1.1695209e-16          0.1 0.0090000211 0.00063312679  0.029899965 
number of iterations: 27856 
   20700    63.627095       17           15            2 1.6598278e-14 1.1685334e-16          0.1 0.0090000215 0.0006442203  0.029899964 
number of iterations: 28019 
   20800    63.921884       17           15            2 1.6878267e-14 1.1675469e-16          0.1 0.0090000218 0.00065550094  0.029899964 
number of iterations: 28182 
   20900    64.249241       18           16            2 1.716298e-14 1.1665615e-16          0.1 0.0090000222 0.00066697187  0.029899963 
number of iterations: 28346 
   21000    65.049018       18           16            2 1.7452494e-14 1.1655771e-16          0.1 0.0090000226 0.0006786363  0.029899962 
number of iterations: 28510 
   21100    65.403137       18           16            2 1.7746893e-14 1.1645938e-16          0.1  0.009000023 0.00069049749  0.029899962 
number of iterations: 28674 
   21200    65.735415       19           17            2 1.8046258e-14 1.1636116e-16          0.1 0.0090000234 0.00070255876  0.029899961 
number of iterations: 28839 
   21300    66.110701       19           17            2 1.8350672e-14 1.1626304e-16          0.1 0.0090000238 0.00071482349  0.029899961 
number of iterations: 29004 
   21400    66.471594       19           17            2 1.8660221e-14 1.1616503e-16          0.1 0.0090000242 0.0007272951   0.02989996 
number of iterations: 29170 
   21500    66.823905       20           18            2 1.8974993e-14 1.1606713e-16          0.1 0.0090000246 0.0007399771  0.029899959 
number of iterations: 29335 
   21600    67.134558       21           19            2 1.9295073e-14 1.1596933e-16          0.1  0.009000025 0.00075287302  0.029899958 
number of iterations: 29502 
   21700    67.454415       21           19            2 1.9620554e-14 1.1587164e-16          0.1 0.0090000254 0.00076598647  0.029899958 
number of iterations: 29668 
   21800    67.777141       21           19            2 1.9951524e-14 1.1577406e-16          0.1 0.0090000258 0.00077932113  0.029899957 
number of iterations: 29835 
   21900    68.118019       21           19            2 2.0288078e-14 1.1567659e-16          0.1 0.0090000263 0.00079288073  0.029899956 
number of iterations: 30002 
   22000    68.871321       22           20            2 2.0630308e-14 1.1557922e-16          0.1 0.0090000267 0.00080666906  0.029899956 
number of iterations: 33410 
   22100    69.310549       23           21            2 2.0978312e-14 1.1548196e-16          0.1 0.0090000271 0.00082068997  0.029899955 
number of iterations: 37313 
   22200    69.799431       23           21            2 2.1332186e-14 1.1538482e-16          0.1 0.0090000276 0.0008349474  0.029899954 
number of iterations: 30443 
   22300    70.156011       23           21            2 2.1692029e-14 1.1528778e-16          0.1 0.0090000281 0.00084944534  0.029899953 
number of iterations: 30671 
   22400      70.4901       24           22            2 2.2057943e-14 1.1519085e-16          0.1 0.0090000286 0.00086418783  0.029899953 
number of iterations: 30841 
   22500    70.799829       24           22            2 2.2430029e-14 1.1509403e-16          0.1 0.0090000291 0.00087917901  0.029899952 
number of iterations: 31010 
   22600    71.118127       24           22            2 2.2808391e-14 1.1499732e-16          0.1 0.0090000295 0.00089442306  0.029899951 
number of iterations: 31179 
   22700    71.464233       24           22            2 2.3193136e-14 1.1490072e-16          0.1   0.00900003 0.00090992426   0.02989995 
number of iterations: 31349 
   22800    71.834519       26           24            2 2.3584371e-14 1.1480424e-16          0.1 0.0090000306 0.00092568695  0.029899949 
number of iterations: 31518 
   22900    72.171185       26           24            2 2.3982205e-14 1.1470786e-16          0.1 0.0090000311 0.00094171553  0.029899948 
number of iterations: 34436 
   23000    72.954908       27           25            2 2.438675e-14 1.146116e-16          0.1 0.0090000315 0.00095801448  0.029899948 
number of iterations: 31121 
   23100    73.275875       27           25            2 2.479812e-14 1.1451545e-16          0.1  0.009000032 0.00097458838  0.029899947 
number of iterations: 31828 
   23200    73.607219       29           27            2 2.5216428e-14 1.1441941e-16          0.1 0.0090000325 0.00099144185  0.029899946 
number of iterations: 39201 
   23300      74.0689       29           27            2 2.5641793e-14 1.1432348e-16          0.1 0.0090000332 0.0010085796  0.029899945 
number of iterations: 32336 
   23400    74.425911       29           27            2 2.6074334e-14 1.1422767e-16          0.1 0.0090000338 0.0010260065  0.029899944 
number of iterations: 32543 
   23500    74.809659       30           28            2 2.651417e-14 1.1413197e-16          0.1 0.0090000344 0.0010437273  0.029899943 
number of iterations: 35399 
   23600    75.196819       30           28            2 2.6961426e-14 1.1403639e-16          0.1 0.0090000348  0.001061747  0.029899942 
number of iterations: 32159 
   23700    75.528949       30           28            2 2.7416226e-14 1.1394091e-16          0.1 0.0090000353 0.0010800708  0.029899941 
number of iterations: 32852 
   23800    75.851606       30           28            2 2.7878699e-14 1.1384556e-16          0.1 0.0090000359 0.0010987036   0.02989994 
number of iterations: 33037 
   23900    76.190323       30           28            2 2.8348972e-14 1.1375032e-16          0.1 0.0090000365 0.0011176507  0.029899939 
number of iterations: 33211 
   24000    77.068443       30           28            2 2.8827179e-14 1.1365519e-16          0.1 0.0090000371 0.0011369174  0.029899938 
number of iterations: 33385 
   24100    77.436294       30           28            2 2.9313452e-14 1.1356019e-16          0.1 0.0090000378 0.0011565091  0.029899937 
number of iterations: 33559 
   24200    77.808568       31           29            2 2.9807928e-14 1.1346529e-16          0.1 0.0090000384 0.0011764313  0.029899936 
number of iterations: 35056 
   24300    78.190614       33           31            2 3.0310744e-14 1.1337052e-16          0.1 0.0090000391 0.0011966896  0.029899935 
number of iterations: 33918 
   24400    78.559371       33           31            2 3.0822043e-14 1.1327586e-16          0.1 0.0090000397 0.0012172896  0.029899934 
number of iterations: 34106 
   24500    78.946141       33           31            2 3.1341967e-14 1.1318132e-16          0.1 0.0090000404 0.0012382371  0.029899933 
number of iterations: 34281 
   24600    79.322687       33           31            2 3.187066e-14 1.130869e-16          0.1 0.0090000411  0.001259538  0.029899932 
number of iterations: 34456 
   24700    79.701119       33           31            2 3.2408273e-14 1.129926e-16          0.1 0.0090000418 0.0012811981  0.029899931 
number of iterations: 34632 
   24800    80.078335       34           32            2 3.2954954e-14 1.1289842e-16          0.1 0.0090000425 0.0013032237  0.029899929 
number of iterations: 34808 
   24900    80.447071       35           33            2 3.3510856e-14 1.1280436e-16          0.1 0.0090000432 0.0013256207  0.029899928 
number of iterations: 34984 
   25000    81.235834       35           33            2 3.4076136e-14 1.1271042e-16          0.1 0.0090000439 0.0013483956  0.029899927 
number of iterations: 35160 
   25100    81.603185       35           33            2 3.4650951e-14 1.126166e-16          0.1 0.0090000447 0.0013715547  0.029899926 
number of iterations: 35337 
   25200    81.958929       36           34            2 3.5235463e-14 1.1252291e-16          0.1 0.0090000454 0.0013951044  0.029899924 
number of iterations: 35514 
   25300    82.344804       36           34            2 3.5829835e-14 1.1242933e-16          0.1 0.0090000462 0.0014190514  0.029899923 
number of iterations: 35691 
   25400    82.748576       37           35            2 3.6434232e-14 1.1233588e-16          0.1  0.009000047 0.0014434023  0.029899922 
number of iterations: 35869 
   25500    83.126216       37           35            2 3.7048825e-14 1.1224255e-16          0.1 0.0090000478  0.001468164  0.029899921 
number of iterations: 36046 
   25600    83.509545       37           35            2 3.7673786e-14 1.1214935e-16          0.1 0.0090000486 0.0014933434  0.029899919 
number of iterations: 36224 
   25700    83.898276       37           35            2 3.8309288e-14 1.1205627e-16          0.1 0.0090000494 0.0015189475  0.029899918 
number of iterations: 36403 
   25800    84.270794       40           38            2 3.8955511e-14 1.1196331e-16          0.1 0.0090000502 0.0015449835  0.029899916 
number of iterations: 36581 
   25900    84.706836       40           38            2 3.9612634e-14 1.1187048e-16          0.1 0.0090000511 0.0015714587  0.029899915 
number of iterations: 36760 
   26000    85.495496       40           38            2 4.0280842e-14 1.1177778e-16          0.1 0.0090000519 0.0015983805  0.029899914 
number of iterations: 40782 
   26100     85.93001       42           40            2 4.0960322e-14 1.1168521e-16          0.1  0.009000053 0.0016257565  0.029899912 
number of iterations: 38673 
   26200    86.380637       43           41            2 4.1651264e-14 1.1159276e-16          0.1 0.0090000536 0.0016535942  0.029899911 
number of iterations: 36842 
   26300    86.766971       45           43            2 4.2353861e-14 1.1150044e-16          0.1 0.0090000545 0.0016819015  0.029899909 
number of iterations: 37378 
   26400    87.163368       46           44            2 4.3068309e-14 1.1140826e-16          0.1 0.0090000554 0.0017106863  0.029899908 
number of iterations: 37565 
   26500    87.575164       46           44            2 4.3794809e-14 1.113162e-16          0.1 0.0090000563 0.0017399567  0.029899906 
number of iterations: 37746 
   26600    88.032919       47           45            2 4.4533565e-14 1.1122427e-16          0.1 0.0090000573 0.0017697209  0.029899905 
number of iterations: 38744 
   26700    88.441405       47           45            2 4.5284782e-14 1.1113247e-16          0.1  0.009000058 0.0017999871  0.029899903 
number of iterations: 39211 
   26800    88.878794       47           45            2 4.6048671e-14 1.1104081e-16          0.1 0.0090000588 0.0018307638  0.029899902 
number of iterations: 37676 
   26900    89.301749       47           45            2 4.6825446e-14 1.1094928e-16          0.1 0.0090000597 0.0018620597  0.029899901 
number of iterations: 38181 
   27000    90.209143       48           46            2 4.7615323e-14 1.1085788e-16          0.1 0.0090000607 0.0018938835  0.029899899 
number of iterations: 38369 
   27100    90.636687       49           47            2 4.8418525e-14 1.1076662e-16          0.1 0.0090000617 0.0019262442  0.029899897 
number of iterations: 42483 
   27200    91.198343       49           47            2 4.9235276e-14 1.1067549e-16          0.1 0.0090000629 0.0019591507  0.029899895 
number of iterations: 42115 
   27300    91.676902       50           48            2 5.0065804e-14 1.1058456e-16          0.1  0.009000064 0.0019926123  0.029899894 
number of iterations: 38474 
   27400    92.095798       52           50            2 5.0910342e-14 1.1049377e-16          0.1 0.0090000651 0.0020266383  0.029899892 
number of iterations: 38933 
   27500     92.57234       54           52            2 5.1769126e-14 1.1040312e-16          0.1  0.009000066 0.0020612384   0.02989989 
number of iterations: 39022 
   27600     92.99412       55           53            2 5.2642396e-14 1.1031261e-16          0.1  0.009000067  0.002096422  0.029899889 
number of iterations: 38976 
   27700    93.462236       56           54            2 5.3530398e-14 1.1022224e-16          0.1 0.0090000681 0.0021321992  0.029899887 
number of iterations: 39313 
   27800    93.902907       57           55            2 5.4433378e-14 1.1013201e-16          0.1 0.0090000693 0.0021685799  0.029899885 
number of iterations: 39500 
   27900    94.390344       59           57            2 5.5351591e-14 1.1004193e-16          0.1 0.0090000704 0.0022055743  0.029899883 
number of iterations: 39684 
   28000    95.298967       59           57            2 5.6285292e-14 1.0995198e-16          0.1 0.0090000716 0.0022431927  0.029899881 
number of iterations: 39869 
   28100    95.743299       59           57            2 5.7234744e-14 1.0986218e-16          0.1 0.0090000728 0.0022814457  0.029899879 
number of iterations: 40054 
   28200    96.198229       60           58            2 5.8200212e-14 1.0977253e-16          0.1  0.009000074 0.0023203439  0.029899877 
number of iterations: 45613 
   28300    96.711072       61           59            2 5.9181965e-14 1.0968311e-16          0.1 0.0090000753 0.0023598983  0.029899875 
number of iterations: 42862 
   28400    97.201234       62           60            2 6.0180279e-14 1.0959383e-16          0.1 0.0090000767 0.0024001199  0.029899872 
number of iterations: 39900 
   28500    97.680953       63           61            2 6.1195434e-14 1.0950471e-16          0.1 0.0090000779 0.0024410201   0.02989987 
number of iterations: 40392 
   28600    98.195951       64           62            2 6.2227713e-14 1.0941573e-16          0.1 0.0090000792 0.0024826101  0.029899868 
number of iterations: 40672 
   28700    98.697966       64           62            2 6.3277404e-14 1.0932691e-16          0.1 0.0090000805 0.0025249017  0.029899866 
number of iterations: 40860 
   28800    99.154294       64           62            2 6.4344803e-14 1.0923824e-16          0.1 0.0090000819 0.0025679067  0.029899864 
number of iterations: 41046 
   28900    99.627007       65           63            2 6.5430207e-14 1.0914973e-16          0.1 0.0090000833 0.0026116371  0.029899862 
number of iterations: 41233 
   29000    100.57826       65           63            2 6.653392e-14 1.0906136e-16          0.1 0.0090000847 0.0026561052  0.029899859 
number of iterations: 41210 
   29100    101.06724       67           65            2 6.7656251e-14 1.0897316e-16          0.1 0.0090000859 0.0027013235  0.029899857 
number of iterations: 50538 
   29200    101.69142       68           66            2 6.8797514e-14 1.0888504e-16          0.1 0.0090000873 0.0027473044  0.029899855 
number of iterations: 40523 
   29300    102.14987       70           68            2 6.9958029e-14 1.0879713e-16          0.1 0.0090000887  0.002794061  0.029899852 
number of iterations: 41643 
   29400     102.6688       71           69            2 7.113812e-14 1.0870939e-16          0.1 0.0090000902 0.0028416064   0.02989985 
number of iterations: 42147 
   29500    103.14492       73           71            2 7.2338117e-14 1.086218e-16          0.1 0.0090000917 0.0028899537  0.029899847 
number of iterations: 42341 
   29600    103.65478       75           73            2 7.3558356e-14 1.0853437e-16          0.1 0.0090000933 0.0029391166  0.029899845 
number of iterations: 42529 
   29700    104.18414       75           73            2 7.4799179e-14 1.0844711e-16          0.1 0.0090000948 0.0029891088  0.029899842 
number of iterations: 42718 
   29800    104.67294       75           73            2 7.6060933e-14 1.0836001e-16          0.1 0.0090000964 0.0030399443   0.02989984 
number of iterations: 42906 
   29900    105.19208       76           74            2 7.7343971e-14 1.0827308e-16          0.1 0.0090000981 0.0030916373  0.029899837 
number of iterations: 47642 
   30000    106.17216       79           77            2 7.8648652e-14 1.0818627e-16          0.1 0.0090000997 0.0031442023  0.029899834 
number of iterations: 43396 
   30100    106.65512       79           77            2 7.9975341e-14 1.0809964e-16          0.1 0.0090001015  0.003197654  0.029899831 
number of iterations: 47466 
   30200    107.17688       80           78            2 8.132441e-14 1.0801317e-16          0.1 0.0090001035 0.0032520074  0.029899828 
number of iterations: 43827 
   30300    107.66166       82           80            2 8.2696235e-14 1.0792688e-16          0.1 0.0090001053 0.0033072776  0.029899825 
number of iterations: 43333 
   30400    108.17631       83           81            2  8.40912e-14 1.0784076e-16          0.1 0.0090001068 0.0033634801  0.029899822 
number of iterations: 44040 
   30500    108.67658       85           83            2 8.5509697e-14 1.0775481e-16          0.1 0.0090001086 0.0034206307  0.029899819 
number of iterations: 44324 
   30600    109.21221       87           85            2 8.6952122e-14 1.0766904e-16          0.1 0.0090001104 0.0034787453  0.029899816 
number of iterations: 44516 
   30700    109.77199       87           85            2 8.8418878e-14 1.0758344e-16          0.1 0.0090001123 0.0035378403  0.029899813 
number of iterations: 47416 
   30800    110.31631       88           86            2 8.9910377e-14 1.0749802e-16          0.1 0.0090001144 0.0035979321   0.02989981 
number of iterations: 43740 
   30900     110.8555       91           89            2 9.1427034e-14 1.0741278e-16          0.1 0.0090001161 0.0036590376  0.029899807 
number of iterations: 45046 
   31000    111.84142       92           90            2 9.2969276e-14 1.0732772e-16          0.1 0.0090001181 0.0037211738  0.029899804 
number of iterations: 47980 
   31100    112.36316       95           93            2 9.4537533e-14 1.0724284e-16          0.1 0.0090001203 0.0037843581    0.0298998 
number of iterations: 44194 
   31200    112.89553       98           96            2 9.6132244e-14 1.0715814e-16          0.1 0.0090001221 0.0038486083  0.029899797 
number of iterations: 44544 
   31300    113.43634       98           96            2 9.7753856e-14 1.0707363e-16          0.1  0.009000124 0.0039139423  0.029899794 
number of iterations: 47201 
   31400    113.95107      100           98            2 9.9402821e-14 1.0698931e-16          0.1 0.0090001261 0.0039803784   0.02989979 
number of iterations: 50498 
   31500     114.5304      101           99            2 1.010796e-13 1.0690518e-16          0.1 0.0090001286 0.0040479352  0.029899786 
number of iterations: 39641 
   31600    115.12813      104          102            2 1.0278467e-13 1.0682127e-16          0.1 0.0090001306 0.0041166315  0.029899783 
number of iterations: 48688 
   31700    115.70439      104          102            2 1.045185e-13 1.0673756e-16          0.1  0.009000133 0.0041864867  0.029899779 
number of iterations: 46624 
   31800      116.266      107          105            2 1.0628157e-13 1.0665404e-16          0.1 0.0090001353 0.0042575202  0.029899775 
number of iterations: 46821 
   31900    116.87394      108          106            2 1.0807439e-13 1.0657072e-16          0.1 0.0090001375 0.0043297519  0.029899771 
number of iterations: 45283 
   32000    117.85549      112          110            2 1.0989745e-13 1.0648759e-16          0.1 0.0090001397 0.0044032021  0.029899767 
number of iterations: 47167 
   32100    118.46319      115          113            2 1.1175126e-13 1.0640467e-16          0.1 0.0090001421 0.0044778913  0.029899764 
number of iterations: 47366 
   32200    119.08424      115          113            2 1.1363634e-13 1.0632195e-16          0.1 0.0090001445 0.0045538404   0.02989976 
number of iterations: 43285 
   32300    119.58483      117          115            2 1.1555322e-13 1.062395e-16          0.1 0.0090001469 0.0046310706  0.029899756 
number of iterations: 49261 
   32400    120.22962      118          116            2 1.1750243e-13 1.0615726e-16          0.1 0.0090001495 0.0047096036  0.029899751 
number of iterations: 47848 
   32500    120.79345      118          116            2 1.1948453e-13 1.0607523e-16          0.1 0.0090001521 0.0047894613  0.029899747 
number of iterations: 47041 
   32600    121.34056      121          119            2 1.2150006e-13 1.0599342e-16          0.1 0.0090001542 0.0048706661  0.029899743 
number of iterations: 48047 
   32700    121.86979      124          122            2 1.2354959e-13 1.0591181e-16          0.1 0.0090001568 0.0049532407  0.029899739 
number of iterations: 48336 
   32800     122.4486      128          126            2 1.2563369e-13 1.0583042e-16          0.1 0.0090001594 0.0050372083  0.029899735 
number of iterations: 46910 
   32900    123.00194      130          128            2 1.2775295e-13 1.0574925e-16          0.1 0.0090001619 0.0051225922  0.029899731 
number of iterations: 51458 
   33000    124.13348      131          129            2 1.2990795e-13 1.056683e-16          0.1 0.0090001649 0.0052094164  0.029899726 
number of iterations: 48925 
   33100    124.77886      134          132            2 1.3209931e-13 1.0558757e-16          0.1 0.0090001676 0.0052977053  0.029899721 
number of iterations: 50538 
   33200    125.44311      136          134            2 1.3432763e-13 1.0550706e-16          0.1 0.0090001706 0.0053874834  0.029899716 
number of iterations: 49342 
   33300    126.06999      136          134            2 1.3659355e-13 1.0542678e-16          0.1 0.0090001735 0.0054787759  0.029899711 
number of iterations: 49539 
   33400     126.6587      137          135            2 1.3889768e-13 1.0534673e-16          0.1 0.0090001764 0.0055716085  0.029899706 
number of iterations: 52284 
   33500    127.26519      138          136            2 1.4124068e-13 1.0526691e-16          0.1 0.0090001797 0.0056660069  0.029899701 
number of iterations: 49978 
   33600     127.8756      139          137            2 1.4362321e-13 1.0518733e-16          0.1 0.0090001827 0.0057619978  0.029899696 
number of iterations: 43384 
   33700    128.44084      142          140            2 1.4604592e-13 1.0510803e-16          0.1 0.0090001856 0.0058596079  0.029899691 
number of iterations: 44777 
   33800     129.0777      144          142            2 1.485095e-13 1.0502902e-16          0.1 0.0090001887 0.0059588645  0.029899686 
number of iterations: 44782 
   33900    129.68381      146          144            2 1.5101464e-13 1.0495031e-16          0.1 0.0090001919 0.0060597954  0.029899681 
number of iterations: 50522 
   34000    130.89282      148          146            2 1.5356204e-13 1.0487184e-16          0.1 0.0090001952 0.0061624288  0.029899675 
number of iterations: 50726 
   34100     131.4744      150          148            2 1.5615241e-13 1.0479363e-16          0.1 0.0090001985 0.0062667936   0.02989967 
number of iterations: 51819 
   34200    132.05699      154          152            2 1.5878647e-13 1.047158e-16          0.1 0.0090002018 0.0063729188  0.029899664 
number of iterations: 53078 
   34300    132.70826      163          161            2 1.6146496e-13 1.0463821e-16          0.1 0.0090002053 0.0064808342  0.029899658 
number of iterations: 52494 
   34400    133.32542      168          166            2 1.6418864e-13 1.0456089e-16          0.1  0.009000209   0.00659057  0.029899652 
number of iterations: 49263 
   34500     133.9119      172          170            2 1.6695827e-13 1.0448382e-16          0.1 0.0090002122 0.0067021569  0.029899647 
number of iterations: 52096 
   34600    134.52267      176          174            2 1.6977461e-13 1.0440703e-16          0.1 0.0090002158  0.006815626  0.029899641 
number of iterations: 51741 
   34700    135.16129      177          175            2 1.7263846e-13 1.043305e-16          0.1 0.0090002195 0.0069310092  0.029899635 
number of iterations: 53261 
   34800    135.75834      178          176            2 1.7555062e-13 1.0425424e-16          0.1 0.0090002233 0.0070483388  0.029899628 
number of iterations: 51513 
   34900    136.36583      182          180            2 1.785119e-13 1.0417825e-16          0.1  0.009000227 0.0071676475  0.029899622 
number of iterations: 46952 
   35000    137.39748      184          182            2 1.8152313e-13 1.0410258e-16          0.1 0.0090002306 0.0072889688  0.029899616 
Loop time of 137.398 on 6 procs for 35000 steps with 184 atoms

Performance: 220091297.861 tau/day, 254.735 timesteps/s
94.2% CPU use with 6 MPI tasks x no OpenMP threads

MPI task timing breakdown:
Section |  min time  |  avg time  |  max time  |%varavg| %total
---------------------------------------------------------------
Pair    | 0.024556   | 0.032267   | 0.065735   |   8.4 |  0.02
Neigh   | 14.761     | 15.795     | 17.616     |  31.9 | 11.50
Comm    | 15.347     | 15.358     | 15.38      |   0.4 | 11.18
Output  | 11.099     | 11.101     | 11.102     |   0.0 |  8.08
Modify  | 92.963     | 94.535     | 95.415     |  11.3 | 68.80
Other   |            | 0.5766     |            |       |  0.42

Nlocal:    30.6667 ave 167 max 0 min
Histogram: 4 1 0 0 0 0 0 0 0 1
Nghost:    8 ave 35 max 0 min
Histogram: 4 0 0 1 0 0 0 0 0 1
Neighs:    102 ave 551 max 0 min
Histogram: 4 1 0 0 0 0 0 0 0 1

Total # of neighbors = 612
Ave neighs/atom = 3.32609
Neighbor list builds = 402
Dangerous builds = 0
Total wall time: 0:02:18
