 NUFEB Simulation

     50 atoms 
     2 atom types 
     4 nutrients 

  0.0e-4   1.00e-04  xlo xhi 
  0.0e-4   1.00e-04  ylo yhi 
  0.0e-4   5.00e-05  zlo zhi 

 Atoms 

     1 1 1.83e-06  370 1.66e-05 8.26e-05 2.38e-06 1.83e-06 
     2 1 1.54e-06  370 4.48e-05 6.51e-06 8.19e-06 1.54e-06 
     3 1 1.59e-06  370 5.62e-05 7.31e-05 9.14e-06 1.59e-06 
     4 1 1.45e-06  370 4.02e-05 8.35e-05 1.37e-05 1.45e-06 
     5 1 1.38e-06  370 4.59e-05 2.63e-05 5.76e-06 1.38e-06 
     6 1 1.87e-06  370 5.21e-05 8.86e-05 4.47e-05 1.87e-06 
     7 1 1.68e-06  370 9.62e-05 7.44e-05 4.28e-05 1.68e-06 
     8 1 1.68e-06  370 4.30e-05 7.76e-05 3.26e-06 1.68e-06 
     9 1 1.62e-06  370 4.93e-05 8.04e-05 1.81e-05 1.62e-06 
     10 1 1.38e-06  370 7.40e-05 1.62e-05 1.54e-06 1.38e-06 
     11 1 1.76e-06  370 2.70e-05 3.21e-05 3.98e-05 1.76e-06 
     12 1 1.76e-06  370 6.22e-05 6.27e-06 2.85e-05 1.76e-06 
     13 1 1.88e-06  370 4.98e-05 6.68e-05 2.65e-05 1.88e-06 
     14 1 1.58e-06  370 9.53e-05 2.67e-05 1.63e-05 1.58e-06 
     15 1 1.92e-06  370 6.00e-05 2.12e-05 2.63e-06 1.92e-06 
     16 1 1.44e-06  370 1.36e-05 7.18e-05 2.39e-06 1.44e-06 
     17 1 1.86e-06  370 1.82e-05 3.63e-05 2.27e-06 1.86e-06 
     18 1 1.51e-06  370 5.00e-05 9.49e-05 2.82e-06 1.51e-06 
     19 1 1.59e-06  370 9.39e-05 2.33e-05 3.49e-05 1.59e-06 
     20 1 1.60e-06  370 6.83e-05 8.81e-05 3.53e-05 1.60e-06 
     21 1 1.89e-06  370 5.73e-05 1.09e-05 4.53e-05 1.89e-06 
     22 1 1.84e-06  370 2.01e-05 8.04e-05 2.19e-05 1.84e-06 
     23 1 1.58e-06  370 5.26e-05 8.04e-05 9.26e-06 1.58e-06 
     24 1 1.76e-06  370 3.44e-06 8.89e-05 4.18e-05 1.76e-06 
     25 1 1.73e-06  370 2.10e-05 7.93e-05 1.37e-05 1.73e-06 
     26 1 1.90e-06  370 7.27e-05 8.95e-05 3.75e-05 1.90e-06 
     27 1 1.70e-06  370 8.90e-05 1.93e-05 3.78e-05 1.70e-06 
     28 1 1.78e-06  370 3.94e-05 7.58e-05 3.36e-05 1.78e-06 
     29 1 1.89e-06  370 2.44e-05 1.89e-05 6.10e-06 1.89e-06 
     30 1 1.59e-06  370 4.22e-06 4.43e-05 4.48e-05 1.59e-06 
     31 1 1.85e-06  370 4.92e-05 3.25e-05 3.40e-05 1.85e-06 
     32 1 1.69e-06  370 8.18e-05 6.86e-05 4.46e-05 1.69e-06 
     33 1 1.78e-06  370 3.95e-05 6.61e-06 3.99e-05 1.78e-06 
     34 1 1.55e-06  370 7.44e-05 3.34e-05 3.95e-05 1.55e-06 
     35 1 1.48e-06  370 6.35e-05 3.17e-05 1.22e-05 1.48e-06 
     36 1 1.75e-06  370 2.18e-06 6.71e-05 3.00e-05 1.75e-06 
     37 1 1.63e-06  370 7.45e-05 2.72e-05 1.18e-05 1.63e-06 
     38 1 1.91e-06  370 5.55e-05 3.26e-05 2.21e-05 1.91e-06 
     39 1 1.76e-06  370 1.63e-05 1.20e-05 2.06e-05 1.76e-06 
     40 1 1.65e-06  370 6.57e-05 7.91e-05 4.75e-05 1.65e-06 
     41 1 1.89e-06  370 1.69e-05 7.83e-05 2.97e-05 1.89e-06 
     42 1 1.40e-06  370 5.82e-05 9.79e-05 3.48e-05 1.40e-06 
     43 1 1.38e-06  370 3.08e-05 8.67e-05 1.54e-05 1.38e-06 
     44 1 1.87e-06  370 2.70e-05 1.39e-05 2.08e-05 1.87e-06 
     45 1 1.81e-06  370 7.84e-05 6.07e-05 6.19e-06 1.81e-06 
     46 1 1.80e-06  370 9.29e-05 8.84e-05 1.02e-05 1.80e-06 
     47 1 1.79e-06  370 7.94e-05 6.26e-05 5.81e-06 1.79e-06 
     48 1 1.51e-06  370 1.18e-05 8.07e-05 7.32e-06 1.51e-06 
     49 1 1.56e-06  370 7.40e-05 1.14e-05 3.36e-05 1.56e-06 
     50 1 1.66e-06  370 4.96e-05 1.67e-05 1.14e-05 1.66e-06 

 Nutrients 

     1 sub g nn nn nn 1.00e-01 1.00e-01 
     2 o2 l nn nn nd 9.00e-03 9.00e-03 
     3 suc l nn nn nn 3.42e-20 3.42e-20 
     4 co2 l nn nn nd 2.99e-02 2.99e-02 

 Type Name 

     1 cyano  
     2 ecw  

 Diffusion Coeffs 

     sub 0 
     o2 2.3e-09 
     suc 5.2e-10 
     co2 1.9e-09 

 Growth Rate 

     cyano 2.047e-05 
     ecw 6.71e-05 

 Ks 

     cyano 0.00035 0.0002 0.01 0.000138 
     ecw 0 0.001 3.6 0.05 

 Yield 

     cyano 0.55 
     ecw 0.43 

 Maintenance 

     cyano 0 
     ecw 9.5e-07 

 Decay 

     cyano 0 
     ecw 0 



