ITEM: TIMESTEP
0
ITEM: NUMBER OF ATOMS
50
ITEM: BOX BOUNDS ff ff ff
0.0000000000000000e+00 1.0000000000000000e-04
0.0000000000000000e+00 1.0000000000000000e-04
0.0000000000000000e+00 5.0000000000000002e-05
ITEM: ATOMS id type diameter x y z 
43 1 1.67e-06 1.38e-05 3.06e-05 4.72e-06 
12 1 1.74e-06 4.38e-05 4.04e-05 8.48e-06 
11 1 1.61e-06 2.8e-06 4.05e-06 9.31e-06 
18 1 1.83e-06 2.48e-05 8.09e-06 1.97e-05 
5 1 1.37e-06 3.02e-05 7.54e-06 2.15e-05 
24 1 1.45e-06 3.04e-06 2.48e-05 3.22e-05 
31 1 1.42e-06 3.47e-05 1.54e-05 3.95e-05 
4 1 1.73e-06 2.25e-05 6.41e-05 9.27e-06 
2 1 1.52e-06 4.05e-05 7.42e-05 1.07e-05 
28 1 1.6e-06 7.99e-06 9.48e-05 1.43e-05 
39 1 1.55e-06 5.86e-06 6.85e-05 1.98e-05 
10 1 1.89e-06 6.97e-06 8.68e-05 2.13e-05 
3 1 1.79e-06 2.11e-05 8.65e-05 2.17e-05 
48 1 1.66e-06 4.21e-05 5.2e-05 2.7e-05 
8 1 1.79e-06 1.47e-05 7.13e-05 2.79e-05 
34 1 1.43e-06 3.19e-05 8.96e-05 3.39e-05 
23 1 1.61e-06 2.27e-05 6.78e-05 3.51e-05 
13 1 1.65e-06 2.29e-06 8.68e-05 3.69e-05 
27 1 1.91e-06 8.04e-06 6e-05 3.99e-05 
38 1 1.64e-06 1.3e-05 6.7e-05 4.1e-05 
32 1 1.63e-06 3.72e-05 7.55e-05 4.14e-05 
7 1 1.52e-06 2.18e-06 9.82e-05 4.48e-05 
22 1 1.9e-06 7.65e-05 1.82e-05 5.24e-06 
47 1 1.77e-06 8.8e-05 4.97e-05 6.92e-06 
29 1 1.6e-06 9.59e-05 2.97e-05 7.3e-06 
37 1 1.79e-06 7.76e-05 1.42e-05 1.03e-05 
26 1 1.48e-06 6.53e-05 4.2e-05 1.09e-05 
44 1 1.57e-06 6.56e-05 4.57e-05 1.94e-05 
40 1 1.89e-06 8.75e-05 1.8e-05 2.12e-05 
16 1 1.47e-06 7.79e-05 3.76e-05 2.19e-05 
41 1 1.67e-06 5.94e-05 3.77e-05 2.28e-05 
6 1 1.56e-06 9.15e-05 3.72e-05 2.31e-05 
46 1 1.49e-06 5.31e-05 2.95e-05 2.88e-05 
30 1 1.73e-06 7.13e-05 3.31e-05 3.33e-05 
25 1 1.5e-06 5.68e-05 4.92e-05 3.61e-05 
36 1 1.8e-06 9.15e-05 3.77e-05 3.79e-05 
14 1 1.41e-06 7.94e-05 8.38e-06 3.83e-05 
20 1 1.76e-06 6.13e-05 2.25e-05 4.68e-05 
42 1 1.86e-06 7.33e-05 9.69e-05 6.5e-06 
15 1 1.91e-06 7.34e-05 8.45e-05 9.1e-06 
33 1 1.6e-06 9.47e-05 6.26e-05 1.11e-05 
17 1 1.81e-06 6.09e-05 9.48e-05 1.17e-05 
49 1 1.76e-06 5.32e-05 8.79e-05 1.46e-05 
21 1 1.52e-06 7.96e-05 7.22e-05 2.23e-05 
35 1 1.89e-06 9.21e-05 6.11e-05 2.69e-05 
1 1 1.66e-06 7.42e-05 6.77e-05 3.28e-05 
19 1 1.67e-06 8.95e-05 8.99e-05 3.31e-05 
45 1 1.89e-06 6.18e-05 6.06e-05 3.82e-05 
9 1 1.76e-06 9.51e-05 5.23e-05 3.93e-05 
50 1 1.7e-06 5.62e-05 6.28e-05 4.79e-05 
ITEM: TIMESTEP
100
ITEM: NUMBER OF ATOMS
50
ITEM: BOX BOUNDS ff ff ff
0.0000000000000000e+00 1.0000000000000000e-04
0.0000000000000000e+00 1.0000000000000000e-04
0.0000000000000000e+00 5.0000000000000002e-05
ITEM: ATOMS id type diameter x y z 
43 1 1.68078e-06 1.38e-05 3.06e-05 4.72e-06 
12 1 1.75123e-06 4.38e-05 4.04e-05 8.48e-06 
11 1 1.62039e-06 2.8e-06 4.05e-06 9.31e-06 
18 1 1.84181e-06 2.48e-05 8.09e-06 1.97e-05 
5 1 1.37884e-06 3.02e-05 7.54e-06 2.15e-05 
24 1 1.45936e-06 3.04e-06 2.48e-05 3.22e-05 
31 1 1.42917e-06 3.47e-05 1.54e-05 3.95e-05 
4 1 1.74117e-06 2.25e-05 6.41e-05 9.27e-06 
2 1 1.52981e-06 4.05e-05 7.42e-05 1.07e-05 
28 1 1.61033e-06 7.99e-06 9.48e-05 1.43e-05 
39 1 1.56001e-06 5.86e-06 6.85e-05 1.98e-05 
10 1 1.9022e-06 6.97e-06 8.68e-05 2.13e-05 
3 1 1.80156e-06 2.11e-05 8.65e-05 2.17e-05 
48 1 1.67072e-06 4.21e-05 5.2e-05 2.7e-05 
8 1 1.80156e-06 1.47e-05 7.13e-05 2.79e-05 
34 1 1.43923e-06 3.19e-05 8.96e-05 3.39e-05 
23 1 1.62039e-06 2.27e-05 6.78e-05 3.51e-05 
13 1 1.66065e-06 2.29e-06 8.68e-05 3.69e-05 
27 1 1.92233e-06 8.04e-06 6e-05 3.99e-05 
38 1 1.65059e-06 1.3e-05 6.7e-05 4.1e-05 
32 1 1.64052e-06 3.72e-05 7.55e-05 4.14e-05 
7 1 1.52981e-06 2.18e-06 9.82e-05 4.48e-05 
22 1 1.91227e-06 7.65e-05 1.82e-05 5.24e-06 
47 1 1.78143e-06 8.8e-05 4.97e-05 6.92e-06 
29 1 1.61033e-06 9.59e-05 2.97e-05 7.3e-06 
37 1 1.80156e-06 7.76e-05 1.42e-05 1.03e-05 
26 1 1.48955e-06 6.53e-05 4.2e-05 1.09e-05 
44 1 1.58014e-06 6.56e-05 4.57e-05 1.94e-05 
40 1 1.9022e-06 8.75e-05 1.8e-05 2.12e-05 
16 1 1.47949e-06 7.79e-05 3.76e-05 2.19e-05 
41 1 1.68078e-06 5.94e-05 3.77e-05 2.28e-05 
6 1 1.57007e-06 9.15e-05 3.72e-05 2.31e-05 
46 1 1.49962e-06 5.31e-05 2.95e-05 2.88e-05 
30 1 1.74117e-06 7.13e-05 3.31e-05 3.33e-05 
25 1 1.50968e-06 5.68e-05 4.92e-05 3.61e-05 
36 1 1.81162e-06 9.15e-05 3.77e-05 3.79e-05 
14 1 1.4191e-06 7.94e-05 8.38e-06 3.83e-05 
20 1 1.77136e-06 6.13e-05 2.25e-05 4.68e-05 
42 1 1.87201e-06 7.33e-05 9.69e-05 6.5e-06 
15 1 1.92233e-06 7.34e-05 8.45e-05 9.1e-06 
33 1 1.61033e-06 9.47e-05 6.26e-05 1.11e-05 
17 1 1.82168e-06 6.09e-05 9.48e-05 1.17e-05 
49 1 1.77136e-06 5.32e-05 8.79e-05 1.46e-05 
21 1 1.52981e-06 7.96e-05 7.22e-05 2.23e-05 
35 1 1.9022e-06 9.21e-05 6.11e-05 2.69e-05 
1 1 1.67072e-06 7.42e-05 6.77e-05 3.28e-05 
19 1 1.68078e-06 8.95e-05 8.99e-05 3.31e-05 
45 1 1.9022e-06 6.18e-05 6.06e-05 3.82e-05 
9 1 1.77136e-06 9.51e-05 5.23e-05 3.93e-05 
50 1 1.71097e-06 5.62e-05 6.28e-05 4.79e-05 
ITEM: TIMESTEP
200
ITEM: NUMBER OF ATOMS
50
ITEM: BOX BOUNDS ff ff ff
0.0000000000000000e+00 1.0000000000000000e-04
0.0000000000000000e+00 1.0000000000000000e-04
0.0000000000000000e+00 5.0000000000000002e-05
ITEM: ATOMS id type diameter x y z 
43 1 1.69163e-06 1.38e-05 3.06e-05 4.72e-06 
12 1 1.76254e-06 4.38e-05 4.04e-05 8.48e-06 
11 1 1.63085e-06 2.8e-06 4.05e-06 9.31e-06 
18 1 1.8537e-06 2.48e-05 8.09e-06 1.97e-05 
5 1 1.38775e-06 3.02e-05 7.54e-06 2.15e-05 
24 1 1.46878e-06 3.04e-06 2.48e-05 3.22e-05 
31 1 1.43839e-06 3.47e-05 1.54e-05 3.95e-05 
4 1 1.75241e-06 2.25e-05 6.41e-05 9.27e-06 
2 1 1.53969e-06 4.05e-05 7.42e-05 1.07e-05 
28 1 1.62073e-06 7.99e-06 9.48e-05 1.43e-05 
39 1 1.57008e-06 5.86e-06 6.85e-05 1.98e-05 
10 1 1.91448e-06 6.97e-06 8.68e-05 2.13e-05 
3 1 1.81319e-06 2.11e-05 8.65e-05 2.17e-05 
48 1 1.6815e-06 4.21e-05 5.2e-05 2.7e-05 
8 1 1.81319e-06 1.47e-05 7.13e-05 2.79e-05 
34 1 1.44852e-06 3.19e-05 8.96e-05 3.39e-05 
23 1 1.63085e-06 2.27e-05 6.78e-05 3.51e-05 
13 1 1.67137e-06 2.29e-06 8.68e-05 3.69e-05 
27 1 1.93474e-06 8.04e-06 6e-05 3.99e-05 
38 1 1.66124e-06 1.3e-05 6.7e-05 4.1e-05 
32 1 1.65111e-06 3.72e-05 7.55e-05 4.14e-05 
7 1 1.53969e-06 2.18e-06 9.82e-05 4.48e-05 
22 1 1.92461e-06 7.65e-05 1.82e-05 5.24e-06 
47 1 1.79293e-06 8.8e-05 4.97e-05 6.92e-06 
29 1 1.62073e-06 9.59e-05 2.97e-05 7.3e-06 
37 1 1.81319e-06 7.76e-05 1.42e-05 1.03e-05 
26 1 1.49917e-06 6.53e-05 4.2e-05 1.09e-05 
44 1 1.59034e-06 6.56e-05 4.57e-05 1.94e-05 
40 1 1.91448e-06 8.75e-05 1.8e-05 2.12e-05 
16 1 1.48904e-06 7.79e-05 3.76e-05 2.19e-05 
41 1 1.69163e-06 5.94e-05 3.77e-05 2.28e-05 
6 1 1.58021e-06 9.15e-05 3.72e-05 2.31e-05 
46 1 1.5093e-06 5.31e-05 2.95e-05 2.88e-05 
30 1 1.75241e-06 7.13e-05 3.31e-05 3.33e-05 
25 1 1.51943e-06 5.68e-05 4.92e-05 3.61e-05 
36 1 1.82332e-06 9.15e-05 3.77e-05 3.79e-05 
14 1 1.42826e-06 7.94e-05 8.38e-06 3.83e-05 
20 1 1.7828e-06 6.13e-05 2.25e-05 4.68e-05 
42 1 1.88409e-06 7.33e-05 9.69e-05 6.5e-06 
15 1 1.93474e-06 7.34e-05 8.45e-05 9.1e-06 
33 1 1.62073e-06 9.47e-05 6.26e-05 1.11e-05 
17 1 1.83345e-06 6.09e-05 9.48e-05 1.17e-05 
49 1 1.7828e-06 5.32e-05 8.79e-05 1.46e-05 
21 1 1.53969e-06 7.96e-05 7.22e-05 2.23e-05 
35 1 1.91448e-06 9.21e-05 6.11e-05 2.69e-05 
1 1 1.6815e-06 7.42e-05 6.77e-05 3.28e-05 
19 1 1.69163e-06 8.95e-05 8.99e-05 3.31e-05 
45 1 1.91448e-06 6.18e-05 6.06e-05 3.82e-05 
9 1 1.7828e-06 9.51e-05 5.23e-05 3.93e-05 
50 1 1.72202e-06 5.62e-05 6.28e-05 4.79e-05 
ITEM: TIMESTEP
300
ITEM: NUMBER OF ATOMS
50
ITEM: BOX BOUNDS ff ff ff
0.0000000000000000e+00 1.0000000000000000e-04
0.0000000000000000e+00 1.0000000000000000e-04
0.0000000000000000e+00 5.0000000000000002e-05
ITEM: ATOMS id type diameter x y z 
43 1 1.70255e-06 1.38e-05 3.06e-05 4.72e-06 
12 1 1.77392e-06 4.38e-05 4.04e-05 8.48e-06 
11 1 1.64138e-06 2.8e-06 4.05e-06 9.31e-06 
18 1 1.86567e-06 2.48e-05 8.09e-06 1.97e-05 
5 1 1.3967e-06 3.02e-05 7.54e-06 2.15e-05 
24 1 1.47826e-06 3.04e-06 2.48e-05 3.22e-05 
31 1 1.44768e-06 3.47e-05 1.54e-05 3.95e-05 
4 1 1.76372e-06 2.25e-05 6.41e-05 9.27e-06 
2 1 1.54963e-06 4.05e-05 7.42e-05 1.07e-05 
28 1 1.63119e-06 7.99e-06 9.48e-05 1.43e-05 
39 1 1.58021e-06 5.86e-06 6.85e-05 1.98e-05 
10 1 1.92684e-06 6.97e-06 8.68e-05 2.13e-05 
3 1 1.82489e-06 2.11e-05 8.65e-05 2.17e-05 
48 1 1.69236e-06 4.21e-05 5.2e-05 2.7e-05 
8 1 1.82489e-06 1.47e-05 7.13e-05 2.79e-05 
34 1 1.45787e-06 3.19e-05 8.96e-05 3.39e-05 
23 1 1.64138e-06 2.27e-05 6.78e-05 3.51e-05 
13 1 1.68216e-06 2.29e-06 8.68e-05 3.69e-05 
27 1 1.94723e-06 8.04e-06 6e-05 3.99e-05 
38 1 1.67197e-06 1.3e-05 6.7e-05 4.1e-05 
32 1 1.66177e-06 3.72e-05 7.55e-05 4.14e-05 
7 1 1.54963e-06 2.18e-06 9.82e-05 4.48e-05 
22 1 1.93704e-06 7.65e-05 1.82e-05 5.24e-06 
47 1 1.8045e-06 8.8e-05 4.97e-05 6.92e-06 
29 1 1.63119e-06 9.59e-05 2.97e-05 7.3e-06 
37 1 1.82489e-06 7.76e-05 1.42e-05 1.03e-05 
26 1 1.50885e-06 6.53e-05 4.2e-05 1.09e-05 
44 1 1.6006e-06 6.56e-05 4.57e-05 1.94e-05 
40 1 1.92684e-06 8.75e-05 1.8e-05 2.12e-05 
16 1 1.49865e-06 7.79e-05 3.76e-05 2.19e-05 
41 1 1.70255e-06 5.94e-05 3.77e-05 2.28e-05 
6 1 1.59041e-06 9.15e-05 3.72e-05 2.31e-05 
46 1 1.51904e-06 5.31e-05 2.95e-05 2.88e-05 
30 1 1.76372e-06 7.13e-05 3.31e-05 3.33e-05 
25 1 1.52924e-06 5.68e-05 4.92e-05 3.61e-05 
36 1 1.83509e-06 9.15e-05 3.77e-05 3.79e-05 
14 1 1.43748e-06 7.94e-05 8.38e-06 3.83e-05 
20 1 1.79431e-06 6.13e-05 2.25e-05 4.68e-05 
42 1 1.89626e-06 7.33e-05 9.69e-05 6.5e-06 
15 1 1.94723e-06 7.34e-05 8.45e-05 9.1e-06 
33 1 1.63119e-06 9.47e-05 6.26e-05 1.11e-05 
17 1 1.84528e-06 6.09e-05 9.48e-05 1.17e-05 
49 1 1.79431e-06 5.32e-05 8.79e-05 1.46e-05 
21 1 1.54963e-06 7.96e-05 7.22e-05 2.23e-05 
35 1 1.92684e-06 9.21e-05 6.11e-05 2.69e-05 
1 1 1.69236e-06 7.42e-05 6.77e-05 3.28e-05 
19 1 1.70255e-06 8.95e-05 8.99e-05 3.31e-05 
45 1 1.92684e-06 6.18e-05 6.06e-05 3.82e-05 
9 1 1.79431e-06 9.51e-05 5.23e-05 3.93e-05 
50 1 1.73314e-06 5.62e-05 6.28e-05 4.79e-05 
ITEM: TIMESTEP
400
ITEM: NUMBER OF ATOMS
50
ITEM: BOX BOUNDS ff ff ff
0.0000000000000000e+00 1.0000000000000000e-04
0.0000000000000000e+00 1.0000000000000000e-04
0.0000000000000000e+00 5.0000000000000002e-05
ITEM: ATOMS id type diameter x y z 
43 1 1.71354e-06 1.38e-05 3.06e-05 4.72e-06 
12 1 1.78537e-06 4.38e-05 4.04e-05 8.48e-06 
11 1 1.65198e-06 2.8e-06 4.05e-06 9.31e-06 
18 1 1.87772e-06 2.48e-05 8.09e-06 1.97e-05 
5 1 1.40572e-06 3.02e-05 7.54e-06 2.15e-05 
24 1 1.48781e-06 3.04e-06 2.48e-05 3.22e-05 
31 1 1.45703e-06 3.47e-05 1.54e-05 3.95e-05 
4 1 1.77511e-06 2.25e-05 6.41e-05 9.27e-06 
2 1 1.55963e-06 4.05e-05 7.42e-05 1.07e-05 
28 1 1.64172e-06 7.99e-06 9.48e-05 1.43e-05 
39 1 1.59042e-06 5.86e-06 6.85e-05 1.98e-05 
10 1 1.93928e-06 6.97e-06 8.68e-05 2.13e-05 
3 1 1.83667e-06 2.11e-05 8.65e-05 2.17e-05 
48 1 1.70328e-06 4.21e-05 5.2e-05 2.7e-05 
8 1 1.83667e-06 1.47e-05 7.13e-05 2.79e-05 
34 1 1.46729e-06 3.19e-05 8.96e-05 3.39e-05 
23 1 1.65198e-06 2.27e-05 6.78e-05 3.51e-05 
13 1 1.69302e-06 2.29e-06 8.68e-05 3.69e-05 
27 1 1.9598e-06 8.04e-06 6e-05 3.99e-05 
38 1 1.68276e-06 1.3e-05 6.7e-05 4.1e-05 
32 1 1.6725e-06 3.72e-05 7.55e-05 4.14e-05 
7 1 1.55963e-06 2.18e-06 9.82e-05 4.48e-05 
22 1 1.94954e-06 7.65e-05 1.82e-05 5.24e-06 
47 1 1.81615e-06 8.8e-05 4.97e-05 6.92e-06 
29 1 1.64172e-06 9.59e-05 2.97e-05 7.3e-06 
37 1 1.83667e-06 7.76e-05 1.42e-05 1.03e-05 
26 1 1.51859e-06 6.53e-05 4.2e-05 1.09e-05 
44 1 1.61094e-06 6.56e-05 4.57e-05 1.94e-05 
40 1 1.93928e-06 8.75e-05 1.8e-05 2.12e-05 
16 1 1.50833e-06 7.79e-05 3.76e-05 2.19e-05 
41 1 1.71354e-06 5.94e-05 3.77e-05 2.28e-05 
6 1 1.60068e-06 9.15e-05 3.72e-05 2.31e-05 
46 1 1.52885e-06 5.31e-05 2.95e-05 2.88e-05 
30 1 1.77511e-06 7.13e-05 3.31e-05 3.33e-05 
25 1 1.53911e-06 5.68e-05 4.92e-05 3.61e-05 
36 1 1.84693e-06 9.15e-05 3.77e-05 3.79e-05 
14 1 1.44676e-06 7.94e-05 8.38e-06 3.83e-05 
20 1 1.80589e-06 6.13e-05 2.25e-05 4.68e-05 
42 1 1.9085e-06 7.33e-05 9.69e-05 6.5e-06 
15 1 1.9598e-06 7.34e-05 8.45e-05 9.1e-06 
33 1 1.64172e-06 9.47e-05 6.26e-05 1.11e-05 
17 1 1.85719e-06 6.09e-05 9.48e-05 1.17e-05 
49 1 1.80589e-06 5.32e-05 8.79e-05 1.46e-05 
21 1 1.55963e-06 7.96e-05 7.22e-05 2.23e-05 
35 1 1.93928e-06 9.21e-05 6.11e-05 2.69e-05 
1 1 1.70328e-06 7.42e-05 6.77e-05 3.28e-05 
19 1 1.71354e-06 8.95e-05 8.99e-05 3.31e-05 
45 1 1.93928e-06 6.18e-05 6.06e-05 3.82e-05 
9 1 1.80589e-06 9.51e-05 5.23e-05 3.93e-05 
50 1 1.74433e-06 5.62e-05 6.28e-05 4.79e-05 
ITEM: TIMESTEP
500
ITEM: NUMBER OF ATOMS
50
ITEM: BOX BOUNDS ff ff ff
0.0000000000000000e+00 1.0000000000000000e-04
0.0000000000000000e+00 1.0000000000000000e-04
0.0000000000000000e+00 5.0000000000000002e-05
ITEM: ATOMS id type diameter x y z 
43 1 1.72461e-06 1.38e-05 3.06e-05 4.72e-06 
12 1 1.7969e-06 4.38e-05 4.04e-05 8.48e-06 
11 1 1.66264e-06 2.8e-06 4.05e-06 9.31e-06 
18 1 1.88984e-06 2.48e-05 8.09e-06 1.97e-05 
5 1 1.4148e-06 3.02e-05 7.54e-06 2.15e-05 
24 1 1.49741e-06 3.04e-06 2.48e-05 3.22e-05 
31 1 1.46643e-06 3.47e-05 1.54e-05 3.95e-05 
4 1 1.78657e-06 2.25e-05 6.41e-05 9.27e-06 
2 1 1.5697e-06 4.05e-05 7.42e-05 1.07e-05 
28 1 1.65232e-06 7.99e-06 9.48e-05 1.43e-05 
39 1 1.60068e-06 5.86e-06 6.85e-05 1.98e-05 
10 1 1.9518e-06 6.97e-06 8.68e-05 2.13e-05 
3 1 1.84853e-06 2.11e-05 8.65e-05 2.17e-05 
48 1 1.71428e-06 4.21e-05 5.2e-05 2.7e-05 
8 1 1.84853e-06 1.47e-05 7.13e-05 2.79e-05 
34 1 1.47676e-06 3.19e-05 8.96e-05 3.39e-05 
23 1 1.66264e-06 2.27e-05 6.78e-05 3.51e-05 
13 1 1.70395e-06 2.29e-06 8.68e-05 3.69e-05 
27 1 1.97245e-06 8.04e-06 6e-05 3.99e-05 
38 1 1.69363e-06 1.3e-05 6.7e-05 4.1e-05 
32 1 1.6833e-06 3.72e-05 7.55e-05 4.14e-05 
7 1 1.5697e-06 2.18e-06 9.82e-05 4.48e-05 
22 1 1.96213e-06 7.65e-05 1.82e-05 5.24e-06 
47 1 1.82788e-06 8.8e-05 4.97e-05 6.92e-06 
29 1 1.65232e-06 9.59e-05 2.97e-05 7.3e-06 
37 1 1.84853e-06 7.76e-05 1.42e-05 1.03e-05 
26 1 1.52839e-06 6.53e-05 4.2e-05 1.09e-05 
44 1 1.62134e-06 6.56e-05 4.57e-05 1.94e-05 
40 1 1.9518e-06 8.75e-05 1.8e-05 2.12e-05 
16 1 1.51807e-06 7.79e-05 3.76e-05 2.19e-05 
41 1 1.72461e-06 5.94e-05 3.77e-05 2.28e-05 
6 1 1.61101e-06 9.15e-05 3.72e-05 2.31e-05 
46 1 1.53872e-06 5.31e-05 2.95e-05 2.88e-05 
30 1 1.78657e-06 7.13e-05 3.31e-05 3.33e-05 
25 1 1.54905e-06 5.68e-05 4.92e-05 3.61e-05 
36 1 1.85886e-06 9.15e-05 3.77e-05 3.79e-05 
14 1 1.4561e-06 7.94e-05 8.38e-06 3.83e-05 
20 1 1.81755e-06 6.13e-05 2.25e-05 4.68e-05 
42 1 1.92082e-06 7.33e-05 9.69e-05 6.5e-06 
15 1 1.97245e-06 7.34e-05 8.45e-05 9.1e-06 
33 1 1.65232e-06 9.47e-05 6.26e-05 1.11e-05 
17 1 1.86918e-06 6.09e-05 9.48e-05 1.17e-05 
49 1 1.81755e-06 5.32e-05 8.79e-05 1.46e-05 
21 1 1.5697e-06 7.96e-05 7.22e-05 2.23e-05 
35 1 1.9518e-06 9.21e-05 6.11e-05 2.69e-05 
1 1 1.71428e-06 7.42e-05 6.77e-05 3.28e-05 
19 1 1.72461e-06 8.95e-05 8.99e-05 3.31e-05 
45 1 1.9518e-06 6.18e-05 6.06e-05 3.82e-05 
9 1 1.81755e-06 9.51e-05 5.23e-05 3.93e-05 
50 1 1.75559e-06 5.62e-05 6.28e-05 4.79e-05 
ITEM: TIMESTEP
600
ITEM: NUMBER OF ATOMS
53
ITEM: BOX BOUNDS ff ff ff
0.0000000000000000e+00 1.0000000000000000e-04
0.0000000000000000e+00 1.0000000000000000e-04
0.0000000000000000e+00 5.0000000000000002e-05
ITEM: ATOMS id type diameter x y z 
43 1 1.73574e-06 1.38e-05 3.06e-05 4.72e-06 
12 1 1.8085e-06 4.38e-05 4.04e-05 8.48e-06 
11 1 1.67338e-06 2.8e-06 4.05e-06 9.31e-06 
18 1 1.90204e-06 2.48e-05 8.09e-06 1.97e-05 
5 1 1.42393e-06 3.02e-05 7.54e-06 2.15e-05 
24 1 1.50708e-06 3.04e-06 2.48e-05 3.22e-05 
31 1 1.4759e-06 3.47e-05 1.54e-05 3.95e-05 
4 1 1.7981e-06 2.25e-05 6.41e-05 9.27e-06 
2 1 1.57984e-06 4.05e-05 7.42e-05 1.07e-05 
28 1 1.66298e-06 7.99e-06 9.48e-05 1.43e-05 
39 1 1.61102e-06 5.86e-06 6.85e-05 1.98e-05 
10 1 1.9644e-06 6.97e-06 8.68e-05 2.13e-05 
3 1 1.86046e-06 2.11e-05 8.65e-05 2.17e-05 
48 1 1.72535e-06 4.21e-05 5.2e-05 2.7e-05 
8 1 1.86046e-06 1.47e-05 7.13e-05 2.79e-05 
34 1 1.48629e-06 3.19e-05 8.96e-05 3.39e-05 
23 1 1.67338e-06 2.27e-05 6.78e-05 3.51e-05 
13 1 1.71495e-06 2.29e-06 8.68e-05 3.69e-05 
27 1 1.61346e-06 8.3591e-06 5.92787e-05 4.0064e-05 
38 1 1.70456e-06 1.3e-05 6.7e-05 4.1e-05 
32 1 1.69417e-06 3.72e-05 7.55e-05 4.14e-05 
7 1 1.57984e-06 2.18e-06 9.82e-05 4.48e-05 
51 1 1.53592e-06 7.73624e-06 6.06866e-05 3.97439e-05 
22 1 1.60501e-06 7.68174e-05 1.74825e-05 5.40312e-06 
47 1 1.83968e-06 8.8e-05 4.97e-05 6.92e-06 
29 1 1.66298e-06 9.59e-05 2.97e-05 7.3e-06 
37 1 1.86046e-06 7.76e-05 1.42e-05 1.03e-05 
26 1 1.53826e-06 6.53e-05 4.2e-05 1.09e-05 
44 1 1.6318e-06 6.56e-05 4.57e-05 1.94e-05 
52 1 1.52788e-06 7.61978e-05 1.8883e-05 5.08471e-06 
40 1 1.9644e-06 8.75e-05 1.8e-05 2.12e-05 
16 1 1.52787e-06 7.79e-05 3.76e-05 2.19e-05 
41 1 1.73574e-06 5.94e-05 3.77e-05 2.28e-05 
6 1 1.62141e-06 9.15e-05 3.72e-05 2.31e-05 
46 1 1.54865e-06 5.31e-05 2.95e-05 2.88e-05 
30 1 1.7981e-06 7.13e-05 3.31e-05 3.33e-05 
25 1 1.55905e-06 5.68e-05 4.92e-05 3.61e-05 
36 1 1.87086e-06 9.15e-05 3.77e-05 3.79e-05 
14 1 1.46551e-06 7.94e-05 8.38e-06 3.83e-05 
20 1 1.82928e-06 6.13e-05 2.25e-05 4.68e-05 
42 1 1.93322e-06 7.33e-05 9.69e-05 6.5e-06 
15 1 1.61346e-06 7.37191e-05 8.37787e-05 9.26398e-06 
33 1 1.66298e-06 9.47e-05 6.26e-05 1.11e-05 
17 1 1.88125e-06 6.09e-05 9.48e-05 1.17e-05 
49 1 1.82928e-06 5.32e-05 8.79e-05 1.46e-05 
53 1 1.53592e-06 7.30962e-05 8.51866e-05 8.9439e-06 
21 1 1.57984e-06 7.96e-05 7.22e-05 2.23e-05 
35 1 1.9644e-06 9.21e-05 6.11e-05 2.69e-05 
1 1 1.72535e-06 7.42e-05 6.77e-05 3.28e-05 
19 1 1.73574e-06 8.95e-05 8.99e-05 3.31e-05 
45 1 1.9644e-06 6.18e-05 6.06e-05 3.82e-05 
9 1 1.82928e-06 9.51e-05 5.23e-05 3.93e-05 
50 1 1.76692e-06 5.62e-05 6.28e-05 4.79e-05 
ITEM: TIMESTEP
700
ITEM: NUMBER OF ATOMS
57
ITEM: BOX BOUNDS ff ff ff
0.0000000000000000e+00 1.0000000000000000e-04
0.0000000000000000e+00 1.0000000000000000e-04
0.0000000000000000e+00 5.0000000000000002e-05
ITEM: ATOMS id type diameter x y z 
43 1 1.74695e-06 1.38e-05 3.06e-05 4.72e-06 
12 1 1.82017e-06 4.38e-05 4.04e-05 8.48e-06 
11 1 1.68418e-06 2.8e-06 4.05e-06 9.31e-06 
18 1 1.91432e-06 2.48e-05 8.09e-06 1.97e-05 
5 1 1.43312e-06 3.02e-05 7.54e-06 2.15e-05 
24 1 1.51681e-06 3.04e-06 2.48e-05 3.22e-05 
31 1 1.48543e-06 3.47e-05 1.54e-05 3.95e-05 
4 1 1.80971e-06 2.25e-05 6.41e-05 9.27e-06 
2 1 1.59003e-06 4.05e-05 7.42e-05 1.07e-05 
28 1 1.67372e-06 7.99e-06 9.48e-05 1.43e-05 
39 1 1.62142e-06 5.86e-06 6.85e-05 1.98e-05 
10 1 1.62989e-06 6.27113e-06 8.645e-05 2.10736e-05 
3 1 1.87247e-06 2.11e-05 8.65e-05 2.17e-05 
48 1 1.73648e-06 4.21e-05 5.2e-05 2.7e-05 
8 1 1.87247e-06 1.47e-05 7.13e-05 2.79e-05 
34 1 1.49589e-06 3.19e-05 8.96e-05 3.39e-05 
23 1 1.68418e-06 2.27e-05 6.78e-05 3.51e-05 
13 1 1.72602e-06 2.29e-06 8.68e-05 3.69e-05 
27 1 1.62387e-06 8.3591e-06 5.92787e-05 4.0064e-05 
38 1 1.71556e-06 1.3e-05 6.7e-05 4.1e-05 
32 1 1.7051e-06 3.72e-05 7.55e-05 4.14e-05 
7 1 1.59003e-06 2.18e-06 9.82e-05 4.48e-05 
51 1 1.54584e-06 7.73624e-06 6.06866e-05 3.97439e-05 
54 1 1.50344e-06 7.61465e-06 8.71229e-05 2.15088e-05 
22 1 1.61537e-06 7.68174e-05 1.74825e-05 5.40312e-06 
47 1 1.85155e-06 8.8e-05 4.97e-05 6.92e-06 
29 1 1.67372e-06 9.59e-05 2.97e-05 7.3e-06 
37 1 1.87247e-06 7.76e-05 1.42e-05 1.03e-05 
26 1 1.54819e-06 6.53e-05 4.2e-05 1.09e-05 
44 1 1.64234e-06 6.56e-05 4.57e-05 1.94e-05 
52 1 1.53775e-06 7.61978e-05 1.8883e-05 5.08471e-06 
40 1 1.60687e-06 8.78178e-05 1.72817e-05 2.13633e-05 
16 1 1.53773e-06 7.79e-05 3.76e-05 2.19e-05 
41 1 1.74695e-06 5.94e-05 3.77e-05 2.28e-05 
6 1 1.63188e-06 9.15e-05 3.72e-05 2.31e-05 
46 1 1.55865e-06 5.31e-05 2.95e-05 2.88e-05 
30 1 1.80971e-06 7.13e-05 3.31e-05 3.33e-05 
25 1 1.56911e-06 5.68e-05 4.92e-05 3.61e-05 
36 1 1.88294e-06 9.15e-05 3.77e-05 3.79e-05 
14 1 1.47497e-06 7.94e-05 8.38e-06 3.83e-05 
20 1 1.84109e-06 6.13e-05 2.25e-05 4.68e-05 
55 1 1.52965e-06 8.71975e-05 1.86838e-05 2.10445e-05 
42 1 1.9457e-06 7.33e-05 9.69e-05 6.5e-06 
15 1 1.62387e-06 7.37191e-05 8.37787e-05 9.26398e-06 
33 1 1.67372e-06 9.47e-05 6.26e-05 1.11e-05 
17 1 1.8934e-06 6.09e-05 9.48e-05 1.17e-05 
49 1 1.84109e-06 5.32e-05 8.79e-05 1.46e-05 
53 1 1.54584e-06 7.30962e-05 8.51866e-05 8.9439e-06 
21 1 1.59003e-06 7.96e-05 7.22e-05 2.23e-05 
35 1 1.60687e-06 9.24178e-05 6.03817e-05 2.70633e-05 
1 1 1.73648e-06 7.42e-05 6.77e-05 3.28e-05 
19 1 1.74695e-06 8.95e-05 8.99e-05 3.31e-05 
45 1 1.62989e-06 6.11011e-05 6.025e-05 3.79736e-05 
9 1 1.84109e-06 9.51e-05 5.23e-05 3.93e-05 
50 1 1.77833e-06 5.62e-05 6.28e-05 4.79e-05 
56 1 1.52965e-06 9.17975e-05 6.17838e-05 2.67445e-05 
57 1 1.50344e-06 6.24447e-05 6.09229e-05 3.84088e-05 
ITEM: TIMESTEP
800
ITEM: NUMBER OF ATOMS
57
ITEM: BOX BOUNDS ff ff ff
0.0000000000000000e+00 1.0000000000000000e-04
0.0000000000000000e+00 1.0000000000000000e-04
0.0000000000000000e+00 5.0000000000000002e-05
ITEM: ATOMS id type diameter x y z 
43 1 1.75822e-06 1.38e-05 3.06e-05 4.72e-06 
12 1 1.83192e-06 4.38e-05 4.04e-05 8.48e-06 
11 1 1.69505e-06 2.8e-06 4.05e-06 9.31e-06 
18 1 1.92668e-06 2.48e-05 8.09e-06 1.97e-05 
5 1 1.44238e-06 3.02e-05 7.54e-06 2.15e-05 
24 1 1.5266e-06 3.04e-06 2.48e-05 3.22e-05 
31 1 1.49502e-06 3.47e-05 1.54e-05 3.95e-05 
4 1 1.82139e-06 2.25e-05 6.41e-05 9.27e-06 
2 1 1.6003e-06 4.05e-05 7.42e-05 1.07e-05 
28 1 1.68453e-06 7.99e-06 9.48e-05 1.43e-05 
39 1 1.63188e-06 5.86e-06 6.85e-05 1.98e-05 
10 1 1.64041e-06 6.27113e-06 8.645e-05 2.10736e-05 
3 1 1.88456e-06 2.11e-05 8.65e-05 2.17e-05 
48 1 1.7477e-06 4.21e-05 5.2e-05 2.7e-05 
8 1 1.88456e-06 1.47e-05 7.13e-05 2.79e-05 
34 1 1.50554e-06 3.19e-05 8.96e-05 3.39e-05 
23 1 1.69505e-06 2.27e-05 6.78e-05 3.51e-05 
13 1 1.73717e-06 2.29e-06 8.68e-05 3.69e-05 
27 1 1.63436e-06 8.3591e-06 5.92787e-05 4.0064e-05 
38 1 1.72664e-06 1.3e-05 6.7e-05 4.1e-05 
32 1 1.71611e-06 3.72e-05 7.55e-05 4.14e-05 
7 1 1.6003e-06 2.18e-06 9.82e-05 4.48e-05 
51 1 1.55582e-06 7.73624e-06 6.06866e-05 3.97439e-05 
54 1 1.51314e-06 7.61465e-06 8.71229e-05 2.15088e-05 
22 1 1.6258e-06 7.68174e-05 1.74825e-05 5.40312e-06 
47 1 1.86351e-06 8.8e-05 4.97e-05 6.92e-06 
29 1 1.68453e-06 9.59e-05 2.97e-05 7.3e-06 
37 1 1.88456e-06 7.76e-05 1.42e-05 1.03e-05 
26 1 1.55819e-06 6.53e-05 4.2e-05 1.09e-05 
44 1 1.65294e-06 6.56e-05 4.57e-05 1.94e-05 
52 1 1.54767e-06 7.61978e-05 1.8883e-05 5.08471e-06 
40 1 1.61724e-06 8.78178e-05 1.72817e-05 2.13633e-05 
16 1 1.54766e-06 7.79e-05 3.76e-05 2.19e-05 
41 1 1.75822e-06 5.94e-05 3.77e-05 2.28e-05 
6 1 1.64241e-06 9.15e-05 3.72e-05 2.31e-05 
46 1 1.56871e-06 5.31e-05 2.95e-05 2.88e-05 
30 1 1.82139e-06 7.13e-05 3.31e-05 3.33e-05 
25 1 1.57924e-06 5.68e-05 4.92e-05 3.61e-05 
36 1 1.89509e-06 9.15e-05 3.77e-05 3.79e-05 
14 1 1.48449e-06 7.94e-05 8.38e-06 3.83e-05 
20 1 1.85298e-06 6.13e-05 2.25e-05 4.68e-05 
55 1 1.53953e-06 8.71975e-05 1.86838e-05 2.10445e-05 
42 1 1.95826e-06 7.33e-05 9.69e-05 6.5e-06 
15 1 1.63436e-06 7.37191e-05 8.37787e-05 9.26398e-06 
33 1 1.68453e-06 9.47e-05 6.26e-05 1.11e-05 
17 1 1.90562e-06 6.09e-05 9.48e-05 1.17e-05 
49 1 1.85298e-06 5.32e-05 8.79e-05 1.46e-05 
53 1 1.55582e-06 7.30962e-05 8.51866e-05 8.9439e-06 
21 1 1.6003e-06 7.96e-05 7.22e-05 2.23e-05 
35 1 1.61724e-06 9.24178e-05 6.03817e-05 2.70633e-05 
1 1 1.7477e-06 7.42e-05 6.77e-05 3.28e-05 
19 1 1.75822e-06 8.95e-05 8.99e-05 3.31e-05 
45 1 1.64041e-06 6.11011e-05 6.025e-05 3.79736e-05 
9 1 1.85298e-06 9.51e-05 5.23e-05 3.93e-05 
50 1 1.78981e-06 5.62e-05 6.28e-05 4.79e-05 
56 1 1.53953e-06 9.17975e-05 6.17838e-05 2.67445e-05 
57 1 1.51314e-06 6.24447e-05 6.09229e-05 3.84088e-05 
ITEM: TIMESTEP
900
ITEM: NUMBER OF ATOMS
57
ITEM: BOX BOUNDS ff ff ff
0.0000000000000000e+00 1.0000000000000000e-04
0.0000000000000000e+00 1.0000000000000000e-04
0.0000000000000000e+00 5.0000000000000002e-05
ITEM: ATOMS id type diameter x y z 
43 1 1.76957e-06 1.38e-05 3.06e-05 4.72e-06 
12 1 1.84375e-06 4.38e-05 4.04e-05 8.48e-06 
11 1 1.706e-06 2.8e-06 4.05e-06 9.31e-06 
18 1 1.93911e-06 2.48e-05 8.09e-06 1.97e-05 
5 1 1.45169e-06 3.02e-05 7.54e-06 2.15e-05 
24 1 1.53646e-06 3.04e-06 2.48e-05 3.22e-05 
31 1 1.50467e-06 3.47e-05 1.54e-05 3.95e-05 
4 1 1.83315e-06 2.25e-05 6.41e-05 9.27e-06 
2 1 1.61063e-06 4.05e-05 7.42e-05 1.07e-05 
28 1 1.6954e-06 7.99e-06 9.48e-05 1.43e-05 
39 1 1.64242e-06 5.86e-06 6.85e-05 1.98e-05 
10 1 1.651e-06 6.27113e-06 8.645e-05 2.10736e-05 
3 1 1.89673e-06 2.11e-05 8.65e-05 2.17e-05 
48 1 1.75898e-06 4.21e-05 5.2e-05 2.7e-05 
8 1 1.89673e-06 1.47e-05 7.13e-05 2.79e-05 
34 1 1.51526e-06 3.19e-05 8.96e-05 3.39e-05 
23 1 1.706e-06 2.27e-05 6.78e-05 3.51e-05 
13 1 1.74838e-06 2.29e-06 8.68e-05 3.69e-05 
27 1 1.64491e-06 8.36702e-06 5.92608e-05 4.00681e-05 
38 1 1.73779e-06 1.3e-05 6.7e-05 4.1e-05 
32 1 1.72719e-06 3.72e-05 7.55e-05 4.14e-05 
7 1 1.61063e-06 2.18e-06 9.82e-05 4.48e-05 
51 1 1.56586e-06 7.72831e-06 6.07045e-05 3.97398e-05 
54 1 1.52291e-06 7.61465e-06 8.71229e-05 2.15088e-05 
22 1 1.6363e-06 7.68253e-05 1.74646e-05 5.4072e-06 
47 1 1.87554e-06 8.8e-05 4.97e-05 6.92e-06 
29 1 1.6954e-06 9.59e-05 2.97e-05 7.3e-06 
37 1 1.89673e-06 7.76e-05 1.42e-05 1.03e-05 
26 1 1.56825e-06 6.53e-05 4.2e-05 1.09e-05 
44 1 1.66361e-06 6.56e-05 4.57e-05 1.94e-05 
52 1 1.55766e-06 7.61899e-05 1.89009e-05 5.08064e-06 
40 1 1.62768e-06 8.78178e-05 1.72817e-05 2.13633e-05 
16 1 1.55765e-06 7.79e-05 3.76e-05 2.19e-05 
41 1 1.76957e-06 5.94e-05 3.77e-05 2.28e-05 
6 1 1.65302e-06 9.15e-05 3.72e-05 2.31e-05 
46 1 1.57884e-06 5.31e-05 2.95e-05 2.88e-05 
30 1 1.83315e-06 7.13e-05 3.31e-05 3.33e-05 
25 1 1.58944e-06 5.68e-05 4.92e-05 3.61e-05 
36 1 1.90733e-06 9.15e-05 3.77e-05 3.79e-05 
14 1 1.49407e-06 7.94e-05 8.38e-06 3.83e-05 
20 1 1.86494e-06 6.13e-05 2.25e-05 4.68e-05 
55 1 1.54947e-06 8.71975e-05 1.86838e-05 2.10445e-05 
42 1 1.9709e-06 7.33e-05 9.69e-05 6.5e-06 
15 1 1.64491e-06 7.3727e-05 8.37608e-05 9.26805e-06 
33 1 1.6954e-06 9.47e-05 6.26e-05 1.11e-05 
17 1 1.91792e-06 6.09e-05 9.48e-05 1.17e-05 
49 1 1.86494e-06 5.32e-05 8.79e-05 1.46e-05 
53 1 1.56586e-06 7.30883e-05 8.52045e-05 8.93983e-06 
21 1 1.61063e-06 7.96e-05 7.22e-05 2.23e-05 
35 1 1.62768e-06 9.24178e-05 6.03817e-05 2.70633e-05 
1 1 1.75898e-06 7.42e-05 6.77e-05 3.28e-05 
19 1 1.76957e-06 8.95e-05 8.99e-05 3.31e-05 
45 1 1.651e-06 6.11011e-05 6.025e-05 3.79736e-05 
9 1 1.86494e-06 9.51e-05 5.23e-05 3.93e-05 
50 1 1.80136e-06 5.62e-05 6.28e-05 4.79e-05 
56 1 1.54947e-06 9.17975e-05 6.17838e-05 2.67445e-05 
57 1 1.52291e-06 6.24447e-05 6.09229e-05 3.84088e-05 
ITEM: TIMESTEP
1000
ITEM: NUMBER OF ATOMS
58
ITEM: BOX BOUNDS ff ff ff
0.0000000000000000e+00 1.0000000000000000e-04
0.0000000000000000e+00 1.0000000000000000e-04
0.0000000000000000e+00 5.0000000000000002e-05
ITEM: ATOMS id type diameter x y z 
43 1 1.781e-06 1.38e-05 3.06e-05 4.72e-06 
12 1 1.85565e-06 4.38e-05 4.04e-05 8.48e-06 
11 1 1.71701e-06 2.8e-06 4.05e-06 9.31e-06 
18 1 1.95163e-06 2.48e-05 8.09e-06 1.97e-05 
5 1 1.46106e-06 3.02e-05 7.54e-06 2.15e-05 
24 1 1.54638e-06 3.04e-06 2.48e-05 3.22e-05 
31 1 1.51438e-06 3.47e-05 1.54e-05 3.95e-05 
4 1 1.84499e-06 2.25e-05 6.41e-05 9.27e-06 
2 1 1.62103e-06 4.05e-05 7.42e-05 1.07e-05 
28 1 1.70635e-06 7.99e-06 9.48e-05 1.43e-05 
39 1 1.65302e-06 5.86e-06 6.85e-05 1.98e-05 
10 1 1.66166e-06 6.25395e-06 8.64413e-05 2.1068e-05 
3 1 1.90897e-06 2.11e-05 8.65e-05 2.17e-05 
54 1 1.53274e-06 7.63183e-06 8.71315e-05 2.15144e-05 
48 1 1.77033e-06 4.21e-05 5.2e-05 2.7e-05 
8 1 1.90897e-06 1.47e-05 7.13e-05 2.79e-05 
34 1 1.52505e-06 3.19e-05 8.96e-05 3.39e-05 
23 1 1.71701e-06 2.27e-05 6.78e-05 3.51e-05 
13 1 1.75967e-06 2.29e-06 8.68e-05 3.69e-05 
51 1 1.57597e-06 7.72831e-06 6.07045e-05 3.97398e-05 
27 1 1.65553e-06 8.36702e-06 5.92608e-05 4.00681e-05 
38 1 1.749e-06 1.3e-05 6.7e-05 4.1e-05 
32 1 1.73834e-06 3.72e-05 7.55e-05 4.14e-05 
7 1 1.62103e-06 2.18e-06 9.82e-05 4.48e-05 
22 1 1.64686e-06 7.68253e-05 1.74646e-05 5.4072e-06 
52 1 1.56772e-06 7.61899e-05 1.89009e-05 5.08064e-06 
47 1 1.88764e-06 8.8e-05 4.97e-05 6.92e-06 
29 1 1.70635e-06 9.59e-05 2.97e-05 7.3e-06 
37 1 1.90897e-06 7.76e-05 1.42e-05 1.03e-05 
26 1 1.57837e-06 6.53e-05 4.2e-05 1.09e-05 
44 1 1.67435e-06 6.56e-05 4.57e-05 1.94e-05 
40 1 1.63819e-06 8.78257e-05 1.72638e-05 2.13674e-05 
55 1 1.55947e-06 8.71896e-05 1.87017e-05 2.10405e-05 
16 1 1.56771e-06 7.79e-05 3.76e-05 2.19e-05 
41 1 1.781e-06 5.94e-05 3.77e-05 2.28e-05 
6 1 1.66369e-06 9.15e-05 3.72e-05 2.31e-05 
46 1 1.58903e-06 5.31e-05 2.95e-05 2.88e-05 
30 1 1.84499e-06 7.13e-05 3.31e-05 3.33e-05 
25 1 1.5997e-06 5.68e-05 4.92e-05 3.61e-05 
36 1 1.91964e-06 9.15e-05 3.77e-05 3.79e-05 
14 1 1.50372e-06 7.94e-05 8.38e-06 3.83e-05 
20 1 1.87698e-06 6.13e-05 2.25e-05 4.68e-05 
42 1 1.63528e-06 7.25988e-05 9.65488e-05 6.27284e-06 
58 1 1.50842e-06 7.39468e-05 9.7224e-05 6.70953e-06 
53 1 1.57597e-06 7.30883e-05 8.52045e-05 8.93983e-06 
15 1 1.65553e-06 7.3727e-05 8.37608e-05 9.26805e-06 
33 1 1.70635e-06 9.47e-05 6.26e-05 1.11e-05 
17 1 1.9303e-06 6.09e-05 9.48e-05 1.17e-05 
49 1 1.87698e-06 5.32e-05 8.79e-05 1.46e-05 
21 1 1.62103e-06 7.96e-05 7.22e-05 2.23e-05 
56 1 1.55947e-06 9.17896e-05 6.18017e-05 2.67405e-05 
35 1 1.63819e-06 9.24257e-05 6.03638e-05 2.70674e-05 
1 1 1.77033e-06 7.42e-05 6.77e-05 3.28e-05 
19 1 1.781e-06 8.95e-05 8.99e-05 3.31e-05 
45 1 1.66166e-06 6.1084e-05 6.02413e-05 3.7968e-05 
57 1 1.53274e-06 6.24618e-05 6.09315e-05 3.84144e-05 
9 1 1.87698e-06 9.51e-05 5.23e-05 3.93e-05 
50 1 1.81299e-06 5.62e-05 6.28e-05 4.79e-05 
ITEM: TIMESTEP
1100
ITEM: NUMBER OF ATOMS
58
ITEM: BOX BOUNDS ff ff ff
0.0000000000000000e+00 1.0000000000000000e-04
0.0000000000000000e+00 1.0000000000000000e-04
0.0000000000000000e+00 5.0000000000000002e-05
ITEM: ATOMS id type diameter x y z 
43 1 1.7925e-06 1.38e-05 3.06e-05 4.72e-06 
12 1 1.86763e-06 4.38e-05 4.04e-05 8.48e-06 
11 1 1.7281e-06 2.8e-06 4.05e-06 9.31e-06 
18 1 1.96423e-06 2.48e-05 8.09e-06 1.97e-05 
5 1 1.47049e-06 3.02e-05 7.54e-06 2.15e-05 
24 1 1.55636e-06 3.04e-06 2.48e-05 3.22e-05 
31 1 1.52416e-06 3.47e-05 1.54e-05 3.95e-05 
4 1 1.8569e-06 2.25e-05 6.41e-05 9.27e-06 
2 1 1.63149e-06 4.05e-05 7.42e-05 1.07e-05 
28 1 1.71736e-06 7.99e-06 9.48e-05 1.43e-05 
39 1 1.66369e-06 5.86e-06 6.85e-05 1.98e-05 
10 1 1.67239e-06 6.25395e-06 8.64413e-05 2.1068e-05 
3 1 1.9213e-06 2.11e-05 8.65e-05 2.17e-05 
54 1 1.54264e-06 7.63183e-06 8.71315e-05 2.15144e-05 
48 1 1.78176e-06 4.21e-05 5.2e-05 2.7e-05 
8 1 1.9213e-06 1.47e-05 7.13e-05 2.79e-05 
34 1 1.53489e-06 3.19e-05 8.96e-05 3.39e-05 