LAMMPS (20 Nov 2019)
Reading data file ...
  orthogonal box = (0 0 0) to (0.0001 0.0001 0.0001)
  2 by 4 by 4 MPI processor grid
  reading atoms ...
  100 atoms
  4 nutrients
Lattice spacing in x,y,z = 100 100 100
100 atoms in group CYANO
0 atoms in group ECW
Model is defined as a closed system. 
Neighbor list info ...
  update every 1 steps, delay 0 steps, check yes
  max neighbors/atom: 5000, page size: 100000
  master list distance cutoff = 2.44e-06
  ghost atom cutoff = 2.44e-06
  binsize = 1.22e-06, bins = 82 82 82
  1 neighbor lists, perpetual/occasional/extra = 1 0 0
  (1) pair gran/hooke/history, perpetual
      attributes: half, newton off, size, history
      pair build: half/size/bin/newtoff
      stencil: half/bin/3d/newtoff
      bin: standard
Setting up Verlet run ...
  Unit style    : lj
  Current step  : 0
  Time step     : 10
Per MPI rank memory allocation (min/avg/max) = 5.852 | 9.173 | 10.91 Mbytes
Step CPU Atoms c_myNtypes[1] c_myNtypes[2] c_myMass[1] c_myMass[2] c_myCon[1] c_myCon[2] c_myCon[3] c_myCon[4] 
       0            0      100          100            0 9.7288323e-14            0          0.1        0.009     3.42e-20       0.0299 
number of iterations: 125637 
     100    1.3209691      100          100            0 9.9116404e-14            0          0.1 0.0090006304 5.6176421e-06   0.02989895 
number of iterations: 110755 
     200    2.4367398      100          100            0 1.0097884e-13            0          0.1 0.0090006422 1.4268018e-05  0.029898931 
number of iterations: 98701 
     300    3.5321397      101          101            0 1.0287626e-13            0          0.1 0.0090006534 2.7557107e-05  0.029898912 
number of iterations: 88003 
     400    4.4499421      104          104            0 1.0480934e-13            0          0.1 0.0090006657 4.8011039e-05  0.029898892 
number of iterations: 77955 
     500    5.2701492      107          107            0 1.0677875e-13            0          0.1 0.0090006782 7.9606721e-05  0.029898871 
number of iterations: 68283 
     600    6.0071444      112          112            0 1.0878516e-13            0          0.1 0.0090006921 0.00012876847  0.029898848 
number of iterations: 58545 
     700    6.6481006      116          116            0 1.1082927e-13            0          0.1 0.0090007051 0.00020619138  0.029898826 
number of iterations: 48502 
     800    7.1885917      118          118            0 1.1291179e-13            0          0.1 0.0090007183 0.00033112717  0.029898804 
number of iterations: 38737 
     900    7.6405891      121          121            0 1.1503344e-13            0          0.1 0.0090007318 0.00053212658  0.029898782 
number of iterations: 29769 
    1000    8.0077519      123          123            0 1.1719495e-13            0          0.1 0.0090007456 0.00084705245  0.029898759 
number of iterations: 19582 
    1100    8.2792729      124          124            0 1.1939709e-13            0          0.1 0.0090007596 0.0013827845  0.029898735 
number of iterations: 14514 
    1200    8.4957924      125          125            0 1.216406e-13            0          0.1 0.0090007739 0.0021629386  0.029898712 
number of iterations: 14574 
    1300    8.7040536      130          130            0 1.2392627e-13            0          0.1 0.0090007884 0.0031456958  0.029898687 
number of iterations: 14634 
    1400    8.9092279      131          131            0 1.2625489e-13            0          0.1 0.0090008032 0.0043363071  0.029898663 
number of iterations: 14694 
    1500    9.1102692      134          134            0 1.2862726e-13            0          0.1 0.0090008183  0.005676967  0.029898638 
number of iterations: 14755 
    1600    9.3097289      135          135            0 1.3104421e-13            0          0.1 0.0090008337 0.0071526388  0.029898612 
number of iterations: 14683 
    1700    9.5076038      142          142            0 1.3350657e-13            0          0.1  0.009000849 0.0087640525  0.029898586 
number of iterations: 14873 
    1800    9.7059362      144          144            0 1.3601521e-13            0          0.1  0.009000865  0.010515452   0.02989856 
number of iterations: 14933 
    1900     9.902891      144          144            0 1.3857098e-13            0          0.1 0.0090008813  0.012409613  0.029898533 
number of iterations: 14993 
    2000    10.102117      147          147            0 1.4117478e-13            0          0.1 0.0090008978  0.014429624  0.029898505 
number of iterations: 15053 
    2100    10.298541      148          148            0 1.438275e-13            0          0.1 0.0090009147  0.016574398  0.029898477 
number of iterations: 15114 
    2200    10.494524      148          148            0 1.4653007e-13            0          0.1 0.0090009319  0.018835776  0.029898448 
number of iterations: 15174 
    2300    10.690312      151          151            0 1.4928342e-13            0          0.1 0.0090009491  0.021207056   0.02989842 
number of iterations: 15234 
    2400    10.885453      151          151            0 1.520885e-13            0          0.1  0.009000967  0.023690868   0.02989839 
number of iterations: 15295 
    2500    11.082067      152          152            0 1.549463e-13            0          0.1 0.0090009851  0.026288325   0.02989836 
number of iterations: 15355 
    2600    11.277606      158          158            0 1.5785779e-13            0          0.1 0.0090010036  0.029000218  0.029898329 
number of iterations: 15415 
    2700    11.475452      161          161            0 1.6082399e-13            0          0.1 0.0090010225  0.031828349  0.029898298 
number of iterations: 15475 
    2800    11.673701      162          162            0 1.6384593e-13            0          0.1 0.0090010417  0.034774054  0.029898266 
number of iterations: 15536 
    2900    11.871497      165          165            0 1.6692465e-13            0          0.1 0.0090010613  0.037839133  0.029898233 
number of iterations: 15596 
    3000    12.071384      165          165            0 1.7006122e-13            0          0.1 0.0090010812  0.041024991    0.0298982 
number of iterations: 15656 
    3100     12.27071      167          167            0 1.7325673e-13            0          0.1 0.0090011015  0.044333692  0.029898166 
number of iterations: 15716 
    3200    12.472569      169          169            0 1.7651229e-13            0          0.1 0.0090011222  0.047767576  0.029898131 
number of iterations: 15777 
    3300    12.670753      171          171            0 1.7982901e-13            0          0.1 0.0090011433   0.05132815  0.029898096 
number of iterations: 15837 
    3400     12.89583      171          171            0 1.8320806e-13            0          0.1 0.0090011648   0.05501468  0.029898061 
number of iterations: 15897 
    3500    13.127127      174          174            0 1.866506e-13            0          0.1 0.0090011867  0.058820528  0.029898024 
number of iterations: 15957 
    3600    13.336638      177          177            0 1.9015783e-13            0          0.1  0.009001209  0.062746659  0.029897987 
number of iterations: 16018 
    3700     13.53996      184          184            0 1.9373096e-13            0          0.1 0.0090012317  0.066795928  0.029897949 
number of iterations: 16048 
    3800    13.743372      192          192            0 1.9737123e-13            0          0.1 0.0090012535  0.070970542  0.029897913 
number of iterations: 16138 
    3900    13.946273      197          197            0 2.010799e-13            0          0.1 0.0090012771  0.075271491  0.029897874 
number of iterations: 16198 
    4000    14.153643      198          198            0 2.0485826e-13            0          0.1 0.0090013013  0.079702364  0.029897833 
number of iterations: 16258 
    4100    14.358373      207          207            0 2.0870762e-13            0          0.1 0.0090013258  0.084263108  0.029897793 
number of iterations: 16319 
    4200    14.562658      211          211            0 2.1262931e-13            0          0.1 0.0090013507  0.088957031  0.029897751 
number of iterations: 16379 
    4300    14.765736      212          212            0 2.1662468e-13            0          0.1 0.0090013761  0.093785721  0.029897709 
number of iterations: 13977 
    4400    14.943766      216          216            0 2.2069513e-13            0          0.1 0.0090013996  0.098751566   0.02989767 
number of iterations: 16470 
    4500    15.149617      218          218            0 2.2484207e-13            0          0.1 0.0090014259   0.10385685  0.029897626 
number of iterations: 16597 
    4600    15.356314      226          226            0 2.2906693e-13            0          0.1 0.0090014529   0.10910383  0.029897581 
number of iterations: 16590 
    4700    15.564807      229          229            0 2.3337118e-13            0          0.1 0.0090014802   0.11449571  0.029897535 
number of iterations: 16741 
    4800    15.773622      239          239            0 2.377563e-13            0          0.1  0.009001508   0.12003467  0.029897489 
number of iterations: 16712 
    4900    15.982188      242          242            0 2.4222382e-13            0          0.1 0.0090015363   0.12572283  0.029897442 
number of iterations: 16773 
    5000    16.192205      246          246            0 2.4677529e-13            0          0.1 0.0090015652   0.13156334  0.029897394 
number of iterations: 17173 
    5100    16.406185      253          253            0 2.5141228e-13            0          0.1 0.0090015955   0.13758829  0.029897343 
number of iterations: 17171 
    5200    16.620766      261          261            0 2.561364e-13            0          0.1 0.0090016249   0.14376809  0.029897294 
number of iterations: 16965 
    5300    16.833603      262          262            0 2.6094929e-13            0          0.1 0.0090016554   0.15006401  0.029897244 
number of iterations: 17026 
    5400    17.047303      266          266            0 2.6585261e-13            0          0.1 0.0090016865   0.15647823  0.029897192 
number of iterations: 17086 
    5500    17.263009      271          271            0 2.7084807e-13            0          0.1 0.0090017182   0.16301297  0.029897139 
number of iterations: 17146 
    5600    17.477596      274          274            0 2.759374e-13            0          0.1 0.0090017507   0.16967051  0.029897085 
number of iterations: 17275 
    5700    17.694352      281          281            0 2.8112236e-13            0          0.1 0.0090017852   0.17645314  0.029897028 
number of iterations: 17779 
    5800    17.917411      287          287            0 2.8640474e-13            0          0.1 0.0090018225   0.18336322  0.029896965 
number of iterations: 17644 
    5900    18.140086      292          292            0 2.9178638e-13            0          0.1 0.0090018575   0.19040314  0.029896907 
number of iterations: 17405 
    6000    18.361529      303          303            0 2.9726915e-13            0          0.1 0.0090018924   0.19757535  0.029896849 
number of iterations: 17465 
    6100    18.581382      304          304            0 3.0285493e-13            0          0.1  0.009001928   0.20488232   0.02989679 
number of iterations: 17525 
    6200    18.798946      310          310            0 3.0854568e-13            0          0.1 0.0090019642   0.21232659   0.02989673 
number of iterations: 18905 
    6300    19.036704      313          313            0 3.1434336e-13            0          0.1 0.0090020063   0.21991075  0.029896659 
number of iterations: 19163 
    6400    19.275323      318          318            0 3.2024997e-13            0          0.1 0.0090020503   0.22763742  0.029896586 
number of iterations: 17724 
    6500    19.496749      326          326            0 3.2626758e-13            0          0.1 0.0090020885   0.23550928  0.029896523 
number of iterations: 17830 
    6600    19.721597      332          332            0 3.3239825e-13            0          0.1 0.0090021276   0.24352905  0.029896457 
number of iterations: 17891 
    6700    19.947546      338          338            0 3.3864413e-13            0          0.1 0.0090021675   0.25169952  0.029896391 
number of iterations: 18033 
    6800    20.173292      346          346            0 3.4500736e-13            0          0.1 0.0090022133   0.26002512  0.029896315 
number of iterations: 18013 
    6900    20.399533      351          351            0 3.5149017e-13            0          0.1 0.0090022549   0.26850716  0.029896245 
number of iterations: 18073 
    7000    20.627958      357          357            0 3.5809479e-13            0          0.1 0.0090022972   0.27714859  0.029896175 
number of iterations: 18148 
    7100    20.854759      363          363            0 3.6482351e-13            0          0.1 0.0090023416   0.28595238  0.029896101 
number of iterations: 18194 
    7200    21.082065      369          369            0 3.7167866e-13            0          0.1 0.0090023856   0.29492161  0.029896028 
number of iterations: 18254 
    7300    21.312063      369          369            0 3.7866263e-13            0          0.1 0.0090024304   0.30405937  0.029895953 
number of iterations: 18665 
    7400    21.545705      377          377            0 3.8577782e-13            0          0.1 0.0090024829   0.31336884  0.029895866 
number of iterations: 18222 
    7500    21.772452      385          385            0 3.9302672e-13            0          0.1 0.0090025292   0.32285324  0.029895789 
number of iterations: 19593 
    7600    22.015964      391          391            0 4.0041182e-13            0          0.1  0.009002582   0.33251586  0.029895701 
number of iterations: 18527 
    7700    22.250414      396          396            0 4.0793569e-13            0          0.1 0.0090026313   0.34236004  0.029895619 
number of iterations: 18585 
    7800    22.484442      404          404            0 4.1560094e-13            0          0.1 0.0090026807   0.35238919  0.029895536 
number of iterations: 18969 
    7900    22.719121      409          409            0 4.2341021e-13            0          0.1 0.0090027346    0.3626068  0.029895447 
number of iterations: 18787 
    8000    22.987641      418          418            0 4.3136623e-13            0          0.1 0.0090027898   0.37301641  0.029895355 
number of iterations: 18823 
    8100    23.249622      427          427            0 4.3947175e-13            0          0.1 0.0090028422   0.38362161  0.029895268 
number of iterations: 18819 
    8200     23.49762      433          433            0 4.4772956e-13            0          0.1 0.0090028954   0.39442609  0.029895179 
number of iterations: 18423 
    8300    23.730632      436          436            0 4.5614255e-13            0          0.1 0.0090029454   0.40543359  0.029895096 
number of iterations: 18801 
    8400    23.968944      449          449            0 4.6471362e-13            0          0.1 0.0090029971   0.41664792   0.02989501 
number of iterations: 19004 
    8500     24.20685      460          460            0 4.7344574e-13            0          0.1 0.0090030537   0.42807297  0.029894915 
number of iterations: 19105 
    8600    24.444682      472          472            0 4.8234194e-13            0          0.1 0.0090031163   0.43971271  0.029894811 
number of iterations: 19125 
    8700    24.683255      481          481            0 4.914053e-13            0          0.1 0.0090031746   0.45157117  0.029894714 
Loop time of 24.6833 on 32 procs for 8700 steps with 481 atoms

Performance: 304530102.378 tau/day, 352.465 timesteps/s
98.7% CPU use with 32 MPI tasks x no OpenMP threads

MPI task timing breakdown:
Section |  min time  |  avg time  |  max time  |%varavg| %total
---------------------------------------------------------------
Pair    | 0.00042244 | 0.002532   | 0.0069387  |   3.1 |  0.01
Neigh   | 0.0011305  | 0.002124   | 0.0053012  |   1.9 |  0.01
Comm    | 0.010156   | 0.033435   | 0.053874   |   6.4 |  0.14
Output  | 0.84878    | 0.84919    | 0.84987    |   0.0 |  3.44
Modify  | 23.742     | 23.746     | 23.752     |   0.1 | 96.20
Other   |            | 0.05007    |            |       |  0.20

Nlocal:    15.0312 ave 54 max 0 min
Histogram: 9 4 8 2 3 2 3 0 0 1
Nghost:    6.875 ave 16 max 0 min
Histogram: 7 2 3 5 1 3 1 3 6 1
Neighs:    17.0312 ave 56 max 0 min
Histogram: 7 7 4 5 3 1 3 1 0 1

Total # of neighbors = 545
Ave neighs/atom = 1.13306
Neighbor list builds = 112
Dangerous builds = 0
Total wall time: 0:00:24
