 NUFEB Simulation

     50 atoms 
     2 atom types 
     4 nutrients 

  0.0e-4   1.00e-04  xlo xhi 
  0.0e-4   1.00e-04  ylo yhi 
  0.0e-4   5.00e-05  zlo zhi 

 Atoms 

     1 1 1.45e-06  370 8.55e-05 1.09e-05 4.39e-05 1.45e-06 
     2 1 1.45e-06  370 3.61e-06 2.26e-05 4.44e-05 1.45e-06 
     3 1 1.80e-06  370 9.14e-05 8.74e-05 2.05e-05 1.80e-06 
     4 1 1.62e-06  370 6.70e-05 3.25e-05 2.48e-05 1.62e-06 
     5 1 1.58e-06  370 6.08e-05 3.10e-05 6.54e-06 1.58e-06 
     6 1 1.67e-06  370 5.33e-05 7.05e-05 2.27e-05 1.67e-06 
     7 1 1.71e-06  370 7.45e-05 6.84e-05 2.11e-05 1.71e-06 
     8 1 1.65e-06  370 1.74e-05 6.24e-05 1.42e-05 1.65e-06 
     9 1 1.83e-06  370 9.17e-05 4.42e-05 1.49e-05 1.83e-06 
     10 1 1.87e-06  370 6.62e-05 4.93e-05 2.23e-05 1.87e-06 
     11 1 1.74e-06  370 3.13e-05 1.12e-05 3.61e-05 1.74e-06 
     12 1 1.73e-06  370 7.22e-05 3.92e-05 2.79e-05 1.73e-06 
     13 1 1.75e-06  370 4.01e-05 4.99e-06 4.04e-05 1.75e-06 
     14 1 1.81e-06  370 2.22e-05 3.33e-05 1.51e-05 1.81e-06 
     15 1 1.83e-06  370 5.96e-05 2.53e-05 1.15e-05 1.83e-06 
     16 1 1.67e-06  370 7.51e-05 7.57e-05 3.49e-05 1.67e-06 
     17 1 1.77e-06  370 2.03e-05 4.66e-05 1.87e-05 1.77e-06 
     18 1 1.80e-06  370 9.26e-05 5.41e-05 3.58e-05 1.80e-06 
     19 1 1.55e-06  370 6.78e-05 3.65e-05 1.12e-05 1.55e-06 
     20 1 1.52e-06  370 4.90e-05 4.33e-05 1.47e-05 1.52e-06 
     21 1 1.91e-06  370 6.59e-05 8.21e-05 3.50e-06 1.91e-06 
     22 1 1.47e-06  370 7.40e-05 3.83e-05 4.18e-05 1.47e-06 
     23 1 1.56e-06  370 4.46e-05 9.48e-05 8.63e-06 1.56e-06 
     24 1 1.88e-06  370 4.98e-05 4.92e-05 3.84e-05 1.88e-06 
     25 1 1.83e-06  370 7.95e-05 8.15e-05 2.33e-06 1.83e-06 
     26 1 1.66e-06  370 4.42e-05 3.66e-05 2.42e-05 1.66e-06 
     27 1 1.58e-06  370 1.90e-05 6.82e-05 3.74e-05 1.58e-06 
     28 1 1.64e-06  370 9.66e-05 4.80e-05 3.81e-05 1.64e-06 
     29 1 1.87e-06  370 7.32e-05 2.10e-05 2.61e-05 1.87e-06 
     30 1 1.87e-06  370 7.48e-05 5.36e-05 1.85e-05 1.87e-06 
     31 1 1.68e-06  370 9.47e-05 5.41e-05 1.35e-05 1.68e-06 
     32 1 1.73e-06  370 9.44e-05 8.75e-05 6.77e-06 1.73e-06 
     33 1 1.69e-06  370 1.26e-05 7.27e-05 8.70e-06 1.69e-06 
     34 1 1.93e-06  370 7.96e-05 6.55e-05 9.02e-06 1.93e-06 
     35 1 1.72e-06  370 5.61e-05 8.66e-05 1.43e-05 1.72e-06 
     36 1 1.39e-06  370 6.77e-05 5.25e-05 2.96e-05 1.39e-06 
     37 1 1.54e-06  370 9.71e-05 2.79e-05 3.26e-05 1.54e-06 
     38 1 1.68e-06  370 9.75e-06 2.40e-05 1.29e-05 1.68e-06 
     39 1 1.75e-06  370 6.77e-05 5.23e-05 2.25e-05 1.75e-06 
     40 1 1.50e-06  370 1.18e-05 6.69e-05 1.97e-05 1.50e-06 
     41 1 1.55e-06  370 8.30e-05 4.19e-05 1.65e-05 1.55e-06 
     42 1 1.91e-06  370 5.80e-05 3.55e-05 3.89e-05 1.91e-06 
     43 1 1.43e-06  370 8.05e-05 5.49e-05 3.44e-05 1.43e-06 
     44 1 1.66e-06  370 9.01e-05 2.15e-05 1.14e-05 1.66e-06 
     45 1 1.86e-06  370 1.25e-05 6.34e-05 3.20e-06 1.86e-06 
     46 1 1.69e-06  370 2.85e-05 7.78e-05 3.79e-05 1.69e-06 
     47 1 1.53e-06  370 3.09e-05 6.89e-05 2.10e-05 1.53e-06 
     48 1 1.45e-06  370 8.57e-05 8.85e-05 3.98e-05 1.45e-06 
     49 1 1.83e-06  370 8.21e-05 9.03e-05 4.14e-05 1.83e-06 
     50 1 1.83e-06  370 1.95e-05 5.59e-05 4.75e-05 1.83e-06 

 Nutrients 

     1 sub g nn nn nn 1.00e-01 1.00e-01 
     2 o2 l nn nn nd 9.00e-03 9.00e-03 
     3 suc l nn nn nn 3.42e-20 3.42e-20 
     4 co2 l nn nn nd 2.99e-02 2.99e-02 

 Type Name 

     1 cyano  
     2 ecw  

 Diffusion Coeffs 

     sub 0 
     o2 2.3e-09 
     suc 5.2e-10 
     co2 1.9e-09 

 Growth Rate 

     cyano 2.047e-05 
     ecw 6.71e-05 

 Ks 

     cyano 0.00035 0.0002 0.01 0.000138 
     ecw 0 0.001 3.6 0.05 

 Yield 

     cyano 0.55 
     ecw 0.43 

 Maintenance 

     cyano 0 
     ecw 9.5e-07 

 Decay 

     cyano 0 
     ecw 0 



