ITEM: TIMESTEP
0
ITEM: NUMBER OF ATOMS
50
ITEM: BOX BOUNDS ff ff ff
0.0000000000000000e+00 1.0000000000000000e-04
0.0000000000000000e+00 1.0000000000000000e-04
0.0000000000000000e+00 5.0000000000000002e-05
ITEM: ATOMS id type diameter x y z 
38 1 1.68e-06 9.75e-06 2.4e-05 1.29e-05 
20 1 1.52e-06 4.9e-05 4.33e-05 1.47e-05 
14 1 1.81e-06 2.22e-05 3.33e-05 1.51e-05 
17 1 1.77e-06 2.03e-05 4.66e-05 1.87e-05 
26 1 1.66e-06 4.42e-05 3.66e-05 2.42e-05 
11 1 1.74e-06 3.13e-05 1.12e-05 3.61e-05 
24 1 1.88e-06 4.98e-05 4.92e-05 3.84e-05 
13 1 1.75e-06 4.01e-05 4.99e-06 4.04e-05 
2 1 1.45e-06 3.61e-06 2.26e-05 4.44e-05 
45 1 1.86e-06 1.25e-05 6.34e-05 3.2e-06 
33 1 1.69e-06 1.26e-05 7.27e-05 8.7e-06 
23 1 1.56e-06 4.46e-05 9.48e-05 8.63e-06 
8 1 1.65e-06 1.74e-05 6.24e-05 1.42e-05 
40 1 1.5e-06 1.18e-05 6.69e-05 1.97e-05 
47 1 1.53e-06 3.09e-05 6.89e-05 2.1e-05 
27 1 1.58e-06 1.9e-05 6.82e-05 3.74e-05 
46 1 1.69e-06 2.85e-05 7.78e-05 3.79e-05 
50 1 1.83e-06 1.95e-05 5.59e-05 4.75e-05 
5 1 1.58e-06 6.08e-05 3.1e-05 6.54e-06 
44 1 1.66e-06 9.01e-05 2.15e-05 1.14e-05 
15 1 1.83e-06 5.96e-05 2.53e-05 1.15e-05 
19 1 1.55e-06 6.78e-05 3.65e-05 1.12e-05 
9 1 1.83e-06 9.17e-05 4.42e-05 1.49e-05 
41 1 1.55e-06 8.3e-05 4.19e-05 1.65e-05 
10 1 1.87e-06 6.62e-05 4.93e-05 2.23e-05 
4 1 1.62e-06 6.7e-05 3.25e-05 2.48e-05 
29 1 1.87e-06 7.32e-05 2.1e-05 2.61e-05 
12 1 1.73e-06 7.22e-05 3.92e-05 2.79e-05 
37 1 1.54e-06 9.71e-05 2.79e-05 3.26e-05 
28 1 1.64e-06 9.66e-05 4.8e-05 3.81e-05 
42 1 1.91e-06 5.8e-05 3.55e-05 3.89e-05 
22 1 1.47e-06 7.4e-05 3.83e-05 4.18e-05 
1 1 1.45e-06 8.55e-05 1.09e-05 4.39e-05 
25 1 1.83e-06 7.95e-05 8.15e-05 2.33e-06 
21 1 1.91e-06 6.59e-05 8.21e-05 3.5e-06 
32 1 1.73e-06 9.44e-05 8.75e-05 6.77e-06 
34 1 1.93e-06 7.96e-05 6.55e-05 9.02e-06 
31 1 1.68e-06 9.47e-05 5.41e-05 1.35e-05 
35 1 1.72e-06 5.61e-05 8.66e-05 1.43e-05 
30 1 1.87e-06 7.48e-05 5.36e-05 1.85e-05 
3 1 1.8e-06 9.14e-05 8.74e-05 2.05e-05 
7 1 1.71e-06 7.45e-05 6.84e-05 2.11e-05 
39 1 1.75e-06 6.77e-05 5.23e-05 2.25e-05 
6 1 1.67e-06 5.33e-05 7.05e-05 2.27e-05 
36 1 1.39e-06 6.77e-05 5.25e-05 2.96e-05 
43 1 1.43e-06 8.05e-05 5.49e-05 3.44e-05 
16 1 1.67e-06 7.51e-05 7.57e-05 3.49e-05 
18 1 1.8e-06 9.26e-05 5.41e-05 3.58e-05 
48 1 1.45e-06 8.57e-05 8.85e-05 3.98e-05 
49 1 1.83e-06 8.21e-05 9.03e-05 4.14e-05 
ITEM: TIMESTEP
100
ITEM: NUMBER OF ATOMS
50
ITEM: BOX BOUNDS ff ff ff
0.0000000000000000e+00 1.0000000000000000e-04
0.0000000000000000e+00 1.0000000000000000e-04
0.0000000000000000e+00 5.0000000000000002e-05
ITEM: ATOMS id type diameter x y z 
38 1 1.68995e-06 9.75e-06 2.4e-05 1.29e-05 
20 1 1.529e-06 4.9e-05 4.33e-05 1.47e-05 
14 1 1.82072e-06 2.22e-05 3.33e-05 1.51e-05 
17 1 1.78048e-06 2.03e-05 4.66e-05 1.87e-05 
26 1 1.66983e-06 4.42e-05 3.66e-05 2.42e-05 
11 1 1.7503e-06 3.13e-05 1.12e-05 3.61e-05 
24 1 1.89113e-06 4.98e-05 4.92e-05 3.84e-05 
13 1 1.76036e-06 4.01e-05 4.99e-06 4.04e-05 
2 1 1.45859e-06 3.61e-06 2.26e-05 4.44e-05 
45 1 1.87101e-06 1.25e-05 6.34e-05 3.2e-06 
33 1 1.70001e-06 1.26e-05 7.27e-05 8.7e-06 
23 1 1.56924e-06 4.46e-05 9.48e-05 8.63e-06 
8 1 1.65977e-06 1.74e-05 6.24e-05 1.42e-05 
40 1 1.50888e-06 1.18e-05 6.69e-05 1.97e-05 
47 1 1.53906e-06 3.09e-05 6.89e-05 2.1e-05 
27 1 1.58936e-06 1.9e-05 6.82e-05 3.74e-05 
46 1 1.70001e-06 2.85e-05 7.78e-05 3.79e-05 
50 1 1.84084e-06 1.95e-05 5.59e-05 4.75e-05 
5 1 1.58936e-06 6.08e-05 3.1e-05 6.54e-06 
44 1 1.66983e-06 9.01e-05 2.15e-05 1.14e-05 
15 1 1.84084e-06 5.96e-05 2.53e-05 1.15e-05 
19 1 1.55918e-06 6.78e-05 3.65e-05 1.12e-05 
9 1 1.84084e-06 9.17e-05 4.42e-05 1.49e-05 
41 1 1.55918e-06 8.3e-05 4.19e-05 1.65e-05 
10 1 1.88107e-06 6.62e-05 4.93e-05 2.23e-05 
4 1 1.62959e-06 6.7e-05 3.25e-05 2.48e-05 
29 1 1.88107e-06 7.32e-05 2.1e-05 2.61e-05 
12 1 1.74024e-06 7.22e-05 3.92e-05 2.79e-05 
37 1 1.54912e-06 9.71e-05 2.79e-05 3.26e-05 
28 1 1.64971e-06 9.66e-05 4.8e-05 3.81e-05 
42 1 1.92131e-06 5.8e-05 3.55e-05 3.89e-05 
22 1 1.4787e-06 7.4e-05 3.83e-05 4.18e-05 
1 1 1.45859e-06 8.55e-05 1.09e-05 4.39e-05 
25 1 1.84084e-06 7.95e-05 8.15e-05 2.33e-06 
21 1 1.92131e-06 6.59e-05 8.21e-05 3.5e-06 
32 1 1.74024e-06 9.44e-05 8.75e-05 6.77e-06 
34 1 1.94143e-06 7.96e-05 6.55e-05 9.02e-06 
31 1 1.68995e-06 9.47e-05 5.41e-05 1.35e-05 
35 1 1.73018e-06 5.61e-05 8.66e-05 1.43e-05 
30 1 1.88107e-06 7.48e-05 5.36e-05 1.85e-05 
3 1 1.81066e-06 9.14e-05 8.74e-05 2.05e-05 
7 1 1.72012e-06 7.45e-05 6.84e-05 2.11e-05 
39 1 1.76036e-06 6.77e-05 5.23e-05 2.25e-05 
6 1 1.67989e-06 5.33e-05 7.05e-05 2.27e-05 
36 1 1.39823e-06 6.77e-05 5.25e-05 2.96e-05 
43 1 1.43847e-06 8.05e-05 5.49e-05 3.44e-05 
16 1 1.67989e-06 7.51e-05 7.57e-05 3.49e-05 
18 1 1.81066e-06 9.26e-05 5.41e-05 3.58e-05 
48 1 1.45859e-06 8.57e-05 8.85e-05 3.98e-05 
49 1 1.84084e-06 8.21e-05 9.03e-05 4.14e-05 
ITEM: TIMESTEP
200
ITEM: NUMBER OF ATOMS
50
ITEM: BOX BOUNDS ff ff ff
0.0000000000000000e+00 1.0000000000000000e-04
0.0000000000000000e+00 1.0000000000000000e-04
0.0000000000000000e+00 5.0000000000000002e-05
ITEM: ATOMS id type diameter x y z 
38 1 1.69995e-06 9.75e-06 2.4e-05 1.29e-05 
20 1 1.53805e-06 4.9e-05 4.33e-05 1.47e-05 
14 1 1.8315e-06 2.22e-05 3.33e-05 1.51e-05 
17 1 1.79102e-06 2.03e-05 4.66e-05 1.87e-05 
26 1 1.67972e-06 4.42e-05 3.66e-05 2.42e-05 
11 1 1.76067e-06 3.13e-05 1.12e-05 3.61e-05 
24 1 1.90233e-06 4.98e-05 4.92e-05 3.84e-05 
13 1 1.77078e-06 4.01e-05 4.99e-06 4.04e-05 
2 1 1.46722e-06 3.61e-06 2.26e-05 4.44e-05 
45 1 1.88209e-06 1.25e-05 6.34e-05 3.2e-06 
33 1 1.71007e-06 1.26e-05 7.27e-05 8.7e-06 
23 1 1.57853e-06 4.46e-05 9.48e-05 8.63e-06 
8 1 1.6696e-06 1.74e-05 6.24e-05 1.42e-05 
40 1 1.51782e-06 1.18e-05 6.69e-05 1.97e-05 
47 1 1.54817e-06 3.09e-05 6.89e-05 2.1e-05 
27 1 1.59877e-06 1.9e-05 6.82e-05 3.74e-05 
46 1 1.71007e-06 2.85e-05 7.78e-05 3.79e-05 
50 1 1.85173e-06 1.95e-05 5.59e-05 4.75e-05 
5 1 1.59877e-06 6.08e-05 3.1e-05 6.54e-06 
44 1 1.67972e-06 9.01e-05 2.15e-05 1.14e-05 
15 1 1.85173e-06 5.96e-05 2.53e-05 1.15e-05 
19 1 1.56841e-06 6.78e-05 3.65e-05 1.12e-05 
9 1 1.85173e-06 9.17e-05 4.42e-05 1.49e-05 
41 1 1.56841e-06 8.3e-05 4.19e-05 1.65e-05 
10 1 1.89221e-06 6.62e-05 4.93e-05 2.23e-05 
4 1 1.63924e-06 6.7e-05 3.25e-05 2.48e-05 
29 1 1.89221e-06 7.32e-05 2.1e-05 2.61e-05 
12 1 1.75055e-06 7.22e-05 3.92e-05 2.79e-05 
37 1 1.55829e-06 9.71e-05 2.79e-05 3.26e-05 
28 1 1.65948e-06 9.66e-05 4.8e-05 3.81e-05 
42 1 1.93269e-06 5.8e-05 3.55e-05 3.89e-05 
22 1 1.48746e-06 7.4e-05 3.83e-05 4.18e-05 
1 1 1.46722e-06 8.55e-05 1.09e-05 4.39e-05 
25 1 1.85173e-06 7.95e-05 8.15e-05 2.33e-06 
21 1 1.93269e-06 6.59e-05 8.21e-05 3.5e-06 
32 1 1.75055e-06 9.44e-05 8.75e-05 6.77e-06 
34 1 1.95292e-06 7.96e-05 6.55e-05 9.02e-06 
31 1 1.69995e-06 9.47e-05 5.41e-05 1.35e-05 
35 1 1.74043e-06 5.61e-05 8.66e-05 1.43e-05 
30 1 1.89221e-06 7.48e-05 5.36e-05 1.85e-05 
3 1 1.82138e-06 9.14e-05 8.74e-05 2.05e-05 
7 1 1.73031e-06 7.45e-05 6.84e-05 2.11e-05 
39 1 1.77078e-06 6.77e-05 5.23e-05 2.25e-05 
6 1 1.68983e-06 5.33e-05 7.05e-05 2.27e-05 
36 1 1.40651e-06 6.77e-05 5.25e-05 2.96e-05 
43 1 1.44698e-06 8.05e-05 5.49e-05 3.44e-05 
16 1 1.68983e-06 7.51e-05 7.57e-05 3.49e-05 
18 1 1.82138e-06 9.26e-05 5.41e-05 3.58e-05 
48 1 1.46722e-06 8.57e-05 8.85e-05 3.98e-05 
49 1 1.85173e-06 8.21e-05 9.03e-05 4.14e-05 
ITEM: TIMESTEP
300
ITEM: NUMBER OF ATOMS
50
ITEM: BOX BOUNDS ff ff ff
0.0000000000000000e+00 1.0000000000000000e-04
0.0000000000000000e+00 1.0000000000000000e-04
0.0000000000000000e+00 5.0000000000000002e-05
ITEM: ATOMS id type diameter x y z 
38 1 1.71002e-06 9.75e-06 2.4e-05 1.29e-05 
20 1 1.54716e-06 4.9e-05 4.33e-05 1.47e-05 
14 1 1.84234e-06 2.22e-05 3.33e-05 1.51e-05 
17 1 1.80163e-06 2.03e-05 4.66e-05 1.87e-05 
26 1 1.68966e-06 4.42e-05 3.66e-05 2.42e-05 
11 1 1.77109e-06 3.13e-05 1.12e-05 3.61e-05 
24 1 1.91359e-06 4.98e-05 4.92e-05 3.84e-05 
13 1 1.78127e-06 4.01e-05 4.99e-06 4.04e-05 
2 1 1.47591e-06 3.61e-06 2.26e-05 4.44e-05 
45 1 1.89323e-06 1.25e-05 6.34e-05 3.2e-06 
33 1 1.7202e-06 1.26e-05 7.27e-05 8.7e-06 
23 1 1.58787e-06 4.46e-05 9.48e-05 8.63e-06 
8 1 1.67948e-06 1.74e-05 6.24e-05 1.42e-05 
40 1 1.5268e-06 1.18e-05 6.69e-05 1.97e-05 
47 1 1.55734e-06 3.09e-05 6.89e-05 2.1e-05 
27 1 1.60823e-06 1.9e-05 6.82e-05 3.74e-05 
46 1 1.7202e-06 2.85e-05 7.78e-05 3.79e-05 
50 1 1.8627e-06 1.95e-05 5.59e-05 4.75e-05 
5 1 1.60823e-06 6.08e-05 3.1e-05 6.54e-06 
44 1 1.68966e-06 9.01e-05 2.15e-05 1.14e-05 
15 1 1.8627e-06 5.96e-05 2.53e-05 1.15e-05 
19 1 1.5777e-06 6.78e-05 3.65e-05 1.12e-05 
9 1 1.8627e-06 9.17e-05 4.42e-05 1.49e-05 
41 1 1.5777e-06 8.3e-05 4.19e-05 1.65e-05 
10 1 1.90341e-06 6.62e-05 4.93e-05 2.23e-05 
4 1 1.64895e-06 6.7e-05 3.25e-05 2.48e-05 
29 1 1.90341e-06 7.32e-05 2.1e-05 2.61e-05 
12 1 1.76091e-06 7.22e-05 3.92e-05 2.79e-05 
37 1 1.56752e-06 9.71e-05 2.79e-05 3.26e-05 
28 1 1.6693e-06 9.66e-05 4.8e-05 3.81e-05 
42 1 1.94413e-06 5.8e-05 3.55e-05 3.89e-05 
22 1 1.49627e-06 7.4e-05 3.83e-05 4.18e-05 
1 1 1.47591e-06 8.55e-05 1.09e-05 4.39e-05 
25 1 1.8627e-06 7.95e-05 8.15e-05 2.33e-06 
21 1 1.94413e-06 6.59e-05 8.21e-05 3.5e-06 
32 1 1.76091e-06 9.44e-05 8.75e-05 6.77e-06 
34 1 1.96449e-06 7.96e-05 6.55e-05 9.02e-06 
31 1 1.71002e-06 9.47e-05 5.41e-05 1.35e-05 
35 1 1.75073e-06 5.61e-05 8.66e-05 1.43e-05 
30 1 1.90341e-06 7.48e-05 5.36e-05 1.85e-05 
3 1 1.83216e-06 9.14e-05 8.74e-05 2.05e-05 
7 1 1.74055e-06 7.45e-05 6.84e-05 2.11e-05 
39 1 1.78127e-06 6.77e-05 5.23e-05 2.25e-05 
6 1 1.69984e-06 5.33e-05 7.05e-05 2.27e-05 
36 1 1.41484e-06 6.77e-05 5.25e-05 2.96e-05 
43 1 1.45555e-06 8.05e-05 5.49e-05 3.44e-05 
16 1 1.69984e-06 7.51e-05 7.57e-05 3.49e-05 
18 1 1.83216e-06 9.26e-05 5.41e-05 3.58e-05 
48 1 1.47591e-06 8.57e-05 8.85e-05 3.98e-05 
49 1 1.8627e-06 8.21e-05 9.03e-05 4.14e-05 
ITEM: TIMESTEP
400
ITEM: NUMBER OF ATOMS
51
ITEM: BOX BOUNDS ff ff ff
0.0000000000000000e+00 1.0000000000000000e-04
0.0000000000000000e+00 1.0000000000000000e-04
0.0000000000000000e+00 5.0000000000000002e-05
ITEM: ATOMS id type diameter x y z 
38 1 1.72014e-06 9.75e-06 2.4e-05 1.29e-05 
20 1 1.55632e-06 4.9e-05 4.33e-05 1.47e-05 
14 1 1.85325e-06 2.22e-05 3.33e-05 1.51e-05 
17 1 1.81229e-06 2.03e-05 4.66e-05 1.87e-05 
26 1 1.69967e-06 4.42e-05 3.66e-05 2.42e-05 
11 1 1.78158e-06 3.13e-05 1.12e-05 3.61e-05 
24 1 1.92492e-06 4.98e-05 4.92e-05 3.84e-05 
13 1 1.79182e-06 4.01e-05 4.99e-06 4.04e-05 
2 1 1.48465e-06 3.61e-06 2.26e-05 4.44e-05 
45 1 1.90444e-06 1.25e-05 6.34e-05 3.2e-06 
33 1 1.73038e-06 1.26e-05 7.27e-05 8.7e-06 
23 1 1.59728e-06 4.46e-05 9.48e-05 8.63e-06 
8 1 1.68943e-06 1.74e-05 6.24e-05 1.42e-05 
40 1 1.53584e-06 1.18e-05 6.69e-05 1.97e-05 
47 1 1.56656e-06 3.09e-05 6.89e-05 2.1e-05 
27 1 1.61775e-06 1.9e-05 6.82e-05 3.74e-05 
46 1 1.73038e-06 2.85e-05 7.78e-05 3.79e-05 
50 1 1.87373e-06 1.95e-05 5.59e-05 4.75e-05 
5 1 1.61775e-06 6.08e-05 3.1e-05 6.54e-06 
44 1 1.69967e-06 9.01e-05 2.15e-05 1.14e-05 
15 1 1.87373e-06 5.96e-05 2.53e-05 1.15e-05 
19 1 1.58704e-06 6.78e-05 3.65e-05 1.12e-05 
9 1 1.87373e-06 9.17e-05 4.42e-05 1.49e-05 
41 1 1.58704e-06 8.3e-05 4.19e-05 1.65e-05 
10 1 1.91468e-06 6.62e-05 4.93e-05 2.23e-05 
4 1 1.65871e-06 6.7e-05 3.25e-05 2.48e-05 
29 1 1.91468e-06 7.32e-05 2.1e-05 2.61e-05 
12 1 1.77134e-06 7.22e-05 3.92e-05 2.79e-05 
37 1 1.5768e-06 9.71e-05 2.79e-05 3.26e-05 
28 1 1.67919e-06 9.66e-05 4.8e-05 3.81e-05 
42 1 1.95564e-06 5.8e-05 3.55e-05 3.89e-05 
22 1 1.50513e-06 7.4e-05 3.83e-05 4.18e-05 
1 1 1.48465e-06 8.55e-05 1.09e-05 4.39e-05 
25 1 1.87373e-06 7.95e-05 8.15e-05 2.33e-06 
21 1 1.95564e-06 6.59e-05 8.21e-05 3.5e-06 
32 1 1.77134e-06 9.44e-05 8.75e-05 6.77e-06 
34 1 1.48026e-06 8.00249e-05 6.57918e-05 8.48983e-06 
31 1 1.72014e-06 9.47e-05 5.41e-05 1.35e-05 
35 1 1.7611e-06 5.61e-05 8.66e-05 1.43e-05 
30 1 1.91468e-06 7.48e-05 5.36e-05 1.85e-05 
51 1 1.6477e-06 7.9127e-05 6.51752e-05 9.61014e-06 
3 1 1.84301e-06 9.14e-05 8.74e-05 2.05e-05 
7 1 1.75086e-06 7.45e-05 6.84e-05 2.11e-05 
39 1 1.79182e-06 6.77e-05 5.23e-05 2.25e-05 
6 1 1.7099e-06 5.33e-05 7.05e-05 2.27e-05 
36 1 1.42321e-06 6.77e-05 5.25e-05 2.96e-05 
43 1 1.46417e-06 8.05e-05 5.49e-05 3.44e-05 
16 1 1.7099e-06 7.51e-05 7.57e-05 3.49e-05 
18 1 1.84301e-06 9.26e-05 5.41e-05 3.58e-05 
48 1 1.48465e-06 8.57e-05 8.85e-05 3.98e-05 
49 1 1.87373e-06 8.21e-05 9.03e-05 4.14e-05 
ITEM: TIMESTEP
500
ITEM: NUMBER OF ATOMS
51
ITEM: BOX BOUNDS ff ff ff
0.0000000000000000e+00 1.0000000000000000e-04
0.0000000000000000e+00 1.0000000000000000e-04
0.0000000000000000e+00 5.0000000000000002e-05
ITEM: ATOMS id type diameter x y z 
38 1 1.73033e-06 9.75e-06 2.4e-05 1.29e-05 
20 1 1.56554e-06 4.9e-05 4.33e-05 1.47e-05 
14 1 1.86422e-06 2.22e-05 3.33e-05 1.51e-05 
17 1 1.82302e-06 2.03e-05 4.66e-05 1.87e-05 
26 1 1.70973e-06 4.42e-05 3.66e-05 2.42e-05 
11 1 1.79213e-06 3.13e-05 1.12e-05 3.61e-05 
24 1 1.93632e-06 4.98e-05 4.92e-05 3.84e-05 
13 1 1.80243e-06 4.01e-05 4.99e-06 4.04e-05 
2 1 1.49344e-06 3.61e-06 2.26e-05 4.44e-05 
45 1 1.91572e-06 1.25e-05 6.34e-05 3.2e-06 
33 1 1.74063e-06 1.26e-05 7.27e-05 8.7e-06 
23 1 1.60673e-06 4.46e-05 9.48e-05 8.63e-06 
8 1 1.69943e-06 1.74e-05 6.24e-05 1.42e-05 
40 1 1.54494e-06 1.18e-05 6.69e-05 1.97e-05 
47 1 1.57583e-06 3.09e-05 6.89e-05 2.1e-05 
27 1 1.62733e-06 1.9e-05 6.82e-05 3.74e-05 
46 1 1.74063e-06 2.85e-05 7.78e-05 3.79e-05 
50 1 1.88482e-06 1.95e-05 5.59e-05 4.75e-05 
5 1 1.62733e-06 6.08e-05 3.1e-05 6.54e-06 
44 1 1.70973e-06 9.01e-05 2.15e-05 1.14e-05 
15 1 1.88482e-06 5.96e-05 2.53e-05 1.15e-05 
19 1 1.59643e-06 6.78e-05 3.65e-05 1.12e-05 
9 1 1.88482e-06 9.17e-05 4.42e-05 1.49e-05 
41 1 1.59643e-06 8.3e-05 4.19e-05 1.65e-05 
10 1 1.92602e-06 6.62e-05 4.93e-05 2.23e-05 
4 1 1.66853e-06 6.7e-05 3.25e-05 2.48e-05 
29 1 1.92602e-06 7.32e-05 2.1e-05 2.61e-05 
12 1 1.78183e-06 7.22e-05 3.92e-05 2.79e-05 
37 1 1.58613e-06 9.71e-05 2.79e-05 3.26e-05 
28 1 1.68913e-06 9.66e-05 4.8e-05 3.81e-05 
42 1 1.96722e-06 5.8e-05 3.55e-05 3.89e-05 
22 1 1.51404e-06 7.4e-05 3.83e-05 4.18e-05 
1 1 1.49344e-06 8.55e-05 1.09e-05 4.39e-05 
25 1 1.88482e-06 7.95e-05 8.15e-05 2.33e-06 
21 1 1.96722e-06 6.59e-05 8.21e-05 3.5e-06 
32 1 1.78183e-06 9.44e-05 8.75e-05 6.77e-06 
34 1 1.48902e-06 8.00249e-05 6.57918e-05 8.48983e-06 
31 1 1.73033e-06 9.47e-05 5.41e-05 1.35e-05 
35 1 1.77153e-06 5.61e-05 8.66e-05 1.43e-05 
30 1 1.92602e-06 7.48e-05 5.36e-05 1.85e-05 
51 1 1.65745e-06 7.9127e-05 6.51752e-05 9.61014e-06 
3 1 1.85392e-06 9.14e-05 8.74e-05 2.05e-05 
7 1 1.76123e-06 7.45e-05 6.84e-05 2.11e-05 
39 1 1.80243e-06 6.77e-05 5.23e-05 2.25e-05 
6 1 1.72003e-06 5.33e-05 7.05e-05 2.27e-05 
36 1 1.43164e-06 6.77e-05 5.25e-05 2.96e-05 
43 1 1.47284e-06 8.05e-05 5.49e-05 3.44e-05 
16 1 1.72003e-06 7.51e-05 7.57e-05 3.49e-05 
18 1 1.85392e-06 9.26e-05 5.41e-05 3.58e-05 
48 1 1.49344e-06 8.57e-05 8.85e-05 3.98e-05 
49 1 1.88482e-06 8.21e-05 9.03e-05 4.14e-05 
ITEM: TIMESTEP
600
ITEM: NUMBER OF ATOMS
53
ITEM: BOX BOUNDS ff ff ff
0.0000000000000000e+00 1.0000000000000000e-04
0.0000000000000000e+00 1.0000000000000000e-04
0.0000000000000000e+00 5.0000000000000002e-05
ITEM: ATOMS id type diameter x y z 
38 1 1.74057e-06 9.75e-06 2.4e-05 1.29e-05 
20 1 1.5748e-06 4.9e-05 4.33e-05 1.47e-05 
14 1 1.87526e-06 2.22e-05 3.33e-05 1.51e-05 
17 1 1.83382e-06 2.03e-05 4.66e-05 1.87e-05 
26 1 1.71985e-06 4.42e-05 3.66e-05 2.42e-05 
11 1 1.80274e-06 3.13e-05 1.12e-05 3.61e-05 
24 1 1.94778e-06 4.98e-05 4.92e-05 3.84e-05 
13 1 1.8131e-06 4.01e-05 4.99e-06 4.04e-05 
2 1 1.50228e-06 3.61e-06 2.26e-05 4.44e-05 
45 1 1.92706e-06 1.25e-05 6.34e-05 3.2e-06 
33 1 1.75093e-06 1.26e-05 7.27e-05 8.7e-06 
23 1 1.61625e-06 4.46e-05 9.48e-05 8.63e-06 
8 1 1.70949e-06 1.74e-05 6.24e-05 1.42e-05 
40 1 1.55408e-06 1.18e-05 6.69e-05 1.97e-05 
47 1 1.58517e-06 3.09e-05 6.89e-05 2.1e-05 
27 1 1.63697e-06 1.9e-05 6.82e-05 3.74e-05 
46 1 1.75093e-06 2.85e-05 7.78e-05 3.79e-05 
50 1 1.89598e-06 1.95e-05 5.59e-05 4.75e-05 
5 1 1.63697e-06 6.08e-05 3.1e-05 6.54e-06 
44 1 1.71985e-06 9.01e-05 2.15e-05 1.14e-05 
15 1 1.89598e-06 5.96e-05 2.53e-05 1.15e-05 
19 1 1.60589e-06 6.78e-05 3.65e-05 1.12e-05 
9 1 1.89598e-06 9.17e-05 4.42e-05 1.49e-05 
41 1 1.60589e-06 8.3e-05 4.19e-05 1.65e-05 
10 1 1.93742e-06 6.62e-05 4.93e-05 2.23e-05 
4 1 1.67841e-06 6.7e-05 3.25e-05 2.48e-05 
29 1 1.93742e-06 7.32e-05 2.1e-05 2.61e-05 
12 1 1.79238e-06 7.22e-05 3.92e-05 2.79e-05 
37 1 1.59553e-06 9.71e-05 2.79e-05 3.26e-05 
28 1 1.69913e-06 9.66e-05 4.8e-05 3.81e-05 
42 1 1.48232e-06 5.84255e-05 3.57922e-05 3.83691e-05 
22 1 1.523e-06 7.4e-05 3.83e-05 4.18e-05 
1 1 1.50228e-06 8.55e-05 1.09e-05 4.39e-05 
52 1 1.64999e-06 5.75264e-05 3.51747e-05 3.9491e-05 
25 1 1.89598e-06 7.95e-05 8.15e-05 2.33e-06 
21 1 1.55794e-06 6.53972e-05 8.24883e-05 3.94956e-06 
32 1 1.79238e-06 9.44e-05 8.75e-05 6.77e-06 
34 1 1.49784e-06 8.00249e-05 6.57918e-05 8.48983e-06 
31 1 1.74057e-06 9.47e-05 5.41e-05 1.35e-05 
35 1 1.78202e-06 5.61e-05 8.66e-05 1.43e-05 
30 1 1.93742e-06 7.48e-05 5.36e-05 1.85e-05 
51 1 1.66727e-06 7.9127e-05 6.51752e-05 9.61014e-06 
53 1 1.58311e-06 6.64109e-05 8.17054e-05 3.04317e-06 
3 1 1.8649e-06 9.14e-05 8.74e-05 2.05e-05 
7 1 1.77166e-06 7.45e-05 6.84e-05 2.11e-05 
39 1 1.8131e-06 6.77e-05 5.23e-05 2.25e-05 
6 1 1.73021e-06 5.33e-05 7.05e-05 2.27e-05 
36 1 1.44012e-06 6.77e-05 5.25e-05 2.96e-05 
43 1 1.48156e-06 8.05e-05 5.49e-05 3.44e-05 
16 1 1.73021e-06 7.51e-05 7.57e-05 3.49e-05 
18 1 1.8649e-06 9.26e-05 5.41e-05 3.58e-05 
48 1 1.50228e-06 8.57e-05 8.85e-05 3.98e-05 
49 1 1.89598e-06 8.21e-05 9.03e-05 4.14e-05 
ITEM: TIMESTEP
700
ITEM: NUMBER OF ATOMS
53
ITEM: BOX BOUNDS ff ff ff
0.0000000000000000e+00 1.0000000000000000e-04
0.0000000000000000e+00 1.0000000000000000e-04
0.0000000000000000e+00 5.0000000000000002e-05
ITEM: ATOMS id type diameter x y z 
38 1 1.75088e-06 9.75e-06 2.4e-05 1.29e-05 
20 1 1.58413e-06 4.9e-05 4.33e-05 1.47e-05 
14 1 1.88636e-06 2.22e-05 3.33e-05 1.51e-05 
17 1 1.84468e-06 2.03e-05 4.66e-05 1.87e-05 
26 1 1.73004e-06 4.42e-05 3.66e-05 2.42e-05 
11 1 1.81341e-06 3.13e-05 1.12e-05 3.61e-05 
24 1 1.95932e-06 4.98e-05 4.92e-05 3.84e-05 
13 1 1.82383e-06 4.01e-05 4.99e-06 4.04e-05 
2 1 1.51118e-06 3.61e-06 2.26e-05 4.44e-05 
45 1 1.93847e-06 1.25e-05 6.34e-05 3.2e-06 
33 1 1.7613e-06 1.26e-05 7.27e-05 8.7e-06 
23 1 1.62582e-06 4.46e-05 9.48e-05 8.63e-06 
8 1 1.71961e-06 1.74e-05 6.24e-05 1.42e-05 
40 1 1.56329e-06 1.18e-05 6.69e-05 1.97e-05 
47 1 1.59455e-06 3.09e-05 6.89e-05 2.1e-05 
27 1 1.64666e-06 1.9e-05 6.82e-05 3.74e-05 
46 1 1.7613e-06 2.85e-05 7.78e-05 3.79e-05 
50 1 1.90721e-06 1.95e-05 5.59e-05 4.75e-05 
5 1 1.64666e-06 6.08e-05 3.1e-05 6.54e-06 
44 1 1.73004e-06 9.01e-05 2.15e-05 1.14e-05 
15 1 1.90721e-06 5.96e-05 2.53e-05 1.15e-05 
19 1 1.61539e-06 6.78e-05 3.65e-05 1.12e-05 
9 1 1.90721e-06 9.17e-05 4.42e-05 1.49e-05 
41 1 1.61539e-06 8.3e-05 4.19e-05 1.65e-05 
10 1 1.9489e-06 6.62e-05 4.93e-05 2.23e-05 
4 1 1.68835e-06 6.7e-05 3.25e-05 2.48e-05 
29 1 1.9489e-06 7.32e-05 2.1e-05 2.61e-05 
12 1 1.80299e-06 7.22e-05 3.92e-05 2.79e-05 
37 1 1.60497e-06 9.71e-05 2.79e-05 3.26e-05 
28 1 1.70919e-06 9.66e-05 4.8e-05 3.81e-05 
42 1 1.49109e-06 5.84255e-05 3.57922e-05 3.83691e-05 
22 1 1.53202e-06 7.4e-05 3.83e-05 4.18e-05 
1 1 1.51118e-06 8.55e-05 1.09e-05 4.39e-05 
52 1 1.65976e-06 5.75264e-05 3.51747e-05 3.9491e-05 
25 1 1.90721e-06 7.95e-05 8.15e-05 2.33e-06 
21 1 1.56716e-06 6.53972e-05 8.24883e-05 3.94956e-06 
32 1 1.80299e-06 9.44e-05 8.75e-05 6.77e-06 
34 1 1.50671e-06 8.00249e-05 6.57918e-05 8.48983e-06 
31 1 1.75088e-06 9.47e-05 5.41e-05 1.35e-05 
35 1 1.79257e-06 5.61e-05 8.66e-05 1.43e-05 
30 1 1.9489e-06 7.48e-05 5.36e-05 1.85e-05 
51 1 1.67714e-06 7.9127e-05 6.51752e-05 9.61014e-06 
53 1 1.59249e-06 6.64109e-05 8.17054e-05 3.04317e-06 
3 1 1.87594e-06 9.14e-05 8.74e-05 2.05e-05 
7 1 1.78215e-06 7.45e-05 6.84e-05 2.11e-05 
39 1 1.82383e-06 6.77e-05 5.23e-05 2.25e-05 
6 1 1.74046e-06 5.33e-05 7.05e-05 2.27e-05 
36 1 1.44864e-06 6.77e-05 5.25e-05 2.96e-05 
43 1 1.49033e-06 8.05e-05 5.49e-05 3.44e-05 
16 1 1.74046e-06 7.51e-05 7.57e-05 3.49e-05 
18 1 1.87594e-06 9.26e-05 5.41e-05 3.58e-05 
48 1 1.51118e-06 8.57e-05 8.85e-05 3.98e-05 
49 1 1.90721e-06 8.21e-05 9.03e-05 4.14e-05 
ITEM: TIMESTEP
800
ITEM: NUMBER OF ATOMS
53
ITEM: BOX BOUNDS ff ff ff
0.0000000000000000e+00 1.0000000000000000e-04
0.0000000000000000e+00 1.0000000000000000e-04
0.0000000000000000e+00 5.0000000000000002e-05
ITEM: ATOMS id type diameter x y z 
38 1 1.76125e-06 9.75e-06 2.4e-05 1.29e-05 
20 1 1.59351e-06 4.9e-05 4.33e-05 1.47e-05 
14 1 1.89753e-06 2.22e-05 3.33e-05 1.51e-05 
17 1 1.8556e-06 2.03e-05 4.66e-05 1.87e-05 
26 1 1.74028e-06 4.42e-05 3.66e-05 2.42e-05 
11 1 1.82415e-06 3.13e-05 1.12e-05 3.61e-05 
24 1 1.97092e-06 4.98e-05 4.92e-05 3.84e-05 
13 1 1.83463e-06 4.01e-05 4.99e-06 4.04e-05 
2 1 1.52012e-06 3.61e-06 2.26e-05 4.44e-05 
45 1 1.94995e-06 1.25e-05 6.34e-05 3.2e-06 
33 1 1.77173e-06 1.26e-05 7.27e-05 8.7e-06 
23 1 1.63544e-06 4.46e-05 9.48e-05 8.63e-06 
8 1 1.7298e-06 1.74e-05 6.24e-05 1.42e-05 
40 1 1.57254e-06 1.18e-05 6.69e-05 1.97e-05 
47 1 1.60399e-06 3.09e-05 6.89e-05 2.1e-05 
27 1 1.65641e-06 1.9e-05 6.82e-05 3.74e-05 
46 1 1.77173e-06 2.85e-05 7.78e-05 3.79e-05 
50 1 1.9185e-06 1.95e-05 5.59e-05 4.75e-05 
5 1 1.65641e-06 6.08e-05 3.1e-05 6.54e-06 
44 1 1.74028e-06 9.01e-05 2.15e-05 1.14e-05 
15 1 1.9185e-06 5.96e-05 2.53e-05 1.15e-05 
19 1 1.62496e-06 6.78e-05 3.65e-05 1.12e-05 
9 1 1.9185e-06 9.17e-05 4.42e-05 1.49e-05 
41 1 1.62496e-06 8.3e-05 4.19e-05 1.65e-05 
10 1 1.96044e-06 6.62e-05 4.93e-05 2.23e-05 
4 1 1.69834e-06 6.7e-05 3.25e-05 2.48e-05 
29 1 1.96044e-06 7.32e-05 2.1e-05 2.61e-05 
12 1 1.81366e-06 7.22e-05 3.92e-05 2.79e-05 
37 1 1.61448e-06 9.71e-05 2.79e-05 3.26e-05 
28 1 1.71931e-06 9.66e-05 4.8e-05 3.81e-05 
42 1 1.49992e-06 5.84255e-05 3.57922e-05 3.83691e-05 
22 1 1.54109e-06 7.4e-05 3.83e-05 4.18e-05 
1 1 1.52012e-06 8.55e-05 1.09e-05 4.39e-05 
52 1 1.66958e-06 5.75264e-05 3.51747e-05 3.9491e-05 
25 1 1.9185e-06 7.95e-05 8.15e-05 2.33e-06 
21 1 1.57644e-06 6.53972e-05 8.24883e-05 3.94956e-06 
32 1 1.81366e-06 9.44e-05 8.75e-05 6.77e-06 
34 1 1.51563e-06 8.00364e-05 6.57997e-05 8.47549e-06 
31 1 1.76125e-06 9.47e-05 5.41e-05 1.35e-05 
35 1 1.80318e-06 5.61e-05 8.66e-05 1.43e-05 
30 1 1.96044e-06 7.48e-05 5.36e-05 1.85e-05 
51 1 1.68707e-06 7.91155e-05 6.51673e-05 9.62448e-06 
53 1 1.60192e-06 6.64109e-05 8.17054e-05 3.04317e-06 
3 1 1.88705e-06 9.14e-05 8.74e-05 2.05e-05 
7 1 1.7927e-06 7.45e-05 6.84e-05 2.11e-05 
39 1 1.83463e-06 6.77e-05 5.23e-05 2.25e-05 
6 1 1.75076e-06 5.33e-05 7.05e-05 2.27e-05 
36 1 1.45722e-06 6.77e-05 5.25e-05 2.96e-05 
43 1 1.49916e-06 8.05e-05 5.49e-05 3.44e-05 
16 1 1.75076e-06 7.51e-05 7.57e-05 3.49e-05 
18 1 1.88705e-06 9.26e-05 5.41e-05 3.58e-05 
48 1 1.52012e-06 8.57e-05 8.85e-05 3.98e-05 
49 1 1.9185e-06 8.21e-05 9.03e-05 4.14e-05 
ITEM: TIMESTEP
900
ITEM: NUMBER OF ATOMS
57
ITEM: BOX BOUNDS ff ff ff
0.0000000000000000e+00 1.0000000000000000e-04
0.0000000000000000e+00 1.0000000000000000e-04
0.0000000000000000e+00 5.0000000000000002e-05
ITEM: ATOMS id type diameter x y z 
38 1 1.77167e-06 9.75e-06 2.4e-05 1.29e-05 
20 1 1.60294e-06 4.9e-05 4.33e-05 1.47e-05 
14 1 1.90877e-06 2.22e-05 3.33e-05 1.51e-05 
17 1 1.86659e-06 2.03e-05 4.66e-05 1.87e-05 
26 1 1.75058e-06 4.42e-05 3.66e-05 2.42e-05 
11 1 1.83495e-06 3.13e-05 1.12e-05 3.61e-05 
54 1 1.65309e-06 4.93255e-05 4.88741e-05 3.89921e-05 
13 1 1.84549e-06 4.01e-05 4.99e-06 4.04e-05 
2 1 1.52912e-06 3.61e-06 2.26e-05 4.44e-05 
45 1 1.9615e-06 1.25e-05 6.34e-05 3.2e-06 
33 1 1.78222e-06 1.26e-05 7.27e-05 8.7e-06 
23 1 1.64513e-06 4.46e-05 9.48e-05 8.63e-06 
8 1 1.74004e-06 1.74e-05 6.24e-05 1.42e-05 
40 1 1.58185e-06 1.18e-05 6.69e-05 1.97e-05 
47 1 1.61349e-06 3.09e-05 6.89e-05 2.1e-05 
27 1 1.66622e-06 1.9e-05 6.82e-05 3.74e-05 
46 1 1.78222e-06 2.85e-05 7.78e-05 3.79e-05 
50 1 1.92986e-06 1.95e-05 5.59e-05 4.75e-05 
5 1 1.66622e-06 6.08e-05 3.1e-05 6.54e-06 
44 1 1.75058e-06 9.01e-05 2.15e-05 1.14e-05 
15 1 1.92986e-06 5.96e-05 2.53e-05 1.15e-05 
19 1 1.63458e-06 6.78e-05 3.65e-05 1.12e-05 
9 1 1.92986e-06 9.17e-05 4.42e-05 1.49e-05 
41 1 1.63458e-06 8.3e-05 4.19e-05 1.65e-05 
10 1 1.55257e-06 6.5699e-05 4.9687e-05 2.2748e-05 
4 1 1.7084e-06 6.7e-05 3.25e-05 2.48e-05 
29 1 1.62209e-06 7.31347e-05 2.10108e-05 2.69076e-05 
12 1 1.8244e-06 7.22e-05 3.92e-05 2.79e-05 
37 1 1.62404e-06 9.71e-05 2.79e-05 3.26e-05 
28 1 1.72949e-06 9.66e-05 4.8e-05 3.81e-05 
42 1 1.5088e-06 5.84255e-05 3.57922e-05 3.83691e-05 
22 1 1.55022e-06 7.4e-05 3.83e-05 4.18e-05 
1 1 1.52912e-06 8.55e-05 1.09e-05 4.39e-05 
52 1 1.67947e-06 5.75264e-05 3.51747e-05 3.9491e-05 
55 1 1.57765e-06 6.67091e-05 4.89068e-05 2.18447e-05 
56 1 1.50387e-06 7.32605e-05 2.099e-05 2.53513e-05 
24 1 1.48511e-06 5.02263e-05 4.94928e-05 3.78681e-05 
25 1 1.92986e-06 7.95e-05 8.15e-05 2.33e-06 
21 1 1.58578e-06 6.53972e-05 8.24883e-05 3.94956e-06 
32 1 1.8244e-06 9.44e-05 8.75e-05 6.77e-06 
34 1 1.5246e-06 8.00364e-05 6.57997e-05 8.47549e-06 
31 1 1.77167e-06 9.47e-05 5.41e-05 1.35e-05 
35 1 1.81386e-06 5.61e-05 8.66e-05 1.43e-05 
30 1 1.62209e-06 7.47347e-05 5.36108e-05 1.93076e-05 
51 1 1.69706e-06 7.91155e-05 6.51673e-05 9.62448e-06 
53 1 1.6114e-06 6.64109e-05 8.17054e-05 3.04317e-06 
57 1 1.50387e-06 7.48605e-05 5.359e-05 1.77513e-05 
3 1 1.89822e-06 9.14e-05 8.74e-05 2.05e-05 
7 1 1.80331e-06 7.45e-05 6.84e-05 2.11e-05 
39 1 1.84549e-06 6.77e-05 5.23e-05 2.25e-05 
6 1 1.76113e-06 5.33e-05 7.05e-05 2.27e-05 
36 1 1.46585e-06 6.77e-05 5.25e-05 2.96e-05 
43 1 1.50803e-06 8.05e-05 5.49e-05 3.44e-05 
16 1 1.76113e-06 7.51e-05 7.57e-05 3.49e-05 
18 1 1.89822e-06 9.26e-05 5.41e-05 3.58e-05 
48 1 1.52912e-06 8.57e-05 8.85e-05 3.98e-05 
49 1 1.92986e-06 8.21e-05 9.03e-05 4.14e-05 
ITEM: TIMESTEP
1000
ITEM: NUMBER OF ATOMS
58
ITEM: BOX BOUNDS ff ff ff
0.0000000000000000e+00 1.0000000000000000e-04
0.0000000000000000e+00 1.0000000000000000e-04
0.0000000000000000e+00 5.0000000000000002e-05
ITEM: ATOMS id type diameter x y z 
38 1 1.78216e-06 9.75e-06 2.4e-05 1.29e-05 
20 1 1.61243e-06 4.9e-05 4.33e-05 1.47e-05 
14 1 1.92007e-06 2.22e-05 3.33e-05 1.51e-05 
17 1 1.87764e-06 2.03e-05 4.66e-05 1.87e-05 
26 1 1.76095e-06 4.42e-05 3.66e-05 2.42e-05 
11 1 1.84581e-06 3.13e-05 1.12e-05 3.61e-05 
54 1 1.66288e-06 4.93197e-05 4.88702e-05 3.89992e-05 
13 1 1.85642e-06 4.01e-05 4.99e-06 4.04e-05 
2 1 1.53818e-06 3.61e-06 2.26e-05 4.44e-05 
45 1 1.47801e-06 1.29243e-05 6.36914e-05 2.67064e-06 
58 1 1.64519e-06 1.20277e-05 6.30757e-05 3.78924e-06 
33 1 1.79277e-06 1.26e-05 7.27e-05 8.7e-06 
23 1 1.65487e-06 4.46e-05 9.48e-05 8.63e-06 
8 1 1.75034e-06 1.74e-05 6.24e-05 1.42e-05 
40 1 1.59122e-06 1.18e-05 6.69e-05 1.97e-05 
47 1 1.62304e-06 3.09e-05 6.89e-05 2.1e-05 
27 1 1.67608e-06 1.9e-05 6.82e-05 3.74e-05 
46 1 1.79277e-06 2.85e-05 7.78e-05 3.79e-05 
50 1 1.94129e-06 1.95e-05 5.59e-05 4.75e-05 
5 1 1.67608e-06 6.08e-05 3.1e-05 6.54e-06 
44 1 1.76095e-06 9.01e-05 2.15e-05 1.14e-05 
15 1 1.94129e-06 5.96e-05 2.53e-05 1.15e-05 
19 1 1.64426e-06 6.78e-05 3.65e-05 1.12e-05 
9 1 1.94129e-06 9.17e-05 4.42e-05 1.49e-05 
41 1 1.64426e-06 8.3e-05 4.19e-05 1.65e-05 
55 1 1.587e-06 6.67091e-05 4.89068e-05 2.18447e-05 
10 1 1.56176e-06 6.5699e-05 4.9687e-05 2.2748e-05 
4 1 1.71852e-06 6.7e-05 3.25e-05 2.48e-05 
56 1 1.51277e-06 7.32605e-05 2.099e-05 2.53513e-05 
29 1 1.63169e-06 7.31347e-05 2.10108e-05 2.69076e-05 
12 1 1.83521e-06 7.22e-05 3.92e-05 2.79e-05 
37 1 1.63365e-06 9.71e-05 2.79e-05 3.26e-05 
24 1 1.4939e-06 5.02321e-05 4.94967e-05 3.78609e-05 
42 1 1.51774e-06 5.8437e-05 3.58001e-05 3.83548e-05 
28 1 1.73973e-06 9.66e-05 4.8e-05 3.81e-05 
52 1 1.68941e-06 5.75149e-05 3.51668e-05 3.95053e-05 
22 1 1.55939e-06 7.4e-05 3.83e-05 4.18e-05 
1 1 1.53818e-06 8.55e-05 1.09e-05 4.39e-05 
25 1 1.94129e-06 7.95e-05 8.15e-05 2.33e-06 
53 1 1.62094e-06 6.64238e-05 8.16954e-05 3.03162e-06 
21 1 1.59517e-06 6.53843e-05 8.24983e-05 3.96112e-06 
32 1 1.83521e-06 9.44e-05 8.75e-05 6.77e-06 
34 1 1.53363e-06 8.00364e-05 6.57997e-05 8.47549e-06 
51 1 1.7071e-06 7.91155e-05 6.51673e-05 9.62448e-06 
31 1 1.78216e-06 9.47e-05 5.41e-05 1.35e-05 
35 1 1.8246e-06 5.61e-05 8.66e-05 1.43e-05 
57 1 1.51277e-06 7.48605e-05 5.359e-05 1.77513e-05 
30 1 1.63169e-06 7.47347e-05 5.36108e-05 1.93076e-05 
3 1 1.90946e-06 9.14e-05 8.74e-05 2.05e-05 
7 1 1.81399e-06 7.45e-05 6.84e-05 2.11e-05 
39 1 1.85642e-06 6.77e-05 5.23e-05 2.25e-05 
6 1 1.77156e-06 5.33e-05 7.05e-05 2.27e-05 
36 1 1.47453e-06 6.77e-05 5.25e-05 2.96e-05 
43 1 1.51696e-06 8.05e-05 5.49e-05 3.44e-05 
16 1 1.77156e-06 7.51e-05 7.57e-05 3.49e-05 
18 1 1.90946e-06 9.26e-05 5.41e-05 3.58e-05 
48 1 1.53818e-06 8.57e-05 8.85e-05 3.98e-05 
49 1 1.94129e-06 8.21e-05 9.03e-05 4.14e-05 
ITEM: TIMESTEP
1100
ITEM: NUMBER OF ATOMS
58
ITEM: BOX BOUNDS ff ff ff
0.0000000000000000e+00 1.0000000000000000e-04
0.0000000000000000e+00 1.0000000000000000e-04
0.0000000000000000e+00 5.0000000000000002e-05
ITEM: ATOMS id type diameter x y z 
38 1 1.79272e-06 9.75e-06 2.4e-05 1.29e-05 
20 1 1.62198e-06 4.9e-05 4.33e-05 1.47e-05 
14 1 1.93144e-06 2.22e-05 3.33e-05 1.51e-05 
17 1 1.88876e-06 2.03e-05 4.66e-05 1.87e-05 
26 1 1.77138e-06 4.42e-05 3.66e-05 2.42e-05 
11 1 1.85674e-06 3.13e-05 1.12e-05 3.61e-05 
54 1 1.67273e-06 4.93197e-05 4.88702e-05 3.89992e-05 
13 1 1.86741e-06 4.01e-05 4.99e-06 4.04e-05 
2 1 1.54729e-06 3.61e-06 2.26e-05 4.44e-05 
45 1 1.48676e-06 1.29243e-05 6.36914e-05 2.67064e-06 
58 1 1.65493e-06 1.20277e-05 6.30757e-05 3.78924e-06 
33 1 1.80339e-06 1.26e-05 7.27e-05 8.7e-06 
23 1 1.66467e-06 4.46e-05 9.48e-05 8.63e-06 
8 1 1.7607e-06 1.74e-05 6.24e-05 1.42e-05 
40 1 1.60064e-06 1.18e-05 6.69e-05 1.97e-05 
47 1 1.63265e-06 3.09e-05 6.89e-05 2.1e-05 
27 1 1.68601e-06 1.9e-05 6.82e-05 3.74e-05 
46 1 1.80339e-06 2.85e-05 7.78e-05 3.79e-05 
50 1 1.95278e-06 1.95e-05 5.59e-05 4.75e-05 
5 1 1.68601e-06 6.08e-05 3.1e-05 6.54e-06 
44 1 1.77138e-06 9.01e-05 2.15e-05 1.14e-05 
15 1 1.95278e-06 5.96e-05 2.53e-05 1.15e-05 
19 1 1.65399e-06 6.78e-05 3.65e-05 1.12e-05 
9 1 1.95278e-06 9.17e-05 4.42e-05 1.49e-05 
41 1 1.65399e-06 8.3e-05 4.19e-05 1.65e-05 