ITEM: TIMESTEP
0
ITEM: NUMBER OF ATOMS
50
ITEM: BOX BOUNDS ff ff ff
0.0000000000000000e+00 1.0000000000000000e-04
0.0000000000000000e+00 1.0000000000000000e-04
0.0000000000000000e+00 5.0000000000000002e-05
ITEM: ATOMS id type diameter x y z 
36 1 1.76e-06 2.5e-05 1.44e-05 6.29e-06 
40 1 1.54e-06 2.64e-05 4.92e-05 7.46e-06 
9 1 1.82e-06 6.23e-06 2.79e-05 7.76e-06 
31 1 1.47e-06 8.65e-06 3.12e-05 9.21e-06 
14 1 1.9e-06 9.62e-06 1.11e-05 1.39e-05 
48 1 1.48e-06 3.05e-05 1.44e-05 1.55e-05 
47 1 1.93e-06 2.28e-05 1.04e-05 2.13e-05 
6 1 1.87e-06 3.61e-05 4.37e-05 2.17e-05 
41 1 1.42e-06 3.68e-05 2.1e-05 2.95e-05 
20 1 1.86e-06 2.95e-05 2.46e-05 3.13e-05 
16 1 1.57e-06 3.04e-05 4.63e-05 3.27e-05 
18 1 1.39e-06 1.56e-05 4.45e-05 3.51e-05 
10 1 1.53e-06 3e-05 1.7e-05 3.83e-05 
1 1 1.69e-06 3.25e-05 3.11e-06 3.87e-05 
23 1 1.6e-06 3.27e-05 2.58e-05 4.14e-05 
33 1 1.59e-06 3.23e-05 4.43e-05 4.19e-05 
50 1 1.73e-06 2.09e-06 8.82e-05 2.74e-06 
24 1 1.87e-06 4.15e-05 9e-05 6.17e-06 
26 1 1.63e-06 3.56e-05 6.81e-05 8.01e-06 
7 1 1.78e-06 3.43e-05 6.84e-05 1.03e-05 
44 1 1.61e-06 1e-05 6.66e-05 1.29e-05 
39 1 1.83e-06 7e-06 5.92e-05 2.16e-05 
43 1 1.92e-06 4.61e-05 8.49e-05 2.73e-05 
13 1 1.72e-06 4.13e-06 5.63e-05 2.99e-05 
11 1 1.42e-06 2.77e-05 9.26e-05 3.06e-05 
12 1 1.92e-06 4.83e-05 6.98e-05 3.45e-05 
28 1 1.75e-06 7.91e-06 9.62e-05 4.15e-05 
49 1 1.48e-06 5.91e-06 7.74e-05 4.51e-05 
34 1 1.6e-06 1.43e-05 5.3e-05 4.82e-05 
5 1 1.41e-06 7.08e-05 3.91e-05 6.27e-06 
30 1 1.63e-06 9.74e-05 3.93e-05 6.49e-06 
21 1 1.92e-06 7.3e-05 4.74e-05 1.03e-05 
15 1 1.75e-06 9.17e-05 4.36e-05 1.66e-05 
19 1 1.46e-06 6.16e-05 2.76e-05 1.86e-05 
37 1 1.56e-06 5.26e-05 4.78e-05 2.15e-05 
27 1 1.67e-06 6.82e-05 8.63e-06 2.96e-05 
29 1 1.85e-06 6.36e-05 3.56e-05 3.09e-05 
8 1 1.56e-06 6.07e-05 2.57e-05 3.65e-05 
2 1 1.83e-06 6.15e-05 1.21e-05 3.89e-05 
22 1 1.75e-06 5.03e-05 4.14e-05 3.86e-05 
42 1 1.92e-06 5.47e-05 3.19e-05 4.4e-05 
32 1 1.65e-06 9.49e-05 3.59e-05 4.43e-05 
35 1 1.88e-06 6.67e-05 5.92e-05 2.91e-06 
3 1 1.5e-06 7.01e-05 6.25e-05 1.17e-05 
4 1 1.84e-06 7.22e-05 8e-05 1.67e-05 
38 1 1.67e-06 6.64e-05 7.08e-05 2.33e-05 
46 1 1.71e-06 8.27e-05 6.6e-05 2.97e-05 
17 1 1.43e-06 6.18e-05 5.3e-05 3.44e-05 
25 1 1.88e-06 9.69e-05 6.85e-05 4.13e-05 
45 1 1.72e-06 9.18e-05 6.71e-05 4.34e-05 
ITEM: TIMESTEP
100
ITEM: NUMBER OF ATOMS
50
ITEM: BOX BOUNDS ff ff ff
0.0000000000000000e+00 1.0000000000000000e-04
0.0000000000000000e+00 1.0000000000000000e-04
0.0000000000000000e+00 5.0000000000000002e-05
ITEM: ATOMS id type diameter x y z 
36 1 1.76948e-06 2.5e-05 1.44e-05 6.29e-06 
40 1 1.54829e-06 2.64e-05 4.92e-05 7.46e-06 
9 1 1.8298e-06 6.23e-06 2.79e-05 7.76e-06 
31 1 1.47792e-06 8.65e-06 3.12e-05 9.21e-06 
14 1 1.91023e-06 9.62e-06 1.11e-05 1.39e-05 
48 1 1.48797e-06 3.05e-05 1.44e-05 1.55e-05 
47 1 1.94039e-06 2.28e-05 1.04e-05 2.13e-05 
6 1 1.88007e-06 3.61e-05 4.37e-05 2.17e-05 
41 1 1.42765e-06 3.68e-05 2.1e-05 2.95e-05 
20 1 1.87002e-06 2.95e-05 2.46e-05 3.13e-05 
16 1 1.57846e-06 3.04e-05 4.63e-05 3.27e-05 
18 1 1.39749e-06 1.56e-05 4.45e-05 3.51e-05 
10 1 1.53824e-06 3e-05 1.7e-05 3.83e-05 
1 1 1.6991e-06 3.25e-05 3.11e-06 3.87e-05 
23 1 1.60862e-06 3.27e-05 2.58e-05 4.14e-05 
33 1 1.59856e-06 3.23e-05 4.43e-05 4.19e-05 
50 1 1.73932e-06 2.09e-06 8.82e-05 2.74e-06 
24 1 1.88007e-06 4.15e-05 9e-05 6.17e-06 
26 1 1.63878e-06 3.56e-05 6.81e-05 8.01e-06 
7 1 1.78959e-06 3.43e-05 6.84e-05 1.03e-05 
44 1 1.61867e-06 1e-05 6.66e-05 1.29e-05 
39 1 1.83986e-06 7e-06 5.92e-05 2.16e-05 
43 1 1.93034e-06 4.61e-05 8.49e-05 2.73e-05 
13 1 1.72926e-06 4.13e-06 5.63e-05 2.99e-05 
11 1 1.42765e-06 2.77e-05 9.26e-05 3.06e-05 
12 1 1.93034e-06 4.83e-05 6.98e-05 3.45e-05 
28 1 1.75942e-06 7.91e-06 9.62e-05 4.15e-05 
49 1 1.48797e-06 5.91e-06 7.74e-05 4.51e-05 
34 1 1.60862e-06 1.43e-05 5.3e-05 4.82e-05 
5 1 1.41759e-06 7.08e-05 3.91e-05 6.27e-06 
30 1 1.63878e-06 9.74e-05 3.93e-05 6.49e-06 
21 1 1.93034e-06 7.3e-05 4.74e-05 1.03e-05 
15 1 1.75942e-06 9.17e-05 4.36e-05 1.66e-05 
19 1 1.46786e-06 6.16e-05 2.76e-05 1.86e-05 
37 1 1.5684e-06 5.26e-05 4.78e-05 2.15e-05 
27 1 1.67899e-06 6.82e-05 8.63e-06 2.96e-05 
29 1 1.85996e-06 6.36e-05 3.56e-05 3.09e-05 
8 1 1.5684e-06 6.07e-05 2.57e-05 3.65e-05 
2 1 1.83986e-06 6.15e-05 1.21e-05 3.89e-05 
22 1 1.75942e-06 5.03e-05 4.14e-05 3.86e-05 
42 1 1.93034e-06 5.47e-05 3.19e-05 4.4e-05 
32 1 1.65889e-06 9.49e-05 3.59e-05 4.43e-05 
35 1 1.89012e-06 6.67e-05 5.92e-05 2.91e-06 
3 1 1.50808e-06 7.01e-05 6.25e-05 1.17e-05 
4 1 1.84991e-06 7.22e-05 8e-05 1.67e-05 
38 1 1.67899e-06 6.64e-05 7.08e-05 2.33e-05 
46 1 1.71921e-06 8.27e-05 6.6e-05 2.97e-05 
17 1 1.4377e-06 6.18e-05 5.3e-05 3.44e-05 
25 1 1.89012e-06 9.69e-05 6.85e-05 4.13e-05 
45 1 1.72926e-06 9.18e-05 6.71e-05 4.34e-05 
ITEM: TIMESTEP
200
ITEM: NUMBER OF ATOMS
50
ITEM: BOX BOUNDS ff ff ff
0.0000000000000000e+00 1.0000000000000000e-04
0.0000000000000000e+00 1.0000000000000000e-04
0.0000000000000000e+00 5.0000000000000002e-05
ITEM: ATOMS id type diameter x y z 
36 1 1.77901e-06 2.5e-05 1.44e-05 6.29e-06 
40 1 1.55663e-06 2.64e-05 4.92e-05 7.46e-06 
9 1 1.83966e-06 6.23e-06 2.79e-05 7.76e-06 
31 1 1.48588e-06 8.65e-06 3.12e-05 9.21e-06 
14 1 1.92052e-06 9.62e-06 1.11e-05 1.39e-05 
48 1 1.49598e-06 3.05e-05 1.44e-05 1.55e-05 
47 1 1.95084e-06 2.28e-05 1.04e-05 2.13e-05 
6 1 1.8902e-06 3.61e-05 4.37e-05 2.17e-05 
41 1 1.43534e-06 3.68e-05 2.1e-05 2.95e-05 
20 1 1.88009e-06 2.95e-05 2.46e-05 3.13e-05 
16 1 1.58696e-06 3.04e-05 4.63e-05 3.27e-05 
18 1 1.40501e-06 1.56e-05 4.45e-05 3.51e-05 
10 1 1.54652e-06 3e-05 1.7e-05 3.83e-05 
1 1 1.70825e-06 3.25e-05 3.11e-06 3.87e-05 
23 1 1.61728e-06 3.27e-05 2.58e-05 4.14e-05 
33 1 1.60717e-06 3.23e-05 4.43e-05 4.19e-05 
50 1 1.74868e-06 2.09e-06 8.82e-05 2.74e-06 
24 1 1.8902e-06 4.15e-05 9e-05 6.17e-06 
26 1 1.6476e-06 3.56e-05 6.81e-05 8.01e-06 
7 1 1.79922e-06 3.43e-05 6.84e-05 1.03e-05 
44 1 1.62739e-06 1e-05 6.66e-05 1.29e-05 
39 1 1.84976e-06 7e-06 5.92e-05 2.16e-05 
43 1 1.94074e-06 4.61e-05 8.49e-05 2.73e-05 
13 1 1.73858e-06 4.13e-06 5.63e-05 2.99e-05 
11 1 1.43534e-06 2.77e-05 9.26e-05 3.06e-05 
12 1 1.94074e-06 4.83e-05 6.98e-05 3.45e-05 
28 1 1.7689e-06 7.91e-06 9.62e-05 4.15e-05 
49 1 1.49598e-06 5.91e-06 7.74e-05 4.51e-05 
34 1 1.61728e-06 1.43e-05 5.3e-05 4.82e-05 
5 1 1.42523e-06 7.08e-05 3.91e-05 6.27e-06 
30 1 1.6476e-06 9.74e-05 3.93e-05 6.49e-06 
21 1 1.94074e-06 7.3e-05 4.74e-05 1.03e-05 
15 1 1.7689e-06 9.17e-05 4.36e-05 1.66e-05 
19 1 1.47577e-06 6.16e-05 2.76e-05 1.86e-05 
37 1 1.57685e-06 5.26e-05 4.78e-05 2.15e-05 
27 1 1.68804e-06 6.82e-05 8.63e-06 2.96e-05 
29 1 1.86998e-06 6.36e-05 3.56e-05 3.09e-05 
8 1 1.57685e-06 6.07e-05 2.57e-05 3.65e-05 
2 1 1.84976e-06 6.15e-05 1.21e-05 3.89e-05 
22 1 1.7689e-06 5.03e-05 4.14e-05 3.86e-05 
42 1 1.94074e-06 5.47e-05 3.19e-05 4.4e-05 
32 1 1.66782e-06 9.49e-05 3.59e-05 4.43e-05 
35 1 1.9003e-06 6.67e-05 5.92e-05 2.91e-06 
3 1 1.5162e-06 7.01e-05 6.25e-05 1.17e-05 
4 1 1.85987e-06 7.22e-05 8e-05 1.67e-05 
38 1 1.68804e-06 6.64e-05 7.08e-05 2.33e-05 
46 1 1.72847e-06 8.27e-05 6.6e-05 2.97e-05 
17 1 1.44544e-06 6.18e-05 5.3e-05 3.44e-05 
25 1 1.9003e-06 9.69e-05 6.85e-05 4.13e-05 
45 1 1.73858e-06 9.18e-05 6.71e-05 4.34e-05 
ITEM: TIMESTEP
300
ITEM: NUMBER OF ATOMS
50
ITEM: BOX BOUNDS ff ff ff
0.0000000000000000e+00 1.0000000000000000e-04
0.0000000000000000e+00 1.0000000000000000e-04
0.0000000000000000e+00 5.0000000000000002e-05
ITEM: ATOMS id type diameter x y z 
36 1 1.78859e-06 2.5e-05 1.44e-05 6.29e-06 
40 1 1.56502e-06 2.64e-05 4.92e-05 7.46e-06 
9 1 1.84956e-06 6.23e-06 2.79e-05 7.76e-06 
31 1 1.49388e-06 8.65e-06 3.12e-05 9.21e-06 
14 1 1.93086e-06 9.62e-06 1.11e-05 1.39e-05 
48 1 1.50404e-06 3.05e-05 1.44e-05 1.55e-05 
47 1 1.96135e-06 2.28e-05 1.04e-05 2.13e-05 
6 1 1.90038e-06 3.61e-05 4.37e-05 2.17e-05 
41 1 1.44307e-06 3.68e-05 2.1e-05 2.95e-05 
20 1 1.89021e-06 2.95e-05 2.46e-05 3.13e-05 
16 1 1.5955e-06 3.04e-05 4.63e-05 3.27e-05 
18 1 1.41258e-06 1.56e-05 4.45e-05 3.51e-05 
10 1 1.55485e-06 3e-05 1.7e-05 3.83e-05 
1 1 1.71745e-06 3.25e-05 3.11e-06 3.87e-05 
23 1 1.62599e-06 3.27e-05 2.58e-05 4.14e-05 
33 1 1.61583e-06 3.23e-05 4.43e-05 4.19e-05 
50 1 1.7581e-06 2.09e-06 8.82e-05 2.74e-06 
24 1 1.90038e-06 4.15e-05 9e-05 6.17e-06 
26 1 1.65648e-06 3.56e-05 6.81e-05 8.01e-06 
7 1 1.80891e-06 3.43e-05 6.84e-05 1.03e-05 
44 1 1.63615e-06 1e-05 6.66e-05 1.29e-05 
39 1 1.85973e-06 7e-06 5.92e-05 2.16e-05 
43 1 1.95119e-06 4.61e-05 8.49e-05 2.73e-05 
13 1 1.74794e-06 4.13e-06 5.63e-05 2.99e-05 
11 1 1.44307e-06 2.77e-05 9.26e-05 3.06e-05 
12 1 1.95119e-06 4.83e-05 6.98e-05 3.45e-05 
28 1 1.77843e-06 7.91e-06 9.62e-05 4.15e-05 
49 1 1.50404e-06 5.91e-06 7.74e-05 4.51e-05 
34 1 1.62599e-06 1.43e-05 5.3e-05 4.82e-05 
5 1 1.4329e-06 7.08e-05 3.91e-05 6.27e-06 
30 1 1.65648e-06 9.74e-05 3.93e-05 6.49e-06 
21 1 1.95119e-06 7.3e-05 4.74e-05 1.03e-05 
15 1 1.77843e-06 9.17e-05 4.36e-05 1.66e-05 
19 1 1.48372e-06 6.16e-05 2.76e-05 1.86e-05 
37 1 1.58534e-06 5.26e-05 4.78e-05 2.15e-05 
27 1 1.69713e-06 6.82e-05 8.63e-06 2.96e-05 
29 1 1.88005e-06 6.36e-05 3.56e-05 3.09e-05 
8 1 1.58534e-06 6.07e-05 2.57e-05 3.65e-05 
2 1 1.85973e-06 6.15e-05 1.21e-05 3.89e-05 
22 1 1.77843e-06 5.03e-05 4.14e-05 3.86e-05 
42 1 1.95119e-06 5.47e-05 3.19e-05 4.4e-05 
32 1 1.6768e-06 9.49e-05 3.59e-05 4.43e-05 
35 1 1.91054e-06 6.67e-05 5.92e-05 2.91e-06 
3 1 1.52437e-06 7.01e-05 6.25e-05 1.17e-05 
4 1 1.86989e-06 7.22e-05 8e-05 1.67e-05 
38 1 1.69713e-06 6.64e-05 7.08e-05 2.33e-05 
46 1 1.73778e-06 8.27e-05 6.6e-05 2.97e-05 
17 1 1.45323e-06 6.18e-05 5.3e-05 3.44e-05 
25 1 1.91054e-06 9.69e-05 6.85e-05 4.13e-05 
45 1 1.74794e-06 9.18e-05 6.71e-05 4.34e-05 
ITEM: TIMESTEP
400
ITEM: NUMBER OF ATOMS
51
ITEM: BOX BOUNDS ff ff ff
0.0000000000000000e+00 1.0000000000000000e-04
0.0000000000000000e+00 1.0000000000000000e-04
0.0000000000000000e+00 5.0000000000000002e-05
ITEM: ATOMS id type diameter x y z 
36 1 1.79822e-06 2.5e-05 1.44e-05 6.29e-06 
40 1 1.57344e-06 2.64e-05 4.92e-05 7.46e-06 
9 1 1.85952e-06 6.23e-06 2.79e-05 7.76e-06 
31 1 1.50192e-06 8.65e-06 3.12e-05 9.21e-06 
14 1 1.94126e-06 9.62e-06 1.11e-05 1.39e-05 
48 1 1.51214e-06 3.05e-05 1.44e-05 1.55e-05 
47 1 1.54761e-06 2.25406e-05 9.93311e-06 2.07405e-05 
6 1 1.91061e-06 3.61e-05 4.37e-05 2.17e-05 
41 1 1.45084e-06 3.68e-05 2.1e-05 2.95e-05 
20 1 1.90039e-06 2.95e-05 2.46e-05 3.13e-05 
16 1 1.6041e-06 3.04e-05 4.63e-05 3.27e-05 
18 1 1.42019e-06 1.56e-05 4.45e-05 3.51e-05 
10 1 1.56323e-06 3e-05 1.7e-05 3.83e-05 
1 1 1.7267e-06 3.25e-05 3.11e-06 3.87e-05 
23 1 1.63475e-06 3.27e-05 2.58e-05 4.14e-05 
33 1 1.62453e-06 3.23e-05 4.43e-05 4.19e-05 
51 1 1.58223e-06 2.30652e-05 1.08773e-05 2.1872e-05 
50 1 1.76757e-06 2.09e-06 8.82e-05 2.74e-06 
24 1 1.91061e-06 4.15e-05 9e-05 6.17e-06 
26 1 1.6654e-06 3.56e-05 6.81e-05 8.01e-06 
7 1 1.81866e-06 3.43e-05 6.84e-05 1.03e-05 
44 1 1.64496e-06 1e-05 6.66e-05 1.29e-05 
39 1 1.86974e-06 7e-06 5.92e-05 2.16e-05 
43 1 1.9617e-06 4.61e-05 8.49e-05 2.73e-05 
13 1 1.75735e-06 4.13e-06 5.63e-05 2.99e-05 
11 1 1.45084e-06 2.77e-05 9.26e-05 3.06e-05 
12 1 1.9617e-06 4.83e-05 6.98e-05 3.45e-05 
28 1 1.788e-06 7.91e-06 9.62e-05 4.15e-05 
49 1 1.51214e-06 5.91e-06 7.74e-05 4.51e-05 
34 1 1.63475e-06 1.43e-05 5.3e-05 4.82e-05 
5 1 1.44062e-06 7.08e-05 3.91e-05 6.27e-06 
30 1 1.6654e-06 9.74e-05 3.93e-05 6.49e-06 
21 1 1.9617e-06 7.3e-05 4.74e-05 1.03e-05 
15 1 1.788e-06 9.17e-05 4.36e-05 1.66e-05 
19 1 1.49171e-06 6.16e-05 2.76e-05 1.86e-05 
37 1 1.59388e-06 5.26e-05 4.78e-05 2.15e-05 
27 1 1.70627e-06 6.82e-05 8.63e-06 2.96e-05 
29 1 1.89018e-06 6.36e-05 3.56e-05 3.09e-05 
8 1 1.59388e-06 6.07e-05 2.57e-05 3.65e-05 
2 1 1.86974e-06 6.15e-05 1.21e-05 3.89e-05 
22 1 1.788e-06 5.03e-05 4.14e-05 3.86e-05 
42 1 1.9617e-06 5.47e-05 3.19e-05 4.4e-05 
32 1 1.68583e-06 9.49e-05 3.59e-05 4.43e-05 
35 1 1.92083e-06 6.67e-05 5.92e-05 2.91e-06 
3 1 1.53258e-06 7.01e-05 6.25e-05 1.17e-05 
4 1 1.87996e-06 7.22e-05 8e-05 1.67e-05 
38 1 1.70627e-06 6.64e-05 7.08e-05 2.33e-05 
46 1 1.74714e-06 8.27e-05 6.6e-05 2.97e-05 
17 1 1.46106e-06 6.18e-05 5.3e-05 3.44e-05 
25 1 1.92083e-06 9.69e-05 6.85e-05 4.13e-05 
45 1 1.75735e-06 9.18e-05 6.71e-05 4.34e-05 
ITEM: TIMESTEP
500
ITEM: NUMBER OF ATOMS
55
ITEM: BOX BOUNDS ff ff ff
0.0000000000000000e+00 1.0000000000000000e-04
0.0000000000000000e+00 1.0000000000000000e-04
0.0000000000000000e+00 5.0000000000000002e-05
ITEM: ATOMS id type diameter x y z 
36 1 1.80791e-06 2.5e-05 1.44e-05 6.29e-06 
40 1 1.58192e-06 2.64e-05 4.92e-05 7.46e-06 
9 1 1.86954e-06 6.23e-06 2.79e-05 7.76e-06 
31 1 1.51001e-06 8.65e-06 3.12e-05 9.21e-06 
14 1 1.95172e-06 9.62e-06 1.11e-05 1.39e-05 
48 1 1.52028e-06 3.05e-05 1.44e-05 1.55e-05 
47 1 1.55594e-06 2.25406e-05 9.93311e-06 2.07405e-05 
6 1 1.9209e-06 3.61e-05 4.37e-05 2.17e-05 
41 1 1.45865e-06 3.68e-05 2.1e-05 2.95e-05 
20 1 1.91063e-06 2.95e-05 2.46e-05 3.13e-05 
16 1 1.61273e-06 3.04e-05 4.63e-05 3.27e-05 
18 1 1.42784e-06 1.56e-05 4.45e-05 3.51e-05 
10 1 1.57165e-06 3e-05 1.7e-05 3.83e-05 
1 1 1.736e-06 3.25e-05 3.11e-06 3.87e-05 
23 1 1.64355e-06 3.27e-05 2.58e-05 4.14e-05 
33 1 1.63328e-06 3.23e-05 4.43e-05 4.19e-05 
51 1 1.59075e-06 2.30652e-05 1.08773e-05 2.1872e-05 
50 1 1.77709e-06 2.09e-06 8.82e-05 2.74e-06 
24 1 1.9209e-06 4.15e-05 9e-05 6.17e-06 
26 1 1.67437e-06 3.56e-05 6.81e-05 8.01e-06 
7 1 1.82845e-06 3.43e-05 6.84e-05 1.03e-05 
44 1 1.65382e-06 1e-05 6.66e-05 1.29e-05 
39 1 1.87981e-06 7e-06 5.92e-05 2.16e-05 
43 1 1.54788e-06 4.58406e-05 8.4433e-05 2.67404e-05 
13 1 1.76682e-06 4.13e-06 5.63e-05 2.99e-05 
11 1 1.45865e-06 2.77e-05 9.26e-05 3.06e-05 
12 1 1.55291e-06 4.84994e-05 6.98512e-05 3.37516e-05 
28 1 1.79763e-06 7.91e-06 9.62e-05 4.15e-05 
49 1 1.52028e-06 5.91e-06 7.74e-05 4.51e-05 
34 1 1.64355e-06 1.43e-05 5.3e-05 4.82e-05 
52 1 1.58251e-06 4.63652e-05 8.53774e-05 2.78721e-05 
53 1 1.57766e-06 4.80975e-05 6.9748e-05 3.52603e-05 
5 1 1.44838e-06 7.08e-05 3.91e-05 6.27e-06 
30 1 1.67437e-06 9.74e-05 3.93e-05 6.49e-06 
21 1 1.54788e-06 7.27406e-05 4.6933e-05 9.7404e-06 
15 1 1.79763e-06 9.17e-05 4.36e-05 1.66e-05 
19 1 1.49974e-06 6.16e-05 2.76e-05 1.86e-05 
54 1 1.58251e-06 7.32652e-05 4.78774e-05 1.08721e-05 
37 1 1.60246e-06 5.26e-05 4.78e-05 2.15e-05 
27 1 1.71546e-06 6.82e-05 8.63e-06 2.96e-05 
29 1 1.90036e-06 6.36e-05 3.56e-05 3.09e-05 
8 1 1.60246e-06 6.07e-05 2.57e-05 3.65e-05 
2 1 1.87981e-06 6.15e-05 1.21e-05 3.89e-05 
22 1 1.79763e-06 5.03e-05 4.14e-05 3.86e-05 
42 1 1.54788e-06 5.44406e-05 3.1433e-05 4.34404e-05 
32 1 1.69491e-06 9.49e-05 3.59e-05 4.43e-05 
55 1 1.58251e-06 5.49652e-05 3.23774e-05 4.45721e-05 
35 1 1.93117e-06 6.67e-05 5.92e-05 2.91e-06 
3 1 1.54083e-06 7.01e-05 6.25e-05 1.17e-05 
4 1 1.89008e-06 7.22e-05 8e-05 1.67e-05 
38 1 1.71546e-06 6.64e-05 7.08e-05 2.33e-05 
46 1 1.75655e-06 8.27e-05 6.6e-05 2.97e-05 
17 1 1.46892e-06 6.18e-05 5.3e-05 3.44e-05 
25 1 1.93117e-06 9.69e-05 6.85e-05 4.13e-05 
45 1 1.76682e-06 9.18e-05 6.71e-05 4.34e-05 
ITEM: TIMESTEP
600
ITEM: NUMBER OF ATOMS
55
ITEM: BOX BOUNDS ff ff ff
0.0000000000000000e+00 1.0000000000000000e-04
0.0000000000000000e+00 1.0000000000000000e-04
0.0000000000000000e+00 5.0000000000000002e-05
ITEM: ATOMS id type diameter x y z 
36 1 1.81764e-06 2.5e-05 1.44e-05 6.29e-06 
40 1 1.59044e-06 2.64e-05 4.92e-05 7.46e-06 
9 1 1.87961e-06 6.23e-06 2.79e-05 7.76e-06 
31 1 1.51814e-06 8.65e-06 3.12e-05 9.21e-06 
14 1 1.96223e-06 9.62e-06 1.11e-05 1.39e-05 
48 1 1.52847e-06 3.05e-05 1.44e-05 1.55e-05 
47 1 1.56432e-06 2.25406e-05 9.93311e-06 2.07405e-05 
6 1 1.93125e-06 3.61e-05 4.37e-05 2.17e-05 
41 1 1.46651e-06 3.68e-05 2.1e-05 2.95e-05 
20 1 1.92092e-06 2.95e-05 2.46e-05 3.13e-05 
16 1 1.62142e-06 3.04e-05 4.63e-05 3.27e-05 
18 1 1.43552e-06 1.56e-05 4.45e-05 3.51e-05 
10 1 1.58011e-06 3e-05 1.7e-05 3.83e-05 
1 1 1.74535e-06 3.25e-05 3.11e-06 3.87e-05 
23 1 1.6524e-06 3.27e-05 2.58e-05 4.14e-05 
33 1 1.64208e-06 3.23e-05 4.43e-05 4.19e-05 
51 1 1.59932e-06 2.30652e-05 1.08773e-05 2.1872e-05 
50 1 1.78666e-06 2.09e-06 8.82e-05 2.74e-06 
24 1 1.93125e-06 4.15e-05 9e-05 6.17e-06 
26 1 1.68339e-06 3.56e-05 6.81e-05 8.01e-06 
7 1 1.8383e-06 3.43e-05 6.84e-05 1.03e-05 
44 1 1.66273e-06 1e-05 6.66e-05 1.29e-05 
39 1 1.88994e-06 7e-06 5.92e-05 2.16e-05 
43 1 1.55622e-06 4.58406e-05 8.4433e-05 2.67404e-05 
13 1 1.77633e-06 4.13e-06 5.63e-05 2.99e-05 
11 1 1.46651e-06 2.77e-05 9.26e-05 3.06e-05 
12 1 1.56127e-06 4.84994e-05 6.98512e-05 3.37516e-05 
28 1 1.80732e-06 7.91e-06 9.62e-05 4.15e-05 
49 1 1.52847e-06 5.91e-06 7.74e-05 4.51e-05 
34 1 1.6524e-06 1.43e-05 5.3e-05 4.82e-05 
52 1 1.59103e-06 4.63652e-05 8.53774e-05 2.78721e-05 
53 1 1.58616e-06 4.80975e-05 6.9748e-05 3.52603e-05 
5 1 1.45618e-06 7.08e-05 3.91e-05 6.27e-06 
30 1 1.68339e-06 9.74e-05 3.93e-05 6.49e-06 
21 1 1.55622e-06 7.27406e-05 4.6933e-05 9.7404e-06 
15 1 1.80732e-06 9.17e-05 4.36e-05 1.66e-05 
19 1 1.50782e-06 6.16e-05 2.76e-05 1.86e-05 
54 1 1.59103e-06 7.32652e-05 4.78774e-05 1.08721e-05 
37 1 1.61109e-06 5.26e-05 4.78e-05 2.15e-05 
27 1 1.7247e-06 6.82e-05 8.63e-06 2.96e-05 
29 1 1.91059e-06 6.36e-05 3.56e-05 3.09e-05 
8 1 1.61109e-06 6.07e-05 2.57e-05 3.65e-05 
2 1 1.88994e-06 6.15e-05 1.21e-05 3.89e-05 
22 1 1.80732e-06 5.03e-05 4.14e-05 3.86e-05 
42 1 1.55622e-06 5.44406e-05 3.1433e-05 4.34404e-05 
32 1 1.70404e-06 9.49e-05 3.59e-05 4.43e-05 
55 1 1.59103e-06 5.49652e-05 3.23774e-05 4.45721e-05 
35 1 1.94157e-06 6.67e-05 5.92e-05 2.91e-06 
3 1 1.54913e-06 7.01e-05 6.25e-05 1.17e-05 
4 1 1.90026e-06 7.22e-05 8e-05 1.67e-05 
38 1 1.7247e-06 6.64e-05 7.08e-05 2.33e-05 
46 1 1.76601e-06 8.27e-05 6.6e-05 2.97e-05 
17 1 1.47683e-06 6.18e-05 5.3e-05 3.44e-05 
25 1 1.94157e-06 9.69e-05 6.85e-05 4.13e-05 
45 1 1.77633e-06 9.18e-05 6.71e-05 4.34e-05 
ITEM: TIMESTEP
700
ITEM: NUMBER OF ATOMS
56
ITEM: BOX BOUNDS ff ff ff
0.0000000000000000e+00 1.0000000000000000e-04
0.0000000000000000e+00 1.0000000000000000e-04
0.0000000000000000e+00 5.0000000000000002e-05
ITEM: ATOMS id type diameter x y z 
36 1 1.82743e-06 2.5e-05 1.44e-05 6.29e-06 
40 1 1.599e-06 2.64e-05 4.92e-05 7.46e-06 
9 1 1.88973e-06 6.23e-06 2.79e-05 7.76e-06 
31 1 1.52632e-06 8.65e-06 3.12e-05 9.21e-06 
14 1 1.5483e-06 9.36049e-06 1.06329e-05 1.33402e-05 
48 1 1.5367e-06 3.05e-05 1.44e-05 1.55e-05 
56 1 1.58294e-06 9.88532e-06 1.15775e-05 1.44723e-05 
47 1 1.57275e-06 2.25406e-05 9.93311e-06 2.07405e-05 
6 1 1.94165e-06 3.61e-05 4.37e-05 2.17e-05 
41 1 1.47441e-06 3.68e-05 2.1e-05 2.95e-05 
20 1 1.93126e-06 2.95e-05 2.46e-05 3.13e-05 
16 1 1.63015e-06 3.04e-05 4.63e-05 3.27e-05 
18 1 1.44326e-06 1.56e-05 4.45e-05 3.51e-05 
10 1 1.58862e-06 3e-05 1.7e-05 3.83e-05 
1 1 1.75475e-06 3.25e-05 3.11e-06 3.87e-05 
23 1 1.6613e-06 3.27e-05 2.58e-05 4.14e-05 
33 1 1.65092e-06 3.23e-05 4.43e-05 4.19e-05 
51 1 1.60793e-06 2.30652e-05 1.08773e-05 2.1872e-05 
50 1 1.79628e-06 2.09e-06 8.82e-05 2.74e-06 
24 1 1.94165e-06 4.15e-05 9e-05 6.17e-06 
26 1 1.69245e-06 3.56e-05 6.81e-05 8.01e-06 
7 1 1.8482e-06 3.43e-05 6.84e-05 1.03e-05 
44 1 1.67168e-06 1e-05 6.66e-05 1.29e-05 
39 1 1.90011e-06 7e-06 5.92e-05 2.16e-05 
43 1 1.5646e-06 4.58406e-05 8.4433e-05 2.67404e-05 
13 1 1.7859e-06 4.13e-06 5.63e-05 2.99e-05 
11 1 1.47441e-06 2.77e-05 9.26e-05 3.06e-05 
12 1 1.56968e-06 4.84994e-05 6.98512e-05 3.37516e-05 
28 1 1.81705e-06 7.91e-06 9.62e-05 4.15e-05 
49 1 1.5367e-06 5.91e-06 7.74e-05 4.51e-05 
34 1 1.6613e-06 1.43e-05 5.3e-05 4.82e-05 
52 1 1.5996e-06 4.63652e-05 8.53774e-05 2.78721e-05 
53 1 1.5947e-06 4.80975e-05 6.9748e-05 3.52603e-05 
5 1 1.46402e-06 7.08e-05 3.91e-05 6.27e-06 
30 1 1.69245e-06 9.74e-05 3.93e-05 6.49e-06 
21 1 1.5646e-06 7.27406e-05 4.6933e-05 9.7404e-06 
15 1 1.81705e-06 9.17e-05 4.36e-05 1.66e-05 
19 1 1.51594e-06 6.16e-05 2.76e-05 1.86e-05 
54 1 1.5996e-06 7.32652e-05 4.78774e-05 1.08721e-05 
37 1 1.61977e-06 5.26e-05 4.78e-05 2.15e-05 
27 1 1.73398e-06 6.82e-05 8.63e-06 2.96e-05 
29 1 1.92088e-06 6.36e-05 3.56e-05 3.09e-05 
8 1 1.61977e-06 6.07e-05 2.57e-05 3.65e-05 
2 1 1.90011e-06 6.15e-05 1.21e-05 3.89e-05 
22 1 1.81705e-06 5.03e-05 4.14e-05 3.86e-05 
42 1 1.5646e-06 5.44406e-05 3.1433e-05 4.34404e-05 
32 1 1.71322e-06 9.49e-05 3.59e-05 4.43e-05 
55 1 1.5996e-06 5.49652e-05 3.23774e-05 4.45721e-05 
35 1 1.95203e-06 6.67e-05 5.92e-05 2.91e-06 
3 1 1.55747e-06 7.01e-05 6.25e-05 1.17e-05 
4 1 1.9105e-06 7.22e-05 8e-05 1.67e-05 
38 1 1.73398e-06 6.64e-05 7.08e-05 2.33e-05 
46 1 1.77552e-06 8.27e-05 6.6e-05 2.97e-05 
17 1 1.48479e-06 6.18e-05 5.3e-05 3.44e-05 
25 1 1.95203e-06 9.69e-05 6.85e-05 4.13e-05 
45 1 1.7859e-06 9.18e-05 6.71e-05 4.34e-05 
ITEM: TIMESTEP
800
ITEM: NUMBER OF ATOMS
56
ITEM: BOX BOUNDS ff ff ff
0.0000000000000000e+00 1.0000000000000000e-04
0.0000000000000000e+00 1.0000000000000000e-04
0.0000000000000000e+00 5.0000000000000002e-05
ITEM: ATOMS id type diameter x y z 
36 1 1.83727e-06 2.5e-05 1.44e-05 6.29e-06 
40 1 1.60761e-06 2.64e-05 4.92e-05 7.46e-06 
9 1 1.89991e-06 6.23e-06 2.79e-05 7.76e-06 
31 1 1.53454e-06 8.65e-06 3.12e-05 9.21e-06 
14 1 1.55664e-06 9.36049e-06 1.06329e-05 1.33402e-05 
48 1 1.54498e-06 3.05e-05 1.44e-05 1.55e-05 
56 1 1.59146e-06 9.88532e-06 1.15775e-05 1.44723e-05 
47 1 1.58122e-06 2.25339e-05 9.92104e-06 2.0726e-05 
6 1 1.9521e-06 3.61e-05 4.37e-05 2.17e-05 
41 1 1.48235e-06 3.68e-05 2.1e-05 2.95e-05 
20 1 1.94166e-06 2.95e-05 2.46e-05 3.13e-05 
16 1 1.63893e-06 3.04e-05 4.63e-05 3.27e-05 
18 1 1.45103e-06 1.56e-05 4.45e-05 3.51e-05 
10 1 1.59718e-06 3e-05 1.7e-05 3.83e-05 
1 1 1.7642e-06 3.25e-05 3.11e-06 3.87e-05 
23 1 1.67025e-06 3.27e-05 2.58e-05 4.14e-05 
33 1 1.65981e-06 3.23e-05 4.43e-05 4.19e-05 
51 1 1.61659e-06 2.30719e-05 1.08894e-05 2.18865e-05 
50 1 1.80596e-06 2.09e-06 8.82e-05 2.74e-06 
24 1 1.9521e-06 4.15e-05 9e-05 6.17e-06 
26 1 1.70157e-06 3.56e-05 6.81e-05 8.01e-06 
7 1 1.85815e-06 3.43e-05 6.84e-05 1.03e-05 
44 1 1.68069e-06 1e-05 6.66e-05 1.29e-05 
39 1 1.91035e-06 7e-06 5.92e-05 2.16e-05 
43 1 1.57302e-06 4.58406e-05 8.4433e-05 2.67404e-05 
13 1 1.79552e-06 4.13e-06 5.63e-05 2.99e-05 
11 1 1.48235e-06 2.77e-05 9.26e-05 3.06e-05 
12 1 1.57814e-06 4.84994e-05 6.98512e-05 3.37516e-05 
28 1 1.82683e-06 7.91e-06 9.62e-05 4.15e-05 
49 1 1.54498e-06 5.91e-06 7.74e-05 4.51e-05 
34 1 1.67025e-06 1.43e-05 5.3e-05 4.82e-05 
52 1 1.60821e-06 4.63652e-05 8.53774e-05 2.78721e-05 
53 1 1.60329e-06 4.80975e-05 6.9748e-05 3.52603e-05 
5 1 1.47191e-06 7.08e-05 3.91e-05 6.27e-06 
30 1 1.70157e-06 9.74e-05 3.93e-05 6.49e-06 
21 1 1.57302e-06 7.27406e-05 4.6933e-05 9.7404e-06 
15 1 1.82683e-06 9.17e-05 4.36e-05 1.66e-05 
19 1 1.5241e-06 6.16e-05 2.76e-05 1.86e-05 
54 1 1.60821e-06 7.32652e-05 4.78774e-05 1.08721e-05 
37 1 1.62849e-06 5.26e-05 4.78e-05 2.15e-05 
27 1 1.74332e-06 6.82e-05 8.63e-06 2.96e-05 
29 1 1.93123e-06 6.36e-05 3.56e-05 3.09e-05 
8 1 1.62849e-06 6.07e-05 2.57e-05 3.65e-05 
2 1 1.91035e-06 6.15e-05 1.21e-05 3.89e-05 
22 1 1.82683e-06 5.03e-05 4.14e-05 3.86e-05 
42 1 1.57302e-06 5.44406e-05 3.1433e-05 4.34404e-05 
32 1 1.72244e-06 9.49e-05 3.59e-05 4.43e-05 
55 1 1.60821e-06 5.49652e-05 3.23774e-05 4.45721e-05 
35 1 1.96254e-06 6.67e-05 5.92e-05 2.91e-06 
3 1 1.56586e-06 7.01e-05 6.25e-05 1.17e-05 
4 1 1.92079e-06 7.22e-05 8e-05 1.67e-05 
38 1 1.74332e-06 6.64e-05 7.08e-05 2.33e-05 
46 1 1.78508e-06 8.27e-05 6.6e-05 2.97e-05 
17 1 1.49278e-06 6.18e-05 5.3e-05 3.44e-05 
25 1 1.96254e-06 9.69e-05 6.85e-05 4.13e-05 
45 1 1.79552e-06 9.18e-05 6.71e-05 4.34e-05 
ITEM: TIMESTEP
900
ITEM: NUMBER OF ATOMS
58
ITEM: BOX BOUNDS ff ff ff
0.0000000000000000e+00 1.0000000000000000e-04
0.0000000000000000e+00 1.0000000000000000e-04
0.0000000000000000e+00 5.0000000000000002e-05
ITEM: ATOMS id type diameter x y z 
36 1 1.84717e-06 2.5e-05 1.44e-05 6.29e-06 
40 1 1.61627e-06 2.64e-05 4.92e-05 7.46e-06 
9 1 1.91014e-06 6.23e-06 2.79e-05 7.76e-06 
31 1 1.54281e-06 8.65e-06 3.12e-05 9.21e-06 
14 1 1.56502e-06 9.36049e-06 1.06329e-05 1.33402e-05 
48 1 1.5533e-06 3.05e-05 1.44e-05 1.55e-05 
56 1 1.60003e-06 9.88532e-06 1.15775e-05 1.44723e-05 
47 1 1.58973e-06 2.25339e-05 9.92104e-06 2.0726e-05 
6 1 1.96262e-06 3.61e-05 4.37e-05 2.17e-05 
41 1 1.49033e-06 3.68e-05 2.1e-05 2.95e-05 
20 1 1.95212e-06 2.95e-05 2.46e-05 3.13e-05 
16 1 1.64776e-06 3.04e-05 4.63e-05 3.27e-05 
18 1 1.45884e-06 1.56e-05 4.45e-05 3.51e-05 
10 1 1.60578e-06 3e-05 1.7e-05 3.83e-05 
1 1 1.7737e-06 3.25e-05 3.11e-06 3.87e-05 
23 1 1.67924e-06 3.27e-05 2.58e-05 4.14e-05 
33 1 1.66875e-06 3.23e-05 4.43e-05 4.19e-05 
51 1 1.62529e-06 2.30719e-05 1.08894e-05 2.18865e-05 
50 1 1.81568e-06 2.09e-06 8.82e-05 2.74e-06 
24 1 1.96262e-06 4.15e-05 9e-05 6.17e-06 
26 1 1.71073e-06 3.56e-05 6.81e-05 8.01e-06 
7 1 1.86816e-06 3.43e-05 6.84e-05 1.03e-05 
44 1 1.68974e-06 1e-05 6.66e-05 1.29e-05 
39 1 1.92064e-06 7e-06 5.92e-05 2.16e-05 
43 1 1.5815e-06 4.58339e-05 8.4421e-05 2.67259e-05 
13 1 1.80519e-06 4.13e-06 5.63e-05 2.99e-05 
11 1 1.49033e-06 2.77e-05 9.26e-05 3.06e-05 
12 1 1.58664e-06 4.85045e-05 6.98525e-05 3.37323e-05 
28 1 1.83667e-06 7.91e-06 9.62e-05 4.15e-05 
49 1 1.5533e-06 5.91e-06 7.74e-05 4.51e-05 
34 1 1.67924e-06 1.43e-05 5.3e-05 4.82e-05 
52 1 1.61687e-06 4.6372e-05 8.53895e-05 2.78866e-05 
53 1 1.61192e-06 4.80923e-05 6.97467e-05 3.52796e-05 
5 1 1.47983e-06 7.08e-05 3.91e-05 6.27e-06 
30 1 1.71073e-06 9.74e-05 3.93e-05 6.49e-06 
21 1 1.5815e-06 7.27339e-05 4.6921e-05 9.72593e-06 
15 1 1.83667e-06 9.17e-05 4.36e-05 1.66e-05 
19 1 1.53231e-06 6.16e-05 2.76e-05 1.86e-05 
54 1 1.61687e-06 7.3272e-05 4.78895e-05 1.08866e-05 
37 1 1.63726e-06 5.26e-05 4.78e-05 2.15e-05 
27 1 1.75271e-06 6.82e-05 8.63e-06 2.96e-05 
29 1 1.94163e-06 6.36e-05 3.56e-05 3.09e-05 
8 1 1.63726e-06 6.07e-05 2.57e-05 3.65e-05 
2 1 1.92064e-06 6.15e-05 1.21e-05 3.89e-05 
22 1 1.83667e-06 5.03e-05 4.14e-05 3.86e-05 
42 1 1.5815e-06 5.44339e-05 3.1421e-05 4.34259e-05 
32 1 1.73172e-06 9.49e-05 3.59e-05 4.43e-05 
55 1 1.61687e-06 5.4972e-05 3.23895e-05 4.45866e-05 
35 1 1.54855e-06 6.64404e-05 5.87328e-05 2.35016e-06 
3 1 1.57429e-06 7.01e-05 6.25e-05 1.17e-05 
4 1 1.93113e-06 7.22e-05 8e-05 1.67e-05 
57 1 1.58319e-06 6.69654e-05 5.96776e-05 3.48236e-06 
38 1 1.75271e-06 6.64e-05 7.08e-05 2.33e-05 
46 1 1.79469e-06 8.27e-05 6.6e-05 2.97e-05 
17 1 1.50082e-06 6.18e-05 5.3e-05 3.44e-05 
25 1 1.54855e-06 9.66404e-05 6.80328e-05 4.07402e-05 
45 1 1.80519e-06 9.18e-05 6.71e-05 4.34e-05 
58 1 1.58319e-06 9.71654e-05 6.89776e-05 4.18724e-05 
ITEM: TIMESTEP
1000
ITEM: NUMBER OF ATOMS
60
ITEM: BOX BOUNDS ff ff ff
0.0000000000000000e+00 1.0000000000000000e-04
0.0000000000000000e+00 1.0000000000000000e-04
0.0000000000000000e+00 5.0000000000000002e-05
ITEM: ATOMS id type diameter x y z 
36 1 1.85712e-06 2.5e-05 1.44e-05 6.29e-06 
40 1 1.62498e-06 2.64e-05 4.92e-05 7.46e-06 
9 1 1.92043e-06 6.23e-06 2.79e-05 7.76e-06 
31 1 1.55111e-06 8.65e-06 3.12e-05 9.21e-06 
14 1 1.57345e-06 9.36049e-06 1.06329e-05 1.33402e-05 
56 1 1.60865e-06 9.88532e-06 1.15775e-05 1.44723e-05 
48 1 1.56167e-06 3.05e-05 1.44e-05 1.55e-05 
47 1 1.59829e-06 2.25339e-05 9.92104e-06 2.0726e-05 
6 1 1.55364e-06 3.62994e-05 4.37512e-05 2.09513e-05 
51 1 1.63405e-06 2.30719e-05 1.08894e-05 2.18865e-05 
59 1 1.5784e-06 3.58974e-05 4.3648e-05 2.24607e-05 
41 1 1.49836e-06 3.68e-05 2.1e-05 2.95e-05 
20 1 1.96263e-06 2.95e-05 2.46e-05 3.13e-05 
16 1 1.65663e-06 3.04e-05 4.63e-05 3.27e-05 
18 1 1.4667e-06 1.56e-05 4.45e-05 3.51e-05 
10 1 1.61443e-06 3e-05 1.7e-05 3.83e-05 
1 1 1.78325e-06 3.25e-05 3.11e-06 3.87e-05 
23 1 1.68829e-06 3.27e-05 2.58e-05 4.14e-05 
33 1 1.67774e-06 3.23e-05 4.43e-05 4.19e-05 
50 1 1.82546e-06 2.09e-06 8.82e-05 2.74e-06 
24 1 1.54861e-06 4.12404e-05 8.95328e-05 5.61014e-06 
60 1 1.58325e-06 4.17654e-05 9.04776e-05 6.74239e-06 
26 1 1.71994e-06 3.56e-05 6.81e-05 8.01e-06 
7 1 1.87822e-06 3.43e-05 6.84e-05 1.03e-05 
44 1 1.69884e-06 1e-05 6.66e-05 1.29e-05 
39 1 1.93098e-06 7e-06 5.92e-05 2.16e-05 
43 1 1.59001e-06 4.58339e-05 8.4421e-05 2.67259e-05 
52 1 1.62558e-06 4.6372e-05 8.53895e-05 2.78866e-05 
13 1 1.81491e-06 4.13e-06 5.63e-05 2.99e-05 
11 1 1.49836e-06 2.77e-05 9.26e-05 3.06e-05 
12 1 1.59518e-06 4.85045e-05 6.98525e-05 3.37323e-05 
53 1 1.62061e-06 4.80923e-05 6.97467e-05 3.52796e-05 
28 1 1.84656e-06 7.91e-06 9.62e-05 4.15e-05 
49 1 1.56167e-06 5.91e-06 7.74e-05 4.51e-05 
34 1 1.68829e-06 1.43e-05 5.3e-05 4.82e-05 
5 1 1.4878e-06 7.08e-05 3.91e-05 6.27e-06 
30 1 1.71994e-06 9.74e-05 3.93e-05 6.49e-06 
21 1 1.59001e-06 7.27339e-05 4.6921e-05 9.72593e-06 
54 1 1.62558e-06 7.3272e-05 4.78895e-05 1.08866e-05 
15 1 1.84656e-06 9.17e-05 4.36e-05 1.66e-05 
19 1 1.54056e-06 6.16e-05 2.76e-05 1.86e-05 
37 1 1.64608e-06 5.26e-05 4.78e-05 2.15e-05 
27 1 1.76215e-06 6.82e-05 8.63e-06 2.96e-05 
29 1 1.95208e-06 6.36e-05 3.56e-05 3.09e-05 
8 1 1.64608e-06 6.07e-05 2.57e-05 3.65e-05 
2 1 1.93098e-06 6.15e-05 1.21e-05 3.89e-05 
22 1 1.84656e-06 5.03e-05 4.14e-05 3.86e-05 
42 1 1.59001e-06 5.44339e-05 3.1421e-05 4.34259e-05 
32 1 1.74105e-06 9.49e-05 3.59e-05 4.43e-05 
55 1 1.62558e-06 5.4972e-05 3.23895e-05 4.45866e-05 
35 1 1.55689e-06 6.64404e-05 5.87328e-05 2.35016e-06 
57 1 1.59171e-06 6.69654e-05 5.96776e-05 3.48236e-06 
3 1 1.58277e-06 7.01e-05 6.25e-05 1.17e-05 
4 1 1.94153e-06 7.22e-05 8e-05 1.67e-05 
38 1 1.76215e-06 6.64e-05 7.08e-05 2.33e-05 
46 1 1.80436e-06 8.27e-05 6.6e-05 2.97e-05 
17 1 1.50891e-06 6.18e-05 5.3e-05 3.44e-05 
25 1 1.55689e-06 9.66404e-05 6.80328e-05 4.07402e-05 
58 1 1.59172e-06 9.71654e-05 6.89776e-05 4.18724e-05 
45 1 1.81491e-06 9.18e-05 6.71e-05 4.34e-05 
ITEM: TIMESTEP
1100
ITEM: NUMBER OF ATOMS
61
ITEM: BOX BOUNDS ff ff ff
0.0000000000000000e+00 1.0000000000000000e-04
0.0000000000000000e+00 1.0000000000000000e-04
0.0000000000000000e+00 5.0000000000000002e-05
ITEM: ATOMS id type diameter x y z 
36 1 1.86712e-06 2.5e-05 1.44e-05 6.29e-06 
40 1 1.63373e-06 2.64e-05 4.92e-05 7.46e-06 
9 1 1.93077e-06 6.23e-06 2.79e-05 7.76e-06 
31 1 1.55947e-06 8.65e-06 3.12e-05 9.21e-06 
14 1 1.58192e-06 9.35378e-06 1.06208e-05 1.33258e-05 
56 1 1.61731e-06 9.89202e-06 1.15896e-05 1.44867e-05 
48 1 1.57008e-06 3.05e-05 1.44e-05 1.55e-05 