LAMMPS (20 Nov 2019)
Reading data file ...
  orthogonal box = (0 0 0) to (0.0001 0.0001 5e-05)
  2 by 2 by 2 MPI processor grid
  reading atoms ...
  50 atoms
  4 nutrients
Lattice spacing in x,y,z = 100 100 100
50 atoms in group CYANO
0 atoms in group ECW
Model is defined as a closed system. 
Neighbor list info ...
  update every 1 steps, delay 0 steps, check yes
  max neighbors/atom: 5000, page size: 100000
  master list distance cutoff = 2.43e-06
  ghost atom cutoff = 2.43e-06
  binsize = 1.215e-06, bins = 83 83 42
  1 neighbor lists, perpetual/occasional/extra = 1 0 0
  (1) pair gran/hooke/history, perpetual
      attributes: half, newton off, size, history
      pair build: half/size/bin/newtoff
      stencil: half/bin/3d/newtoff
      bin: standard
Setting up Verlet run ...
  Unit style    : lj
  Current step  : 0
  Time step     : 10
Per MPI rank memory allocation (min/avg/max) = 6.973 | 10.33 | 12.35 Mbytes
Step CPU Atoms c_myNtypes[1] c_myNtypes[2] c_myMass[1] c_myMass[2] c_myCon[1] c_myCon[2] c_myCon[3] c_myCon[4] 
       0            0       50           50            0 4.5739694e-14            0          0.1        0.009     3.42e-20       0.0299 
number of iterations: 332728 
     100    5.0503419       50           50            0 4.6538409e-14            0          0.1 0.0090035478 0.0063484311  0.029894093 
number of iterations: 24742 
     200    5.6417449       50           50            0 4.7351071e-14            0          0.1 0.0090036098  0.012604815   0.02989399 
number of iterations: 24833 
     300    6.2658848       50           50            0 4.8177924e-14            0          0.1 0.0090036728  0.018968956  0.029893885 
number of iterations: 24925 
     400    6.8807474       51           51            0 4.9019216e-14            0          0.1  0.009003737  0.025443495  0.029893778 
number of iterations: 25016 
     500    7.4789055       51           51            0 4.9875199e-14            0          0.1 0.0090038022  0.032030634   0.02989367 
number of iterations: 25108 
     600    8.0529069       51           51            0 5.0746128e-14            0          0.1 0.0090038686  0.038732477  0.029893559 
number of iterations: 25200 
     700    8.6596082       52           52            0 5.1632266e-14            0          0.1 0.0090039362  0.045551108  0.029893446 
number of iterations: 25292 
     800    9.2501681       52           52            0 5.2533878e-14            0          0.1 0.0090040049   0.05248862  0.029893332 
number of iterations: 25389 
     900     9.868287       53           53            0 5.3451234e-14            0          0.1 0.0090040749  0.059547116  0.029893216 
number of iterations: 25475 
    1000    10.479755       54           54            0 5.4384609e-14            0          0.1  0.009004146  0.066728747  0.029893097 
number of iterations: 25567 
    1100    11.085141       55           55            0 5.5334283e-14            0          0.1 0.0090042184  0.074035682  0.029892977 
number of iterations: 26706 
    1200    11.737489       57           57            0 5.630054e-14            0          0.1  0.009004305  0.081470126  0.029892832 
number of iterations: 25780 
    1300     12.31103       60           60            0 5.728367e-14            0          0.1 0.0090043802  0.089034329  0.029892707 
number of iterations: 25862 
    1400    12.926282       62           62            0 5.8283968e-14            0          0.1 0.0090044567  0.096730569   0.02989258 
number of iterations: 25954 
    1500    13.516402       63           63            0 5.9301733e-14            0          0.1 0.0090045345   0.10456115   0.02989245 
number of iterations: 26046 
    1600    14.120246       64           64            0 6.033727e-14            0          0.1 0.0090046137   0.11252844  0.029892318 
number of iterations: 26138 
    1700    14.720853       66           66            0 6.139089e-14            0          0.1 0.0090046943   0.12063481  0.029892184 
number of iterations: 26230 
    1800    15.353149       67           67            0 6.2462909e-14            0          0.1 0.0090047763   0.12888269  0.029892048 
number of iterations: 26322 
    1900    15.973435       69           69            0 6.3553647e-14            0          0.1 0.0090048597   0.13727457  0.029891909 
number of iterations: 26414 
    2000    16.603358       69           69            0 6.4663432e-14            0          0.1 0.0090049445   0.14581296  0.029891767 
number of iterations: 26507 
    2100    17.223439       71           71            0 6.5792596e-14            0          0.1 0.0090050309   0.15450042  0.029891624 
number of iterations: 26599 
    2200    17.857995       71           71            0 6.6941478e-14            0          0.1 0.0090051187   0.16333955  0.029891477 
number of iterations: 26691 
    2300      18.4812       71           71            0 6.8110421e-14            0          0.1 0.0090052081   0.17233301  0.029891329 
number of iterations: 26783 
    2400    19.088873       72           72            0 6.9299777e-14            0          0.1 0.0090052991    0.1814835  0.029891177 
number of iterations: 26875 
    2500    19.700714       73           73            0 7.0509902e-14            0          0.1 0.0090053916   0.19079376  0.029891023 
number of iterations: 26967 
    2600    20.332219       74           74            0 7.1741158e-14            0          0.1 0.0090054858   0.20026658  0.029890866 
number of iterations: 27054 
    2700    20.960878       76           76            0 7.2993914e-14            0          0.1 0.0090055816   0.20990482  0.029890707 
number of iterations: 27151 
    2800    21.634368       76           76            0 7.4268546e-14            0          0.1  0.009005679   0.21971135  0.029890544 
number of iterations: 27244 
    2900    22.258241       76           76            0 7.5565436e-14            0          0.1 0.0090057782    0.2296891  0.029890379 
number of iterations: 27327 
    3000    22.876565       77           77            0 7.6884973e-14            0          0.1 0.0090058791   0.23984108  0.029890211 
number of iterations: 27440 
    3100     23.49277       78           78            0 7.8227551e-14            0          0.1 0.0090059818   0.25017032   0.02989004 
number of iterations: 27520 
    3200     24.13897       78           78            0 7.9593574e-14            0          0.1 0.0090060862   0.26067992  0.029889866 
number of iterations: 27613 
    3300    24.794572       79           79            0 8.098345e-14            0          0.1 0.0090061925   0.27137303  0.029889689 
number of iterations: 27705 
    3400    25.435527       79           79            0 8.2397596e-14            0          0.1 0.0090063006   0.28225286  0.029889509 
number of iterations: 27797 
    3500     26.08834       79           79            0 8.3836437e-14            0          0.1 0.0090064107   0.29332265  0.029889326 
number of iterations: 27890 
    3600    26.763037       80           80            0 8.5300402e-14            0          0.1 0.0090065226   0.30458574   0.02988914 
number of iterations: 27982 
    3700    27.399138       81           81            0 8.6789932e-14            0          0.1 0.0090066365   0.31604549   0.02988895 
number of iterations: 28075 
    3800    28.038217       82           82            0 8.8305472e-14            0          0.1 0.0090067524   0.32770535  0.029888757 
number of iterations: 28181 
    3900    28.681358       83           83            0 8.9847476e-14            0          0.1 0.0090068703    0.3395688  0.029888561 
number of iterations: 28270 
    4000     29.33763       84           84            0 9.1416408e-14            0          0.1 0.0090069903   0.35163938  0.029888361 
number of iterations: 28352 
    4100    30.003237       85           85            0 9.3012736e-14            0          0.1 0.0090071124   0.36392074  0.029888158 
number of iterations: 28445 
    4200    30.698376       86           86            0 9.4636939e-14            0          0.1 0.0090072366   0.37641654  0.029887951 
number of iterations: 28537 
    4300    31.390235       88           88            0 9.6289504e-14            0          0.1  0.009007363   0.38913054  0.029887741 
number of iterations: 28630 
    4400    32.066809       89           89            0 9.7970927e-14            0          0.1 0.0090074915   0.40206655  0.029887526 
number of iterations: 29668 
    4500    32.764519       92           92            0 9.9681711e-14            0          0.1 0.0090076449   0.41522844  0.029887271 
number of iterations: 28835 
    4600    33.411721       96           96            0 1.0142237e-13            0          0.1 0.0090077784   0.42862018  0.029887049 
number of iterations: 28925 
    4700    34.045575       97           97            0 1.0319342e-13            0          0.1 0.0090079143   0.44224576  0.029886823 
number of iterations: 29018 
    4800    34.720742       99           99            0 1.049954e-13            0          0.1 0.0090080525   0.45610927  0.029886592 
number of iterations: 29677 
    4900    35.386722      101          101            0 1.0682885e-13            0          0.1 0.0090082053   0.47021481  0.029886338 
number of iterations: 29213 
    5000    36.058666      106          106            0 1.0869431e-13            0          0.1 0.0090083486   0.48456666  0.029886099 
number of iterations: 29306 
    5100    36.766137      109          109            0 1.1059235e-13            0          0.1 0.0090084944   0.49916911  0.029885857 
number of iterations: 29405 
    5200     37.44076      111          111            0 1.1252353e-13            0          0.1 0.0090086427   0.51402654   0.02988561 
number of iterations: 28497 
    5300    38.067433      114          114            0 1.1448843e-13            0          0.1 0.0090087732   0.52914344  0.029885392 
number of iterations: 29568 
    5400    38.734222      118          118            0 1.1648764e-13            0          0.1 0.0090089264    0.5445243  0.029885137 
number of iterations: 30342 
    5500    39.445515      122          122            0 1.1852177e-13            0          0.1 0.0090091037   0.56017376  0.029884842 
number of iterations: 29766 
    5600    40.112531      123          123            0 1.2059141e-13            0          0.1 0.0090092627   0.57609649  0.029884577 
number of iterations: 29858 
    5700    40.815963      125          125            0 1.226972e-13            0          0.1 0.0090094244   0.59229725  0.029884308 
number of iterations: 29948 
    5800    41.528554      128          128            0 1.2483975e-13            0          0.1  0.009009589   0.60878089  0.029884034 
number of iterations: 30044 
    5900    42.201061      129          129            0 1.2701972e-13            0          0.1 0.0090097564   0.62555236  0.029883755 
number of iterations: 30137 
    6000    42.881658      131          131            0 1.2923776e-13            0          0.1 0.0090099268   0.64261669  0.029883471 
number of iterations: 30229 
    6100    43.578933      136          136            0 1.3149453e-13            0          0.1 0.0090101002     0.659979  0.029883183 
number of iterations: 30323 
    6200    44.235595      140          140            0 1.337907e-13            0          0.1 0.0090102765   0.67764447  0.029882889 
number of iterations: 30419 
    6300    44.947591      145          145            0 1.3612698e-13            0          0.1  0.009010456   0.69561841   0.02988259 
number of iterations: 30508 
    6400    45.657931      146          146            0 1.3850404e-13            0          0.1 0.0090106386   0.71390621  0.029882286 
number of iterations: 30600 
    6500    46.351489      147          147            0 1.4092262e-13            0          0.1 0.0090108244   0.73251334  0.029881977 
number of iterations: 30693 
    6600     47.05382      147          147            0 1.4338343e-13            0          0.1 0.0090110134   0.75144539  0.029881662 
number of iterations: 30786 
    6700     47.74762      148          148            0 1.4588721e-13            0          0.1 0.0090112057   0.77070802  0.029881342 
number of iterations: 31136 
    6800    48.411364      150          150            0 1.4843471e-13            0          0.1 0.0090114088   0.79030697  0.029881004 
number of iterations: 30976 
    6900    49.104949      152          152            0 1.510267e-13            0          0.1 0.0090116081   0.81024815  0.029880672 
number of iterations: 31069 
    7000    49.758685      152          152            0 1.5366395e-13            0          0.1 0.0090118108   0.83053754  0.029880335 
number of iterations: 31162 
    7100    50.470323      154          154            0 1.5634725e-13            0          0.1  0.009012017   0.85118122  0.029879991 
number of iterations: 31546 
    7200      51.2093      155          155            0 1.590774e-13            0          0.1 0.0090122361   0.87218534  0.029879626 
number of iterations: 31353 
    7300    51.921982      157          157            0 1.6185523e-13            0          0.1 0.0090124497   0.89355623  0.029879271 
number of iterations: 31791 
    7400    52.640697      157          157            0 1.6468157e-13            0          0.1 0.0090126784   0.91530025   0.02987889 
number of iterations: 31545 
    7500    53.330884      159          159            0 1.6755726e-13            0          0.1 0.0090128998   0.93742396  0.029878521 
number of iterations: 31638 
    7600    54.041149      160          160            0 1.7048317e-13            0          0.1  0.009013125   0.95993399  0.029878146 
number of iterations: 31733 
    7700    54.762271      163          163            0 1.7346016e-13            0          0.1 0.0090133542   0.98283708  0.029877765 
number of iterations: 31825 
    7800    55.454025      165          165            0 1.7648915e-13            0          0.1 0.0090135874    1.0061401  0.029877376 
number of iterations: 31918 
    7900      56.1778      167          167            0 1.7957102e-13            0          0.1 0.0090138247    1.0298501  0.029876981 
number of iterations: 32010 
    8000    56.921067      169          169            0 1.8270671e-13            0          0.1 0.0090140661     1.053974  0.029876579 
number of iterations: 32105 
    8100    57.615462      173          173            0 1.8589716e-13            0          0.1 0.0090143117    1.0785193   0.02987617 
number of iterations: 32194 
    8200    58.331181      177          177            0 1.8914331e-13            0          0.1 0.0090145616    1.1034931  0.029875754 
number of iterations: 32100 
    8300    59.044255      181          181            0 1.9244616e-13            0          0.1  0.009014809     1.128903  0.029875342 
number of iterations: 32379 
    8400    59.767025      184          184            0 1.9580667e-13            0          0.1 0.0090150676    1.1547566  0.029874912 
number of iterations: 32469 
    8500    60.489676      190          190            0 1.9922587e-13            0          0.1 0.0090153307    1.1810617  0.029874474 
number of iterations: 32858 
    8600    61.241506      195          195            0 2.0270477e-13            0          0.1   0.00901561    1.2078261  0.029874008 
number of iterations: 32664 
    8700    62.003449      199          199            0 2.0624443e-13            0          0.1 0.0090158826    1.2350579  0.029873555 
number of iterations: 32752 
    8800    62.781312      202          202            0 2.0984589e-13            0          0.1 0.0090161599    1.2627652  0.029873093 
number of iterations: 32849 
    8900    63.539835      206          206            0 2.1351024e-13            0          0.1 0.0090164421    1.2909563  0.029872623 
number of iterations: 33357 
    9000    64.278543      211          211            0 2.1723858e-13            0          0.1 0.0090167478    1.3196396  0.029872114 
number of iterations: 33055 
    9100    65.008361      216          216            0 2.2103202e-13            0          0.1 0.0090170409    1.3488238  0.029871626 
number of iterations: 32980 
    9200    65.753917      220          220            0 2.248917e-13            0          0.1 0.0090173318    1.3785177  0.029871142 
number of iterations: 33064 
    9300    66.503842      228          228            0 2.2881878e-13            0          0.1 0.0090176274    1.4087301  0.029870649 
number of iterations: 33163 
    9400    67.301683      235          235            0 2.3281444e-13            0          0.1 0.0090179285    1.4394701  0.029870148 
number of iterations: 33933 
    9500    68.068887      240          240            0 2.3687986e-13            0          0.1 0.0090182691    1.4707469  0.029869581 
number of iterations: 33509 
    9600    68.806034      243          243            0 2.4101628e-13            0          0.1 0.0090185882    1.5025698  0.029869049 
number of iterations: 33604 
    9700    69.553851      248          248            0 2.4522493e-13            0          0.1 0.0090189127    1.5349485  0.029868509 
number of iterations: 33466 
    9800     70.31076      254          254            0 2.4950707e-13            0          0.1 0.0090192264    1.5678924  0.029867987 
number of iterations: 33785 
    9900    71.083405      257          257            0 2.5386398e-13            0          0.1 0.0090195621    1.6014117  0.029867428 
number of iterations: 33878 
   10000    71.895949      264          264            0 2.5829697e-13            0          0.1 0.0090199037    1.6355162  0.029866859 
Loop time of 71.896 on 8 procs for 10000 steps with 264 atoms

Performance: 120173591.650 tau/day, 139.090 timesteps/s
88.6% CPU use with 8 MPI tasks x no OpenMP threads

MPI task timing breakdown:
Section |  min time  |  avg time  |  max time  |%varavg| %total
---------------------------------------------------------------
Pair    | 0.0083561  | 0.010306   | 0.012857   |   1.6 |  0.01
Neigh   | 0.0071113  | 0.0081395  | 0.0093572  |   1.0 |  0.01
Comm    | 0.023679   | 0.037205   | 0.053211   |   5.5 |  0.05
Output  | 12.216     | 12.216     | 12.219     |   0.0 | 16.99
Modify  | 59.557     | 59.559     | 59.562     |   0.0 | 82.84
Other   |            | 0.06467    |            |       |  0.09

Nlocal:    33 ave 60 max 11 min
Histogram: 2 1 0 1 0 0 2 0 1 1
Nghost:    5 ave 12 max 1 min
Histogram: 3 1 0 0 1 0 2 0 0 1
Neighs:    36.5 ave 73 max 9 min
Histogram: 2 1 1 0 0 0 3 0 0 1

Total # of neighbors = 292
Ave neighs/atom = 1.10606
Neighbor list builds = 114
Dangerous builds = 0
Total wall time: 0:01:12
