ITEM: TIMESTEP
0
ITEM: NUMBER OF ATOMS
50
ITEM: BOX BOUNDS ff ff ff
0.0000000000000000e+00 1.0000000000000000e-04
0.0000000000000000e+00 1.0000000000000000e-04
0.0000000000000000e+00 5.0000000000000002e-05
ITEM: ATOMS id type diameter x y z 
16 1 1.86e-06 3.84e-05 2.85e-05 1.97e-06 
7 1 1.37e-06 1.92e-06 4.12e-05 2.33e-06 
50 1 1.65e-06 3.2e-05 3.99e-05 1.66e-05 
24 1 1.88e-06 2e-05 4.31e-05 2.49e-05 
46 1 1.44e-06 2.53e-05 3.43e-05 2.77e-05 
5 1 1.82e-06 3.82e-05 2.71e-05 3.29e-05 
28 1 1.48e-06 2.9e-05 2.67e-05 3.55e-05 
33 1 1.83e-06 2.77e-05 9.31e-06 3.71e-05 
9 1 1.9e-06 4.76e-05 3.63e-05 3.77e-05 
14 1 1.55e-06 2.19e-05 2.53e-05 4.18e-05 
4 1 1.48e-06 2.74e-05 1.53e-05 4.51e-05 
36 1 1.39e-06 2.41e-05 9.11e-05 2.6e-06 
2 1 1.58e-06 4.78e-05 6e-05 7.05e-06 
13 1 1.52e-06 9.98e-06 7.51e-05 7.45e-06 
35 1 1.6e-06 1.85e-05 9.28e-05 1.13e-05 
48 1 1.38e-06 3.42e-05 7.15e-05 1.66e-05 
49 1 1.87e-06 2.94e-05 7.42e-05 1.71e-05 
12 1 1.93e-06 1.84e-05 6.13e-05 2.23e-05 
8 1 1.56e-06 4.19e-05 7.89e-05 2.76e-05 
23 1 1.83e-06 2.23e-05 7e-05 3.11e-05 
30 1 1.82e-06 4.25e-05 6.3e-05 3.27e-05 
34 1 1.79e-06 4.37e-05 8.16e-05 3.63e-05 
17 1 1.77e-06 5.69e-06 8.33e-05 3.79e-05 
45 1 1.61e-06 3.07e-05 7.56e-05 3.88e-05 
43 1 1.44e-06 2.56e-05 7.88e-05 4.02e-05 
1 1 1.49e-06 1.88e-05 6.79e-05 4.64e-05 
31 1 1.54e-06 1.15e-05 7.71e-05 4.67e-05 
18 1 1.79e-06 8.24e-06 8.47e-05 4.73e-05 
26 1 1.71e-06 7.76e-05 4.17e-05 4.51e-06 
3 1 1.84e-06 6.93e-05 2.67e-05 1.16e-05 
21 1 1.52e-06 9.51e-05 4.2e-05 2.29e-05 
32 1 1.4e-06 7.62e-05 9.27e-06 2.76e-05 
19 1 1.48e-06 5.76e-05 1.58e-06 4.16e-05 
11 1 1.72e-06 7.25e-05 7.97e-05 2.49e-06 
47 1 1.69e-06 9.37e-05 9.03e-05 6.04e-06 
15 1 1.45e-06 6.06e-05 9.46e-05 7.39e-06 
29 1 1.59e-06 6.74e-05 5.94e-05 1.09e-05 
40 1 1.75e-06 5.22e-05 6.84e-05 1.09e-05 
6 1 1.8e-06 9.5e-05 7.84e-05 1.1e-05 
37 1 1.53e-06 9.78e-05 9.31e-05 1.45e-05 
42 1 1.75e-06 7.63e-05 8.69e-05 1.48e-05 
27 1 1.7e-06 8.89e-05 9.62e-05 1.72e-05 
22 1 1.69e-06 9.8e-05 8.61e-05 1.77e-05 
10 1 1.85e-06 6.21e-05 8.13e-05 2.01e-05 
41 1 1.63e-06 8.11e-05 5.43e-05 2.16e-05 
20 1 1.81e-06 5.24e-05 9.49e-05 2.31e-05 
39 1 1.66e-06 8.76e-05 7.05e-05 2.73e-05 
44 1 1.78e-06 7.9e-05 5.7e-05 3.16e-05 
38 1 1.83e-06 7.32e-05 6.72e-05 3.37e-05 
25 1 1.77e-06 6.54e-05 6.52e-05 4.59e-05 
ITEM: TIMESTEP
100
ITEM: NUMBER OF ATOMS
50
ITEM: BOX BOUNDS ff ff ff
0.0000000000000000e+00 1.0000000000000000e-04
0.0000000000000000e+00 1.0000000000000000e-04
0.0000000000000000e+00 5.0000000000000002e-05
ITEM: ATOMS id type diameter x y z 
16 1 1.87076e-06 3.84e-05 2.85e-05 1.97e-06 
7 1 1.37793e-06 1.92e-06 4.12e-05 2.33e-06 
50 1 1.65955e-06 3.2e-05 3.99e-05 1.66e-05 
24 1 1.89088e-06 2e-05 4.31e-05 2.49e-05 
46 1 1.44833e-06 2.53e-05 3.43e-05 2.77e-05 
5 1 1.83053e-06 3.82e-05 2.71e-05 3.29e-05 
28 1 1.48857e-06 2.9e-05 2.67e-05 3.55e-05 
33 1 1.84059e-06 2.77e-05 9.31e-06 3.71e-05 
9 1 1.911e-06 4.76e-05 3.63e-05 3.77e-05 
14 1 1.55897e-06 2.19e-05 2.53e-05 4.18e-05 
4 1 1.48857e-06 2.74e-05 1.53e-05 4.51e-05 
36 1 1.39804e-06 2.41e-05 9.11e-05 2.6e-06 
2 1 1.58914e-06 4.78e-05 6e-05 7.05e-06 
13 1 1.5288e-06 9.98e-06 7.51e-05 7.45e-06 
35 1 1.60926e-06 1.85e-05 9.28e-05 1.13e-05 
48 1 1.38799e-06 3.42e-05 7.15e-05 1.66e-05 
49 1 1.88082e-06 2.94e-05 7.42e-05 1.71e-05 
12 1 1.94117e-06 1.84e-05 6.13e-05 2.23e-05 
8 1 1.56903e-06 4.19e-05 7.89e-05 2.76e-05 
23 1 1.84059e-06 2.23e-05 7e-05 3.11e-05 
30 1 1.83053e-06 4.25e-05 6.3e-05 3.27e-05 
34 1 1.80036e-06 4.37e-05 8.16e-05 3.63e-05 
17 1 1.78024e-06 5.69e-06 8.33e-05 3.79e-05 
45 1 1.61932e-06 3.07e-05 7.56e-05 3.88e-05 
43 1 1.44833e-06 2.56e-05 7.88e-05 4.02e-05 
1 1 1.49862e-06 1.88e-05 6.79e-05 4.64e-05 
31 1 1.54891e-06 1.15e-05 7.71e-05 4.67e-05 
18 1 1.80036e-06 8.24e-06 8.47e-05 4.73e-05 
26 1 1.7199e-06 7.76e-05 4.17e-05 4.51e-06 
3 1 1.85065e-06 6.93e-05 2.67e-05 1.16e-05 
21 1 1.5288e-06 9.51e-05 4.2e-05 2.29e-05 
32 1 1.4081e-06 7.62e-05 9.27e-06 2.76e-05 
19 1 1.48857e-06 5.76e-05 1.58e-06 4.16e-05 
11 1 1.72995e-06 7.25e-05 7.97e-05 2.49e-06 
47 1 1.69978e-06 9.37e-05 9.03e-05 6.04e-06 
15 1 1.45839e-06 6.06e-05 9.46e-05 7.39e-06 
29 1 1.5992e-06 6.74e-05 5.94e-05 1.09e-05 
40 1 1.76013e-06 5.22e-05 6.84e-05 1.09e-05 
6 1 1.81042e-06 9.5e-05 7.84e-05 1.1e-05 
37 1 1.53885e-06 9.78e-05 9.31e-05 1.45e-05 
42 1 1.76013e-06 7.63e-05 8.69e-05 1.48e-05 
27 1 1.70984e-06 8.89e-05 9.62e-05 1.72e-05 
22 1 1.69978e-06 9.8e-05 8.61e-05 1.77e-05 
10 1 1.86071e-06 6.21e-05 8.13e-05 2.01e-05 
41 1 1.63943e-06 8.11e-05 5.43e-05 2.16e-05 
20 1 1.82047e-06 5.24e-05 9.49e-05 2.31e-05 
39 1 1.66961e-06 8.76e-05 7.05e-05 2.73e-05 
44 1 1.7903e-06 7.9e-05 5.7e-05 3.16e-05 
38 1 1.84059e-06 7.32e-05 6.72e-05 3.37e-05 
25 1 1.78024e-06 6.54e-05 6.52e-05 4.59e-05 
ITEM: TIMESTEP
200
ITEM: NUMBER OF ATOMS
50
ITEM: BOX BOUNDS ff ff ff
0.0000000000000000e+00 1.0000000000000000e-04
0.0000000000000000e+00 1.0000000000000000e-04
0.0000000000000000e+00 5.0000000000000002e-05
ITEM: ATOMS id type diameter x y z 
16 1 1.88159e-06 3.84e-05 2.85e-05 1.97e-06 
7 1 1.3859e-06 1.92e-06 4.12e-05 2.33e-06 
50 1 1.66915e-06 3.2e-05 3.99e-05 1.66e-05 
24 1 1.90182e-06 2e-05 4.31e-05 2.49e-05 
46 1 1.45672e-06 2.53e-05 3.43e-05 2.77e-05 
5 1 1.84113e-06 3.82e-05 2.71e-05 3.29e-05 
28 1 1.49718e-06 2.9e-05 2.67e-05 3.55e-05 
33 1 1.85124e-06 2.77e-05 9.31e-06 3.71e-05 
9 1 1.92205e-06 4.76e-05 3.63e-05 3.77e-05 
14 1 1.56799e-06 2.19e-05 2.53e-05 4.18e-05 
4 1 1.49718e-06 2.74e-05 1.53e-05 4.51e-05 
36 1 1.40613e-06 2.41e-05 9.11e-05 2.6e-06 
2 1 1.59834e-06 4.78e-05 6e-05 7.05e-06 
13 1 1.53764e-06 9.98e-06 7.51e-05 7.45e-06 
35 1 1.61857e-06 1.85e-05 9.28e-05 1.13e-05 
48 1 1.39602e-06 3.42e-05 7.15e-05 1.66e-05 
49 1 1.89171e-06 2.94e-05 7.42e-05 1.71e-05 
12 1 1.9524e-06 1.84e-05 6.13e-05 2.23e-05 
8 1 1.57811e-06 4.19e-05 7.89e-05 2.76e-05 
23 1 1.85124e-06 2.23e-05 7e-05 3.11e-05 
30 1 1.84113e-06 4.25e-05 6.3e-05 3.27e-05 
34 1 1.81078e-06 4.37e-05 8.16e-05 3.63e-05 
17 1 1.79055e-06 5.69e-06 8.33e-05 3.79e-05 
45 1 1.62869e-06 3.07e-05 7.56e-05 3.88e-05 
43 1 1.45672e-06 2.56e-05 7.88e-05 4.02e-05 
1 1 1.5073e-06 1.88e-05 6.79e-05 4.64e-05 
31 1 1.55788e-06 1.15e-05 7.71e-05 4.67e-05 
18 1 1.81078e-06 8.24e-06 8.47e-05 4.73e-05 
26 1 1.72985e-06 7.76e-05 4.17e-05 4.51e-06 
3 1 1.86136e-06 6.93e-05 2.67e-05 1.16e-05 
21 1 1.53764e-06 9.51e-05 4.2e-05 2.29e-05 
32 1 1.41625e-06 7.62e-05 9.27e-06 2.76e-05 
19 1 1.49718e-06 5.76e-05 1.58e-06 4.16e-05 
11 1 1.73997e-06 7.25e-05 7.97e-05 2.49e-06 
47 1 1.70962e-06 9.37e-05 9.03e-05 6.04e-06 
15 1 1.46683e-06 6.06e-05 9.46e-05 7.39e-06 
29 1 1.60846e-06 6.74e-05 5.94e-05 1.09e-05 
40 1 1.77031e-06 5.22e-05 6.84e-05 1.09e-05 
6 1 1.82089e-06 9.5e-05 7.84e-05 1.1e-05 
37 1 1.54776e-06 9.78e-05 9.31e-05 1.45e-05 
42 1 1.77031e-06 7.63e-05 8.69e-05 1.48e-05 
27 1 1.71973e-06 8.89e-05 9.62e-05 1.72e-05 
22 1 1.70962e-06 9.8e-05 8.61e-05 1.77e-05 
10 1 1.87147e-06 6.21e-05 8.13e-05 2.01e-05 
41 1 1.64892e-06 8.11e-05 5.43e-05 2.16e-05 
20 1 1.83101e-06 5.24e-05 9.49e-05 2.31e-05 
39 1 1.67927e-06 8.76e-05 7.05e-05 2.73e-05 
44 1 1.80066e-06 7.9e-05 5.7e-05 3.16e-05 
38 1 1.85124e-06 7.32e-05 6.72e-05 3.37e-05 
25 1 1.79055e-06 6.54e-05 6.52e-05 4.59e-05 
ITEM: TIMESTEP
300
ITEM: NUMBER OF ATOMS
50
ITEM: BOX BOUNDS ff ff ff
0.0000000000000000e+00 1.0000000000000000e-04
0.0000000000000000e+00 1.0000000000000000e-04
0.0000000000000000e+00 5.0000000000000002e-05
ITEM: ATOMS id type diameter x y z 
16 1 1.89248e-06 3.84e-05 2.85e-05 1.97e-06 
7 1 1.39392e-06 1.92e-06 4.12e-05 2.33e-06 
50 1 1.67881e-06 3.2e-05 3.99e-05 1.66e-05 
24 1 1.91283e-06 2e-05 4.31e-05 2.49e-05 
46 1 1.46515e-06 2.53e-05 3.43e-05 2.77e-05 
5 1 1.85178e-06 3.82e-05 2.71e-05 3.29e-05 
28 1 1.50584e-06 2.9e-05 2.67e-05 3.55e-05 
33 1 1.86196e-06 2.77e-05 9.31e-06 3.71e-05 
9 1 1.93318e-06 4.76e-05 3.63e-05 3.77e-05 
14 1 1.57707e-06 2.19e-05 2.53e-05 4.18e-05 
4 1 1.50584e-06 2.74e-05 1.53e-05 4.51e-05 
36 1 1.41427e-06 2.41e-05 9.11e-05 2.6e-06 
2 1 1.60759e-06 4.78e-05 6e-05 7.05e-06 
13 1 1.54654e-06 9.98e-06 7.51e-05 7.45e-06 
35 1 1.62794e-06 1.85e-05 9.28e-05 1.13e-05 
48 1 1.4041e-06 3.42e-05 7.15e-05 1.66e-05 
49 1 1.90265e-06 2.94e-05 7.42e-05 1.71e-05 
12 1 1.9637e-06 1.84e-05 6.13e-05 2.23e-05 
8 1 1.58724e-06 4.19e-05 7.89e-05 2.76e-05 
23 1 1.86196e-06 2.23e-05 7e-05 3.11e-05 
30 1 1.85178e-06 4.25e-05 6.3e-05 3.27e-05 
34 1 1.82126e-06 4.37e-05 8.16e-05 3.63e-05 
17 1 1.80091e-06 5.69e-06 8.33e-05 3.79e-05 
45 1 1.63811e-06 3.07e-05 7.56e-05 3.88e-05 
43 1 1.46515e-06 2.56e-05 7.88e-05 4.02e-05 
1 1 1.51602e-06 1.88e-05 6.79e-05 4.64e-05 
31 1 1.56689e-06 1.15e-05 7.71e-05 4.67e-05 
18 1 1.82126e-06 8.24e-06 8.47e-05 4.73e-05 
26 1 1.73986e-06 7.76e-05 4.17e-05 4.51e-06 
3 1 1.87213e-06 6.93e-05 2.67e-05 1.16e-05 
21 1 1.54654e-06 9.51e-05 4.2e-05 2.29e-05 
32 1 1.42445e-06 7.62e-05 9.27e-06 2.76e-05 
19 1 1.50584e-06 5.76e-05 1.58e-06 4.16e-05 
11 1 1.75003e-06 7.25e-05 7.97e-05 2.49e-06 
47 1 1.71951e-06 9.37e-05 9.03e-05 6.04e-06 
15 1 1.47532e-06 6.06e-05 9.46e-05 7.39e-06 
29 1 1.61776e-06 6.74e-05 5.94e-05 1.09e-05 
40 1 1.78056e-06 5.22e-05 6.84e-05 1.09e-05 
6 1 1.83143e-06 9.5e-05 7.84e-05 1.1e-05 
37 1 1.55672e-06 9.78e-05 9.31e-05 1.45e-05 
42 1 1.78056e-06 7.63e-05 8.69e-05 1.48e-05 
27 1 1.72969e-06 8.89e-05 9.62e-05 1.72e-05 
22 1 1.71951e-06 9.8e-05 8.61e-05 1.77e-05 
10 1 1.88231e-06 6.21e-05 8.13e-05 2.01e-05 
41 1 1.65846e-06 8.11e-05 5.43e-05 2.16e-05 
20 1 1.84161e-06 5.24e-05 9.49e-05 2.31e-05 
39 1 1.68899e-06 8.76e-05 7.05e-05 2.73e-05 
44 1 1.81108e-06 7.9e-05 5.7e-05 3.16e-05 
38 1 1.86196e-06 7.32e-05 6.72e-05 3.37e-05 
25 1 1.80091e-06 6.54e-05 6.52e-05 4.59e-05 
ITEM: TIMESTEP
400
ITEM: NUMBER OF ATOMS
51
ITEM: BOX BOUNDS ff ff ff
0.0000000000000000e+00 1.0000000000000000e-04
0.0000000000000000e+00 1.0000000000000000e-04
0.0000000000000000e+00 5.0000000000000002e-05
ITEM: ATOMS id type diameter x y z 
16 1 1.90343e-06 3.84e-05 2.85e-05 1.97e-06 
7 1 1.40199e-06 1.92e-06 4.12e-05 2.33e-06 
50 1 1.68853e-06 3.2e-05 3.99e-05 1.66e-05 
24 1 1.9239e-06 2e-05 4.31e-05 2.49e-05 
46 1 1.47362e-06 2.53e-05 3.43e-05 2.77e-05 
5 1 1.8625e-06 3.82e-05 2.71e-05 3.29e-05 
28 1 1.51456e-06 2.9e-05 2.67e-05 3.55e-05 
33 1 1.87273e-06 2.77e-05 9.31e-06 3.71e-05 
9 1 1.94437e-06 4.76e-05 3.63e-05 3.77e-05 
14 1 1.58619e-06 2.19e-05 2.53e-05 4.18e-05 
4 1 1.51456e-06 2.74e-05 1.53e-05 4.51e-05 
36 1 1.42246e-06 2.41e-05 9.11e-05 2.6e-06 
2 1 1.61689e-06 4.78e-05 6e-05 7.05e-06 
13 1 1.55549e-06 9.98e-06 7.51e-05 7.45e-06 
35 1 1.63736e-06 1.85e-05 9.28e-05 1.13e-05 
48 1 1.41222e-06 3.42e-05 7.15e-05 1.66e-05 
49 1 1.91367e-06 2.94e-05 7.42e-05 1.71e-05 
12 1 1.57628e-06 1.84756e-05 6.20624e-05 2.24824e-05 
8 1 1.59643e-06 4.19e-05 7.89e-05 2.76e-05 
23 1 1.87273e-06 2.23e-05 7e-05 3.11e-05 
30 1 1.8625e-06 4.25e-05 6.3e-05 3.27e-05 
34 1 1.8318e-06 4.37e-05 8.16e-05 3.63e-05 
17 1 1.81133e-06 5.69e-06 8.33e-05 3.79e-05 
45 1 1.64759e-06 3.07e-05 7.56e-05 3.88e-05 
43 1 1.47362e-06 2.56e-05 7.88e-05 4.02e-05 
1 1 1.52479e-06 1.88e-05 6.79e-05 4.64e-05 
31 1 1.57596e-06 1.15e-05 7.71e-05 4.67e-05 
18 1 1.8318e-06 8.24e-06 8.47e-05 4.73e-05 
51 1 1.55885e-06 1.83253e-05 6.05461e-05 2.21196e-05 
26 1 1.74993e-06 7.76e-05 4.17e-05 4.51e-06 
3 1 1.88296e-06 6.93e-05 2.67e-05 1.16e-05 
21 1 1.55549e-06 9.51e-05 4.2e-05 2.29e-05 
32 1 1.43269e-06 7.62e-05 9.27e-06 2.76e-05 
19 1 1.51456e-06 5.76e-05 1.58e-06 4.16e-05 
11 1 1.76016e-06 7.25e-05 7.97e-05 2.49e-06 
47 1 1.72946e-06 9.37e-05 9.03e-05 6.04e-06 
15 1 1.48386e-06 6.06e-05 9.46e-05 7.39e-06 
29 1 1.62713e-06 6.74e-05 5.94e-05 1.09e-05 
40 1 1.79086e-06 5.22e-05 6.84e-05 1.09e-05 
6 1 1.84203e-06 9.5e-05 7.84e-05 1.1e-05 
37 1 1.56573e-06 9.78e-05 9.31e-05 1.45e-05 
42 1 1.79086e-06 7.63e-05 8.69e-05 1.48e-05 
27 1 1.7397e-06 8.89e-05 9.62e-05 1.72e-05 
22 1 1.72946e-06 9.8e-05 8.61e-05 1.77e-05 
10 1 1.8932e-06 6.21e-05 8.13e-05 2.01e-05 
41 1 1.66806e-06 8.11e-05 5.43e-05 2.16e-05 
20 1 1.85226e-06 5.24e-05 9.49e-05 2.31e-05 
39 1 1.69876e-06 8.76e-05 7.05e-05 2.73e-05 
44 1 1.82156e-06 7.9e-05 5.7e-05 3.16e-05 
38 1 1.87273e-06 7.32e-05 6.72e-05 3.37e-05 
25 1 1.81133e-06 6.54e-05 6.52e-05 4.59e-05 
ITEM: TIMESTEP
500
ITEM: NUMBER OF ATOMS
51
ITEM: BOX BOUNDS ff ff ff
0.0000000000000000e+00 1.0000000000000000e-04
0.0000000000000000e+00 1.0000000000000000e-04
0.0000000000000000e+00 5.0000000000000002e-05
ITEM: ATOMS id type diameter x y z 
16 1 1.91445e-06 3.84e-05 2.85e-05 1.97e-06 
7 1 1.4101e-06 1.92e-06 4.12e-05 2.33e-06 
50 1 1.6983e-06 3.2e-05 3.99e-05 1.66e-05 
24 1 1.93503e-06 2e-05 4.31e-05 2.49e-05 
46 1 1.48215e-06 2.53e-05 3.43e-05 2.77e-05 
5 1 1.87328e-06 3.82e-05 2.71e-05 3.29e-05 
28 1 1.52332e-06 2.9e-05 2.67e-05 3.55e-05 
33 1 1.88357e-06 2.77e-05 9.31e-06 3.71e-05 
9 1 1.95562e-06 4.76e-05 3.63e-05 3.77e-05 
14 1 1.59537e-06 2.19e-05 2.53e-05 4.18e-05 
4 1 1.52332e-06 2.74e-05 1.53e-05 4.51e-05 
36 1 1.43069e-06 2.41e-05 9.11e-05 2.6e-06 
2 1 1.62625e-06 4.78e-05 6e-05 7.05e-06 
13 1 1.56449e-06 9.98e-06 7.51e-05 7.45e-06 
35 1 1.64684e-06 1.85e-05 9.28e-05 1.13e-05 
48 1 1.4204e-06 3.42e-05 7.15e-05 1.66e-05 
49 1 1.92474e-06 2.94e-05 7.42e-05 1.71e-05 
12 1 1.5854e-06 1.84756e-05 6.20624e-05 2.24824e-05 
8 1 1.60567e-06 4.19e-05 7.89e-05 2.76e-05 
23 1 1.88357e-06 2.23e-05 7e-05 3.11e-05 
30 1 1.87328e-06 4.25e-05 6.3e-05 3.27e-05 
34 1 1.8424e-06 4.37e-05 8.16e-05 3.63e-05 
17 1 1.82181e-06 5.69e-06 8.33e-05 3.79e-05 
45 1 1.65713e-06 3.07e-05 7.56e-05 3.88e-05 
43 1 1.48215e-06 2.56e-05 7.88e-05 4.02e-05 
1 1 1.53362e-06 1.88e-05 6.79e-05 4.64e-05 
31 1 1.58508e-06 1.15e-05 7.71e-05 4.67e-05 
18 1 1.8424e-06 8.24e-06 8.47e-05 4.73e-05 
51 1 1.56787e-06 1.83253e-05 6.05461e-05 2.21196e-05 
26 1 1.76006e-06 7.76e-05 4.17e-05 4.51e-06 
3 1 1.89386e-06 6.93e-05 2.67e-05 1.16e-05 
21 1 1.56449e-06 9.51e-05 4.2e-05 2.29e-05 
32 1 1.44098e-06 7.62e-05 9.27e-06 2.76e-05 
19 1 1.52332e-06 5.76e-05 1.58e-06 4.16e-05 
11 1 1.77035e-06 7.25e-05 7.97e-05 2.49e-06 
47 1 1.73947e-06 9.37e-05 9.03e-05 6.04e-06 
15 1 1.49245e-06 6.06e-05 9.46e-05 7.39e-06 
29 1 1.63654e-06 6.74e-05 5.94e-05 1.09e-05 
40 1 1.80123e-06 5.22e-05 6.84e-05 1.09e-05 
6 1 1.85269e-06 9.5e-05 7.84e-05 1.1e-05 
37 1 1.57479e-06 9.78e-05 9.31e-05 1.45e-05 
42 1 1.80123e-06 7.63e-05 8.69e-05 1.48e-05 
27 1 1.74976e-06 8.89e-05 9.62e-05 1.72e-05 
22 1 1.73947e-06 9.8e-05 8.61e-05 1.77e-05 
10 1 1.90415e-06 6.21e-05 8.13e-05 2.01e-05 
41 1 1.67771e-06 8.11e-05 5.43e-05 2.16e-05 
20 1 1.86298e-06 5.24e-05 9.49e-05 2.31e-05 
39 1 1.70859e-06 8.76e-05 7.05e-05 2.73e-05 
44 1 1.83211e-06 7.9e-05 5.7e-05 3.16e-05 
38 1 1.88357e-06 7.32e-05 6.72e-05 3.37e-05 
25 1 1.82181e-06 6.54e-05 6.52e-05 4.59e-05 
ITEM: TIMESTEP
600
ITEM: NUMBER OF ATOMS
51
ITEM: BOX BOUNDS ff ff ff
0.0000000000000000e+00 1.0000000000000000e-04
0.0000000000000000e+00 1.0000000000000000e-04
0.0000000000000000e+00 5.0000000000000002e-05
ITEM: ATOMS id type diameter x y z 
16 1 1.92553e-06 3.84e-05 2.85e-05 1.97e-06 
7 1 1.41826e-06 1.92e-06 4.12e-05 2.33e-06 
50 1 1.70813e-06 3.2e-05 3.99e-05 1.66e-05 
24 1 1.94623e-06 2e-05 4.31e-05 2.49e-05 
46 1 1.49073e-06 2.53e-05 3.43e-05 2.77e-05 
5 1 1.88412e-06 3.82e-05 2.71e-05 3.29e-05 
28 1 1.53214e-06 2.9e-05 2.67e-05 3.55e-05 
33 1 1.89447e-06 2.77e-05 9.31e-06 3.71e-05 
9 1 1.96694e-06 4.76e-05 3.63e-05 3.77e-05 
14 1 1.60461e-06 2.19e-05 2.53e-05 4.18e-05 
4 1 1.53214e-06 2.74e-05 1.53e-05 4.51e-05 
36 1 1.43897e-06 2.41e-05 9.11e-05 2.6e-06 
2 1 1.63566e-06 4.78e-05 6e-05 7.05e-06 
13 1 1.57355e-06 9.98e-06 7.51e-05 7.45e-06 
35 1 1.65637e-06 1.85e-05 9.28e-05 1.13e-05 
48 1 1.42862e-06 3.42e-05 7.15e-05 1.66e-05 
49 1 1.93588e-06 2.94e-05 7.42e-05 1.71e-05 
12 1 1.59457e-06 1.84756e-05 6.20624e-05 2.24824e-05 
8 1 1.61496e-06 4.19e-05 7.89e-05 2.76e-05 
23 1 1.89447e-06 2.23e-05 7e-05 3.11e-05 
30 1 1.88412e-06 4.25e-05 6.3e-05 3.27e-05 
34 1 1.85306e-06 4.37e-05 8.16e-05 3.63e-05 
17 1 1.83236e-06 5.69e-06 8.33e-05 3.79e-05 
45 1 1.66672e-06 3.07e-05 7.56e-05 3.88e-05 
43 1 1.49073e-06 2.56e-05 7.88e-05 4.02e-05 
1 1 1.54249e-06 1.88e-05 6.79e-05 4.64e-05 
31 1 1.59425e-06 1.15e-05 7.71e-05 4.67e-05 
18 1 1.85306e-06 8.24e-06 8.47e-05 4.73e-05 
51 1 1.57694e-06 1.83253e-05 6.05461e-05 2.21196e-05 
26 1 1.77024e-06 7.76e-05 4.17e-05 4.51e-06 
3 1 1.90482e-06 6.93e-05 2.67e-05 1.16e-05 
21 1 1.57355e-06 9.51e-05 4.2e-05 2.29e-05 
32 1 1.44932e-06 7.62e-05 9.27e-06 2.76e-05 
19 1 1.53214e-06 5.76e-05 1.58e-06 4.16e-05 
11 1 1.78059e-06 7.25e-05 7.97e-05 2.49e-06 
47 1 1.74954e-06 9.37e-05 9.03e-05 6.04e-06 
15 1 1.50108e-06 6.06e-05 9.46e-05 7.39e-06 
29 1 1.64601e-06 6.74e-05 5.94e-05 1.09e-05 
40 1 1.81165e-06 5.22e-05 6.84e-05 1.09e-05 
6 1 1.86341e-06 9.5e-05 7.84e-05 1.1e-05 
37 1 1.5839e-06 9.78e-05 9.31e-05 1.45e-05 
42 1 1.81165e-06 7.63e-05 8.69e-05 1.48e-05 
27 1 1.75989e-06 8.89e-05 9.62e-05 1.72e-05 
22 1 1.74954e-06 9.8e-05 8.61e-05 1.77e-05 
10 1 1.91517e-06 6.21e-05 8.13e-05 2.01e-05 
41 1 1.68742e-06 8.11e-05 5.43e-05 2.16e-05 
20 1 1.87377e-06 5.24e-05 9.49e-05 2.31e-05 
39 1 1.71848e-06 8.76e-05 7.05e-05 2.73e-05 
44 1 1.84271e-06 7.9e-05 5.7e-05 3.16e-05 
38 1 1.89447e-06 7.32e-05 6.72e-05 3.37e-05 
25 1 1.83236e-06 6.54e-05 6.52e-05 4.59e-05 
ITEM: TIMESTEP
700
ITEM: NUMBER OF ATOMS
52
ITEM: BOX BOUNDS ff ff ff
0.0000000000000000e+00 1.0000000000000000e-04
0.0000000000000000e+00 1.0000000000000000e-04
0.0000000000000000e+00 5.0000000000000002e-05
ITEM: ATOMS id type diameter x y z 
16 1 1.93667e-06 3.84e-05 2.85e-05 1.97e-06 
7 1 1.42647e-06 1.92e-06 4.12e-05 2.33e-06 
50 1 1.71801e-06 3.2e-05 3.99e-05 1.66e-05 
24 1 1.95749e-06 2e-05 4.31e-05 2.49e-05 
46 1 1.49936e-06 2.53e-05 3.43e-05 2.77e-05 
5 1 1.89502e-06 3.82e-05 2.71e-05 3.29e-05 
28 1 1.54101e-06 2.9e-05 2.67e-05 3.55e-05 
33 1 1.90543e-06 2.77e-05 9.31e-06 3.71e-05 
9 1 1.57887e-06 4.76757e-05 3.70636e-05 3.78827e-05 
14 1 1.61389e-06 2.19e-05 2.53e-05 4.18e-05 
4 1 1.54101e-06 2.74e-05 1.53e-05 4.51e-05 
52 1 1.56141e-06 4.75251e-05 3.55448e-05 3.75193e-05 
36 1 1.4473e-06 2.41e-05 9.11e-05 2.6e-06 
2 1 1.64513e-06 4.78e-05 6e-05 7.05e-06 
13 1 1.58265e-06 9.98e-06 7.51e-05 7.45e-06 
35 1 1.66595e-06 1.85e-05 9.28e-05 1.13e-05 
48 1 1.43688e-06 3.42e-05 7.15e-05 1.66e-05 
49 1 1.94708e-06 2.94e-05 7.42e-05 1.71e-05 
12 1 1.6038e-06 1.84756e-05 6.20624e-05 2.24824e-05 
8 1 1.6243e-06 4.19e-05 7.89e-05 2.76e-05 
23 1 1.90543e-06 2.23e-05 7e-05 3.11e-05 
30 1 1.89502e-06 4.25e-05 6.3e-05 3.27e-05 
34 1 1.86378e-06 4.37e-05 8.16e-05 3.63e-05 
17 1 1.84296e-06 5.69e-06 8.33e-05 3.79e-05 
45 1 1.67636e-06 3.07e-05 7.56e-05 3.88e-05 
43 1 1.49936e-06 2.56e-05 7.88e-05 4.02e-05 
1 1 1.55142e-06 1.88e-05 6.79e-05 4.64e-05 
31 1 1.60348e-06 1.15e-05 7.71e-05 4.67e-05 
18 1 1.86378e-06 8.24e-06 8.47e-05 4.73e-05 
51 1 1.58607e-06 1.83253e-05 6.05461e-05 2.21196e-05 
26 1 1.78049e-06 7.76e-05 4.17e-05 4.51e-06 
3 1 1.91585e-06 6.93e-05 2.67e-05 1.16e-05 
21 1 1.58265e-06 9.51e-05 4.2e-05 2.29e-05 
32 1 1.45771e-06 7.62e-05 9.27e-06 2.76e-05 
19 1 1.54101e-06 5.76e-05 1.58e-06 4.16e-05 
11 1 1.7909e-06 7.25e-05 7.97e-05 2.49e-06 
47 1 1.75966e-06 9.37e-05 9.03e-05 6.04e-06 
15 1 1.50977e-06 6.06e-05 9.46e-05 7.39e-06 
29 1 1.65554e-06 6.74e-05 5.94e-05 1.09e-05 
40 1 1.82214e-06 5.22e-05 6.84e-05 1.09e-05 
6 1 1.8742e-06 9.5e-05 7.84e-05 1.1e-05 
37 1 1.59307e-06 9.78e-05 9.31e-05 1.45e-05 
42 1 1.82214e-06 7.63e-05 8.69e-05 1.48e-05 
27 1 1.77007e-06 8.89e-05 9.62e-05 1.72e-05 
22 1 1.75966e-06 9.8e-05 8.61e-05 1.77e-05 
10 1 1.92626e-06 6.21e-05 8.13e-05 2.01e-05 
41 1 1.69719e-06 8.11e-05 5.43e-05 2.16e-05 
20 1 1.88461e-06 5.24e-05 9.49e-05 2.31e-05 
39 1 1.72843e-06 8.76e-05 7.05e-05 2.73e-05 
44 1 1.85337e-06 7.9e-05 5.7e-05 3.16e-05 
38 1 1.90543e-06 7.32e-05 6.72e-05 3.37e-05 
25 1 1.84296e-06 6.54e-05 6.52e-05 4.59e-05 
ITEM: TIMESTEP
800
ITEM: NUMBER OF ATOMS
52
ITEM: BOX BOUNDS ff ff ff
0.0000000000000000e+00 1.0000000000000000e-04
0.0000000000000000e+00 1.0000000000000000e-04
0.0000000000000000e+00 5.0000000000000002e-05
ITEM: ATOMS id type diameter x y z 
16 1 1.94788e-06 3.84e-05 2.85e-05 1.97e-06 
7 1 1.43473e-06 1.92e-06 4.12e-05 2.33e-06 
50 1 1.72796e-06 3.2e-05 3.99e-05 1.66e-05 
24 1 1.96882e-06 2e-05 4.31e-05 2.49e-05 
46 1 1.50803e-06 2.53e-05 3.43e-05 2.77e-05 
5 1 1.90599e-06 3.82e-05 2.71e-05 3.29e-05 
28 1 1.54992e-06 2.9e-05 2.67e-05 3.55e-05 
33 1 1.91646e-06 2.77e-05 9.31e-06 3.71e-05 
9 1 1.58801e-06 4.76757e-05 3.70636e-05 3.78827e-05 
14 1 1.62323e-06 2.19e-05 2.53e-05 4.18e-05 
4 1 1.54992e-06 2.74e-05 1.53e-05 4.51e-05 
52 1 1.57045e-06 4.75251e-05 3.55448e-05 3.75193e-05 
36 1 1.45567e-06 2.41e-05 9.11e-05 2.6e-06 
2 1 1.65465e-06 4.78e-05 6e-05 7.05e-06 
13 1 1.59181e-06 9.98e-06 7.51e-05 7.45e-06 
35 1 1.67559e-06 1.85e-05 9.28e-05 1.13e-05 
48 1 1.4452e-06 3.42e-05 7.15e-05 1.66e-05 
49 1 1.95835e-06 2.94e-05 7.42e-05 1.71e-05 
12 1 1.61308e-06 1.84775e-05 6.20817e-05 2.2487e-05 
8 1 1.6337e-06 4.19e-05 7.89e-05 2.76e-05 
23 1 1.91646e-06 2.23e-05 7e-05 3.11e-05 
30 1 1.90599e-06 4.25e-05 6.3e-05 3.27e-05 
34 1 1.87457e-06 4.37e-05 8.16e-05 3.63e-05 
17 1 1.85363e-06 5.69e-06 8.33e-05 3.79e-05 
45 1 1.68607e-06 3.07e-05 7.56e-05 3.88e-05 
43 1 1.50803e-06 2.56e-05 7.88e-05 4.02e-05 
1 1 1.5604e-06 1.88e-05 6.79e-05 4.64e-05 
31 1 1.61276e-06 1.15e-05 7.71e-05 4.67e-05 
18 1 1.87457e-06 8.24e-06 8.47e-05 4.73e-05 
51 1 1.59525e-06 1.83233e-05 6.05267e-05 2.2115e-05 
26 1 1.79079e-06 7.76e-05 4.17e-05 4.51e-06 
3 1 1.92693e-06 6.93e-05 2.67e-05 1.16e-05 
21 1 1.59181e-06 9.51e-05 4.2e-05 2.29e-05 
32 1 1.46614e-06 7.62e-05 9.27e-06 2.76e-05 
19 1 1.54992e-06 5.76e-05 1.58e-06 4.16e-05 
11 1 1.80126e-06 7.25e-05 7.97e-05 2.49e-06 
47 1 1.76985e-06 9.37e-05 9.03e-05 6.04e-06 
15 1 1.51851e-06 6.06e-05 9.46e-05 7.39e-06 
29 1 1.66512e-06 6.74e-05 5.94e-05 1.09e-05 
40 1 1.83268e-06 5.22e-05 6.84e-05 1.09e-05 
6 1 1.88504e-06 9.5e-05 7.84e-05 1.1e-05 
37 1 1.60229e-06 9.78e-05 9.31e-05 1.45e-05 
42 1 1.83268e-06 7.63e-05 8.69e-05 1.48e-05 
27 1 1.78032e-06 8.89e-05 9.62e-05 1.72e-05 
22 1 1.76985e-06 9.8e-05 8.61e-05 1.77e-05 
10 1 1.93741e-06 6.21e-05 8.13e-05 2.01e-05 
41 1 1.70701e-06 8.11e-05 5.43e-05 2.16e-05 
20 1 1.89552e-06 5.24e-05 9.49e-05 2.31e-05 
39 1 1.73843e-06 8.76e-05 7.05e-05 2.73e-05 
44 1 1.8641e-06 7.9e-05 5.7e-05 3.16e-05 
38 1 1.91646e-06 7.32e-05 6.72e-05 3.37e-05 
25 1 1.85363e-06 6.54e-05 6.52e-05 4.59e-05 
ITEM: TIMESTEP
900
ITEM: NUMBER OF ATOMS
53
ITEM: BOX BOUNDS ff ff ff
0.0000000000000000e+00 1.0000000000000000e-04
0.0000000000000000e+00 1.0000000000000000e-04
0.0000000000000000e+00 5.0000000000000002e-05
ITEM: ATOMS id type diameter x y z 
16 1 1.95915e-06 3.84e-05 2.85e-05 1.97e-06 
7 1 1.44303e-06 1.92e-06 4.12e-05 2.33e-06 
50 1 1.73796e-06 3.2e-05 3.99e-05 1.66e-05 
24 1 1.48614e-06 2.00488e-05 4.3354e-05 2.5596e-05 
46 1 1.51676e-06 2.53e-05 3.43e-05 2.77e-05 
5 1 1.91702e-06 3.82e-05 2.71e-05 3.29e-05 
28 1 1.55889e-06 2.9e-05 2.67e-05 3.55e-05 
33 1 1.92755e-06 2.77e-05 9.31e-06 3.71e-05 
9 1 1.5972e-06 4.76757e-05 3.70636e-05 3.78827e-05 
14 1 1.63263e-06 2.19e-05 2.53e-05 4.18e-05 
4 1 1.55889e-06 2.74e-05 1.53e-05 4.51e-05 
52 1 1.57954e-06 4.75251e-05 3.55448e-05 3.75193e-05 
53 1 1.64884e-06 1.99459e-05 4.28182e-05 2.41278e-05 
36 1 1.4641e-06 2.41e-05 9.11e-05 2.6e-06 
2 1 1.66422e-06 4.78e-05 6e-05 7.05e-06 
13 1 1.60103e-06 9.98e-06 7.51e-05 7.45e-06 
35 1 1.68529e-06 1.85e-05 9.28e-05 1.13e-05 
48 1 1.45356e-06 3.42e-05 7.15e-05 1.66e-05 
49 1 1.96968e-06 2.94e-05 7.42e-05 1.71e-05 
12 1 1.62242e-06 1.84775e-05 6.20817e-05 2.2487e-05 
8 1 1.64316e-06 4.19e-05 7.89e-05 2.76e-05 
23 1 1.92755e-06 2.23e-05 7e-05 3.11e-05 
30 1 1.91702e-06 4.25e-05 6.3e-05 3.27e-05 
34 1 1.88542e-06 4.37e-05 8.16e-05 3.63e-05 
17 1 1.86435e-06 5.69e-06 8.33e-05 3.79e-05 
45 1 1.69582e-06 3.07e-05 7.56e-05 3.88e-05 
43 1 1.51676e-06 2.56e-05 7.88e-05 4.02e-05 
1 1 1.56943e-06 1.88e-05 6.79e-05 4.64e-05 
31 1 1.62209e-06 1.15e-05 7.71e-05 4.67e-05 
18 1 1.88542e-06 8.24e-06 8.47e-05 4.73e-05 
51 1 1.60448e-06 1.83233e-05 6.05267e-05 2.2115e-05 
26 1 1.80115e-06 7.76e-05 4.17e-05 4.51e-06 
3 1 1.93808e-06 6.93e-05 2.67e-05 1.16e-05 
21 1 1.60103e-06 9.51e-05 4.2e-05 2.29e-05 
32 1 1.47463e-06 7.62e-05 9.27e-06 2.76e-05 
19 1 1.55889e-06 5.76e-05 1.58e-06 4.16e-05 
11 1 1.81169e-06 7.25e-05 7.97e-05 2.49e-06 
47 1 1.78009e-06 9.37e-05 9.03e-05 6.04e-06 
15 1 1.52729e-06 6.06e-05 9.46e-05 7.39e-06 
29 1 1.67476e-06 6.74e-05 5.94e-05 1.09e-05 
40 1 1.84329e-06 5.22e-05 6.84e-05 1.09e-05 
6 1 1.89595e-06 9.5e-05 7.84e-05 1.1e-05 
37 1 1.61156e-06 9.78e-05 9.31e-05 1.45e-05 
42 1 1.84329e-06 7.63e-05 8.69e-05 1.48e-05 
27 1 1.79062e-06 8.89e-05 9.62e-05 1.72e-05 
22 1 1.78009e-06 9.8e-05 8.61e-05 1.77e-05 
10 1 1.94862e-06 6.21e-05 8.13e-05 2.01e-05 
41 1 1.71689e-06 8.11e-05 5.43e-05 2.16e-05 
20 1 1.90649e-06 5.24e-05 9.49e-05 2.31e-05 
39 1 1.74849e-06 8.76e-05 7.05e-05 2.73e-05 
44 1 1.87489e-06 7.9e-05 5.7e-05 3.16e-05 
38 1 1.92755e-06 7.32e-05 6.72e-05 3.37e-05 
25 1 1.86435e-06 6.54e-05 6.52e-05 4.59e-05 
ITEM: TIMESTEP
1000
ITEM: NUMBER OF ATOMS
54
ITEM: BOX BOUNDS ff ff ff
0.0000000000000000e+00 1.0000000000000000e-04
0.0000000000000000e+00 1.0000000000000000e-04
0.0000000000000000e+00 5.0000000000000002e-05
ITEM: ATOMS id type diameter x y z 
16 1 1.97049e-06 3.84e-05 2.85e-05 1.97e-06 
7 1 1.45138e-06 1.92e-06 4.12e-05 2.33e-06 
50 1 1.74801e-06 3.2e-05 3.99e-05 1.66e-05 
53 1 1.65838e-06 1.99459e-05 4.28182e-05 2.41278e-05 
24 1 1.49474e-06 2.00488e-05 4.3354e-05 2.5596e-05 
46 1 1.52554e-06 2.53e-05 3.43e-05 2.77e-05 
5 1 1.92811e-06 3.82e-05 2.71e-05 3.29e-05 
28 1 1.56792e-06 2.9e-05 2.67e-05 3.55e-05 
33 1 1.93871e-06 2.77e-05 9.31e-06 3.71e-05 
52 1 1.58868e-06 4.75251e-05 3.55448e-05 3.75193e-05 
9 1 1.60644e-06 4.76757e-05 3.70636e-05 3.78827e-05 
14 1 1.64207e-06 2.19e-05 2.53e-05 4.18e-05 
4 1 1.56792e-06 2.74e-05 1.53e-05 4.51e-05 
36 1 1.47257e-06 2.41e-05 9.11e-05 2.6e-06 
2 1 1.67386e-06 4.78e-05 6e-05 7.05e-06 
13 1 1.61029e-06 9.98e-06 7.51e-05 7.45e-06 
35 1 1.69504e-06 1.85e-05 9.28e-05 1.13e-05 
48 1 1.46198e-06 3.42e-05 7.15e-05 1.66e-05 
54 1 1.5636e-06 2.9325e-05 7.34438e-05 1.69191e-05 
49 1 1.58108e-06 2.94758e-05 7.49647e-05 1.72829e-05 
51 1 1.61376e-06 1.83233e-05 6.05267e-05 2.2115e-05 
12 1 1.63181e-06 1.84775e-05 6.20817e-05 2.2487e-05 
8 1 1.65267e-06 4.19e-05 7.89e-05 2.76e-05 
23 1 1.93871e-06 2.23e-05 7e-05 3.11e-05 
30 1 1.92811e-06 4.25e-05 6.3e-05 3.27e-05 
34 1 1.89633e-06 4.37e-05 8.16e-05 3.63e-05 
17 1 1.87514e-06 5.69e-06 8.33e-05 3.79e-05 
45 1 1.70564e-06 3.07e-05 7.56e-05 3.88e-05 
43 1 1.52554e-06 2.56e-05 7.88e-05 4.02e-05 
1 1 1.57851e-06 1.88e-05 6.79e-05 4.64e-05 
31 1 1.63148e-06 1.15e-05 7.71e-05 4.67e-05 
18 1 1.89633e-06 8.24e-06 8.47e-05 4.73e-05 
26 1 1.81158e-06 7.76e-05 4.17e-05 4.51e-06 
3 1 1.9493e-06 6.93e-05 2.67e-05 1.16e-05 
21 1 1.61029e-06 9.51e-05 4.2e-05 2.29e-05 
32 1 1.48316e-06 7.62e-05 9.27e-06 2.76e-05 
19 1 1.56792e-06 5.76e-05 1.58e-06 4.16e-05 
11 1 1.82217e-06 7.25e-05 7.97e-05 2.49e-06 
47 1 1.79039e-06 9.37e-05 9.03e-05 6.04e-06 
15 1 1.53613e-06 6.06e-05 9.46e-05 7.39e-06 
29 1 1.68445e-06 6.74e-05 5.94e-05 1.09e-05 
40 1 1.85395e-06 5.22e-05 6.84e-05 1.09e-05 
6 1 1.90692e-06 9.5e-05 7.84e-05 1.1e-05 
37 1 1.62089e-06 9.78e-05 9.31e-05 1.45e-05 
42 1 1.85395e-06 7.63e-05 8.69e-05 1.48e-05 
27 1 1.80098e-06 8.89e-05 9.62e-05 1.72e-05 
22 1 1.79039e-06 9.8e-05 8.61e-05 1.77e-05 
10 1 1.95989e-06 6.21e-05 8.13e-05 2.01e-05 
41 1 1.72683e-06 8.11e-05 5.43e-05 2.16e-05 
20 1 1.91752e-06 5.24e-05 9.49e-05 2.31e-05 
39 1 1.75861e-06 8.76e-05 7.05e-05 2.73e-05 
44 1 1.88574e-06 7.9e-05 5.7e-05 3.16e-05 
38 1 1.93871e-06 7.32e-05 6.72e-05 3.37e-05 
25 1 1.87514e-06 6.54e-05 6.52e-05 4.59e-05 
ITEM: TIMESTEP
1100
ITEM: NUMBER OF ATOMS
55
ITEM: BOX BOUNDS ff ff ff
0.0000000000000000e+00 1.0000000000000000e-04
0.0000000000000000e+00 1.0000000000000000e-04
0.0000000000000000e+00 5.0000000000000002e-05
ITEM: ATOMS id type diameter x y z 
16 1 1.58173e-06 3.84758e-05 2.9265e-05 2.15302e-06 
7 1 1.45978e-06 1.92e-06 4.12e-05 2.33e-06 
50 1 1.75813e-06 3.2e-05 3.99e-05 1.66e-05 
55 1 1.56423e-06 3.8325e-05 2.77435e-05 1.789e-06 
53 1 1.66798e-06 1.99459e-05 4.28182e-05 2.41278e-05 
24 1 1.50339e-06 2.00488e-05 4.3354e-05 2.5596e-05 
46 1 1.53437e-06 2.53e-05 3.43e-05 2.77e-05 
5 1 1.93927e-06 3.82e-05 2.71e-05 3.29e-05 
28 1 1.57699e-06 2.9e-05 2.67e-05 3.55e-05 
33 1 1.94993e-06 2.77e-05 9.31e-06 3.71e-05 
52 1 1.59787e-06 4.75232e-05 3.55255e-05 3.75147e-05 
9 1 1.61574e-06 4.76776e-05 3.7083e-05 3.78873e-05 
14 1 1.65158e-06 2.19e-05 2.53e-05 4.18e-05 
4 1 1.57699e-06 2.74e-05 1.53e-05 4.51e-05 
36 1 1.48109e-06 2.41e-05 9.11e-05 2.6e-06 
2 1 1.68354e-06 4.78e-05 6e-05 7.05e-06 
13 1 1.61961e-06 9.98e-06 7.51e-05 7.45e-06 
35 1 1.70485e-06 1.85e-05 9.28e-05 1.13e-05 
48 1 1.47044e-06 3.42e-05 7.15e-05 1.66e-05 
54 1 1.57264e-06 2.9325e-05 7.34438e-05 1.69191e-05 
49 1 1.59023e-06 2.94758e-05 7.49647e-05 1.72829e-05 
51 1 1.6231e-06 1.83233e-05 6.05267e-05 2.2115e-05 
12 1 1.64125e-06 1.84775e-05 6.20817e-05 2.2487e-05 
8 1 1.66223e-06 4.19e-05 7.89e-05 2.76e-05 
23 1 1.94993e-06 2.23e-05 7e-05 3.11e-05 
30 1 1.93927e-06 4.25e-05 6.3e-05 3.27e-05 
34 1 1.9073e-06 4.37e-05 8.16e-05 3.63e-05 
17 1 1.88599e-06 5.69e-06 8.33e-05 3.79e-05 
45 1 1.71551e-06 3.07e-05 7.56e-05 3.88e-05 
43 1 1.53437e-06 2.56e-05 7.88e-05 4.02e-05 
1 1 1.58764e-06 1.88e-05 6.79e-05 4.64e-05 
31 1 1.64092e-06 1.15e-05 7.71e-05 4.67e-05 
18 1 1.9073e-06 8.24e-06 8.47e-05 4.73e-05 
26 1 1.82206e-06 7.76e-05 4.17e-05 4.51e-06 
3 1 1.96058e-06 6.93e-05 2.67e-05 1.16e-05 
21 1 1.61961e-06 9.51e-05 4.2e-05 2.29e-05 
32 1 1.49175e-06 7.62e-05 9.27e-06 2.76e-05 
19 1 1.57699e-06 5.76e-05 1.58e-06 4.16e-05 
11 1 1.83272e-06 7.25e-05 7.97e-05 2.49e-06 
47 1 1.80075e-06 9.37e-05 9.03e-05 6.04e-06 
15 1 1.54502e-06 6.06e-05 9.46e-05 7.39e-06 
29 1 1.6942e-06 6.74e-05 5.94e-05 1.09e-05 