 NUFEB Simulation

     100 atoms 
     2 atom types 
     4 nutrients 

  0.0e-4   1.00e-04  xlo xhi 
  0.0e-4   1.00e-04  ylo yhi 
  0.0e-4   1.00e-04  zlo zhi 

 Atoms 

     1 1 1.55e-06  370 7.84e-05 5.22e-05 2.10e-05 1.55e-06 
     2 1 1.92e-06  370 8.77e-05 9.05e-05 7.96e-06 1.92e-06 
     3 1 1.67e-06  370 2.98e-05 3.84e-05 4.54e-05 1.67e-06 
     4 1 1.75e-06  370 4.53e-05 1.01e-05 8.82e-05 1.75e-06 
     5 1 1.78e-06  370 5.41e-05 5.03e-06 3.20e-05 1.78e-06 
     6 1 1.51e-06  370 2.18e-05 6.66e-06 8.84e-05 1.51e-06 
     7 1 1.65e-06  370 4.18e-05 4.40e-05 9.02e-05 1.65e-06 
     8 1 1.60e-06  370 1.14e-05 2.20e-05 3.43e-05 1.60e-06 
     9 1 1.81e-06  370 3.91e-05 8.62e-05 6.53e-05 1.81e-06 
     10 1 1.85e-06  370 7.59e-05 9.60e-05 8.08e-05 1.85e-06 
     11 1 1.38e-06  370 9.41e-05 7.60e-05 1.35e-05 1.38e-06 
     12 1 1.69e-06  370 9.83e-06 8.64e-05 6.18e-05 1.69e-06 
     13 1 1.75e-06  370 1.36e-05 6.99e-05 9.20e-05 1.75e-06 
     14 1 1.64e-06  370 2.80e-06 7.80e-06 3.52e-06 1.64e-06 
     15 1 1.39e-06  370 3.23e-05 8.70e-06 6.76e-05 1.39e-06 
     16 1 1.64e-06  370 1.53e-05 8.67e-05 5.89e-05 1.64e-06 
     17 1 1.79e-06  370 1.70e-05 6.51e-05 5.17e-05 1.79e-06 
     18 1 1.68e-06  370 8.11e-05 1.41e-05 4.94e-05 1.68e-06 
     19 1 1.79e-06  370 2.04e-05 8.29e-05 1.34e-05 1.79e-06 
     20 1 1.87e-06  370 3.06e-06 5.51e-05 6.68e-05 1.87e-06 
     21 1 1.73e-06  370 1.91e-05 5.95e-05 5.43e-05 1.73e-06 
     22 1 1.89e-06  370 1.95e-05 7.72e-05 3.00e-06 1.89e-06 
     23 1 1.78e-06  370 9.05e-05 1.52e-05 2.44e-05 1.78e-06 
     24 1 1.91e-06  370 8.45e-06 8.89e-05 3.64e-05 1.91e-06 
     25 1 1.65e-06  370 7.46e-06 7.23e-05 4.70e-05 1.65e-06 
     26 1 1.89e-06  370 2.43e-05 2.46e-05 7.56e-05 1.89e-06 
     27 1 1.62e-06  370 3.85e-05 3.31e-05 2.43e-05 1.62e-06 
     28 1 1.72e-06  370 7.95e-05 2.26e-05 1.12e-05 1.72e-06 
     29 1 1.64e-06  370 2.71e-05 5.11e-05 1.83e-05 1.64e-06 
     30 1 1.93e-06  370 8.71e-05 6.30e-05 8.63e-05 1.93e-06 
     31 1 1.42e-06  370 9.15e-05 3.64e-05 4.83e-05 1.42e-06 
     32 1 1.77e-06  370 4.58e-06 5.88e-05 2.54e-05 1.77e-06 
     33 1 1.61e-06  370 1.65e-05 3.52e-05 9.56e-05 1.61e-06 
     34 1 1.92e-06  370 5.42e-05 6.88e-06 7.65e-05 1.92e-06 
     35 1 1.69e-06  370 8.29e-05 8.46e-05 9.05e-05 1.69e-06 
     36 1 1.85e-06  370 4.57e-05 8.94e-05 4.47e-05 1.85e-06 
     37 1 1.79e-06  370 4.70e-05 9.05e-05 6.73e-05 1.79e-06 
     38 1 1.86e-06  370 6.64e-05 4.31e-05 7.70e-05 1.86e-06 
     39 1 1.93e-06  370 1.75e-05 3.20e-05 7.34e-05 1.93e-06 
     40 1 1.58e-06  370 4.88e-05 9.68e-05 6.08e-05 1.58e-06 
     41 1 1.69e-06  370 2.92e-05 9.42e-05 4.85e-05 1.69e-06 
     42 1 1.91e-06  370 5.80e-06 1.26e-05 5.72e-05 1.91e-06 
     43 1 1.63e-06  370 2.78e-05 8.29e-05 8.34e-05 1.63e-06 
     44 1 1.76e-06  370 2.99e-05 4.23e-05 9.25e-05 1.76e-06 
     45 1 1.68e-06  370 9.16e-05 9.36e-05 5.67e-05 1.68e-06 
     46 1 1.59e-06  370 4.70e-05 9.12e-05 9.46e-05 1.59e-06 
     47 1 1.47e-06  370 4.54e-05 6.75e-05 6.80e-05 1.47e-06 
     48 1 1.72e-06  370 8.87e-05 4.58e-05 3.39e-05 1.72e-06 
     49 1 1.93e-06  370 2.37e-05 5.70e-05 4.28e-05 1.93e-06 
     50 1 1.93e-06  370 3.53e-05 6.78e-05 8.79e-05 1.93e-06 
     51 1 1.64e-06  370 8.08e-05 7.38e-05 9.64e-05 1.64e-06 
     52 1 1.93e-06  370 9.76e-05 7.12e-05 3.44e-05 1.93e-06 
     53 1 1.78e-06  370 3.22e-05 8.88e-05 7.32e-05 1.78e-06 
     54 1 1.67e-06  370 2.59e-05 9.06e-05 6.06e-05 1.67e-06 
     55 1 1.72e-06  370 6.97e-05 4.47e-06 2.58e-05 1.72e-06 
     56 1 1.80e-06  370 8.76e-06 3.56e-05 6.93e-05 1.80e-06 
     57 1 1.61e-06  370 3.38e-05 4.99e-06 1.33e-05 1.61e-06 
     58 1 1.93e-06  370 4.30e-05 3.50e-05 4.83e-05 1.93e-06 
     59 1 1.87e-06  370 5.07e-06 8.39e-05 5.61e-05 1.87e-06 
     60 1 1.84e-06  370 7.07e-05 6.56e-05 9.26e-05 1.84e-06 
     61 1 1.82e-06  370 8.51e-05 4.00e-05 7.88e-05 1.82e-06 
     62 1 1.65e-06  370 2.05e-05 7.70e-05 5.75e-05 1.65e-06 
     63 1 1.63e-06  370 8.38e-05 9.06e-05 6.38e-05 1.63e-06 
     64 1 1.76e-06  370 3.79e-05 8.67e-05 7.54e-05 1.76e-06 
     65 1 1.42e-06  370 9.49e-05 7.08e-05 4.91e-05 1.42e-06 
     66 1 1.57e-06  370 5.85e-05 1.85e-05 7.03e-05 1.57e-06 
     67 1 1.47e-06  370 4.10e-05 4.89e-05 1.76e-05 1.47e-06 
     68 1 1.93e-06  370 1.90e-05 2.76e-05 4.92e-05 1.93e-06 
     69 1 1.52e-06  370 1.74e-05 3.48e-05 2.96e-05 1.52e-06 
     70 1 1.90e-06  370 5.79e-05 3.64e-05 8.48e-05 1.90e-06 
     71 1 1.69e-06  370 5.64e-05 8.92e-05 7.72e-05 1.69e-06 
     72 1 1.50e-06  370 3.71e-05 8.20e-05 2.88e-05 1.50e-06 
     73 1 1.71e-06  370 3.75e-05 2.81e-05 3.36e-05 1.71e-06 
     74 1 1.61e-06  370 4.74e-05 4.53e-05 3.70e-05 1.61e-06 
     75 1 1.75e-06  370 5.15e-05 3.51e-06 5.28e-05 1.75e-06 
     76 1 1.51e-06  370 1.53e-05 3.43e-05 8.80e-05 1.51e-06 
     77 1 1.46e-06  370 1.60e-05 3.06e-05 2.07e-05 1.46e-06 
     78 1 1.54e-06  370 2.86e-05 5.73e-05 8.16e-05 1.54e-06 
     79 1 1.69e-06  370 1.68e-05 4.04e-05 9.17e-05 1.69e-06 
     80 1 1.74e-06  370 5.79e-06 4.72e-05 3.37e-05 1.74e-06 
     81 1 1.80e-06  370 7.22e-05 9.54e-05 3.16e-05 1.80e-06 
     82 1 1.68e-06  370 6.42e-05 3.56e-05 5.35e-05 1.68e-06 
     83 1 1.69e-06  370 5.21e-05 3.32e-05 9.74e-05 1.69e-06 
     84 1 1.90e-06  370 3.89e-05 4.15e-05 1.91e-05 1.90e-06 
     85 1 1.44e-06  370 6.25e-05 8.56e-05 8.39e-05 1.44e-06 
     86 1 1.75e-06  370 6.44e-05 2.36e-05 9.76e-06 1.75e-06 
     87 1 1.85e-06  370 7.04e-05 7.65e-05 6.50e-05 1.85e-06 
     88 1 1.38e-06  370 3.93e-05 8.61e-05 5.63e-05 1.38e-06 
     89 1 1.50e-06  370 6.71e-05 6.75e-05 3.43e-05 1.50e-06 
     90 1 1.80e-06  370 5.70e-06 3.08e-05 2.56e-05 1.80e-06 
     91 1 1.43e-06  370 6.71e-06 5.02e-05 3.57e-05 1.43e-06 
     92 1 1.41e-06  370 4.33e-05 1.67e-05 2.92e-05 1.41e-06 
     93 1 1.46e-06  370 5.00e-05 5.40e-05 8.53e-05 1.46e-06 
     94 1 1.67e-06  370 5.83e-05 6.95e-05 1.81e-05 1.67e-06 
     95 1 1.92e-06  370 2.48e-05 1.20e-05 6.56e-05 1.92e-06 
     96 1 1.75e-06  370 7.67e-06 6.97e-05 8.61e-05 1.75e-06 
     97 1 1.58e-06  370 2.45e-05 7.62e-05 5.78e-05 1.58e-06 
     98 1 1.65e-06  370 9.39e-05 3.82e-05 9.78e-05 1.65e-06 
     99 1 1.91e-06  370 1.21e-05 6.19e-05 3.42e-05 1.91e-06 
     100 1 1.66e-06  370 2.17e-05 2.01e-05 8.51e-05 1.66e-06 

 Nutrients 

     1 sub g nn nn nn 1.00e-01 1.00e-01 
     2 o2 l nn nn nd 9.00e-03 9.00e-03 
     3 suc l nn nn nn 3.42e-20 3.42e-20 
     4 co2 l nn nn nd 2.99e-02 2.99e-02 

 Type Name 

     1 cyano  
     2 ecw  

 Diffusion Coeffs 

     sub 0 
     o2 2.3e-09 
     suc 5.2e-10 
     co2 1.9e-09 

 Growth Rate 

     cyano 1.89e-05 
     ecw 6.71e-05 

 Ks 

     cyano 0.00035 0.0002 0.01 0.000138 
     ecw 0 0.001 3.6 0.05 

 Yield 

     cyano 0.55 
     ecw 0.43 

 Maintenance 

     cyano 0 
     ecw 9.5e-07 

 Decay 

     cyano 0 
     ecw 0 



