LAMMPS (20 Nov 2019)
Reading data file ...
  orthogonal box = (0 0 0) to (0.0001 0.0001 0.0001)
  2 by 4 by 4 MPI processor grid
  reading atoms ...
  100 atoms
  4 nutrients
Lattice spacing in x,y,z = 100 100 100
100 atoms in group CYANO
0 atoms in group ECW
Model is defined as a closed system. 
Neighbor list info ...
  update every 1 steps, delay 0 steps, check yes
  max neighbors/atom: 5000, page size: 100000
  master list distance cutoff = 2.43e-06
  ghost atom cutoff = 2.43e-06
  binsize = 1.215e-06, bins = 83 83 83
  1 neighbor lists, perpetual/occasional/extra = 1 0 0
  (1) pair gran/hooke/history, perpetual
      attributes: half, newton off, size, history
      pair build: half/size/bin/newtoff
      stencil: half/bin/3d/newtoff
      bin: standard
Setting up Verlet run ...
  Unit style    : lj
  Current step  : 0
  Time step     : 10
Per MPI rank memory allocation (min/avg/max) = 5.856 | 8.991 | 10.91 Mbytes
Step CPU Atoms c_myNtypes[1] c_myNtypes[2] c_myMass[1] c_myMass[2] c_myCon[1] c_myCon[2] c_myCon[3] c_myCon[4] 
       0            0      100          100            0 9.7658152e-14            0          0.1        0.009     3.42e-20       0.0299 
number of iterations: 124740 
     100    1.3483541      100          100            0 9.9493182e-14            0          0.1 0.0090006954 6.886742e-06  0.029898842 
number of iterations: 107469 
     200    2.4647729      100          100            0 1.0136269e-13            0          0.1 0.0090007084 1.8604782e-05  0.029898821 
number of iterations: 95999 
     300     3.535732      100          100            0 1.0326733e-13            0          0.1 0.0090007217 3.6688795e-05  0.029898798 
number of iterations: 85535 
     400    4.4475429      107          107            0 1.0520776e-13            0          0.1 0.0090007353 6.4649769e-05  0.029898776 
number of iterations: 75568 
     500    5.2590498      110          110            0 1.0718465e-13            0          0.1 0.0090007491 0.0001080793  0.029898753 
number of iterations: 65795 
     600    6.0104072      113          113            0 1.0919869e-13            0          0.1 0.0090007632 0.00017607676  0.029898729 
number of iterations: 55985 
     700    6.6414885      117          117            0 1.1125057e-13            0          0.1 0.0090007775 0.00028393681  0.029898705 
number of iterations: 46566 
     800    7.1732217      117          117            0  1.13341e-13            0          0.1 0.0090007921 0.00045339981  0.029898681 
number of iterations: 38220 
     900    7.6223682      119          119            0 1.1547072e-13            0          0.1  0.009000807 0.00070831057  0.029898656 
number of iterations: 30169 
    1000    7.9958827      120          120            0 1.1764046e-13            0          0.1 0.0090008222 0.0010887357  0.029898631 
number of iterations: 21831 
    1100    8.2888159      123          123            0 1.1985096e-13            0          0.1 0.0090008376 0.0016696798  0.029898605 
number of iterations: 14501 
    1200    8.5054482      124          124            0  1.22103e-13            0          0.1 0.0090008534  0.002642689  0.029898579 
number of iterations: 13728 
    1300    8.7018644      125          125            0 1.2439736e-13            0          0.1 0.0090008685 0.0038903602  0.029898554 
number of iterations: 16844 
    1400    8.9280394      126          126            0 1.2673483e-13            0          0.1 0.0090008912 0.0053809163  0.029898516 
number of iterations: 14728 
    1500    9.1309935      129          129            0 1.2911622e-13            0          0.1  0.009000908 0.0070075161  0.029898488 
number of iterations: 14892 
    1600     9.334365      132          132            0 1.3154235e-13            0          0.1  0.009000928 0.0087508754  0.029898455 
number of iterations: 14855 
    1700    9.5368169      135          135            0 1.3401408e-13            0          0.1 0.0090009454  0.010604019  0.029898426 
number of iterations: 14914 
    1800    9.7389967      136          136            0 1.3653225e-13            0          0.1 0.0090009632   0.01256522  0.029898396 
number of iterations: 14975 
    1900    9.9386751      138          138            0 1.3909774e-13            0          0.1 0.0090009813   0.01463373  0.029898366 
number of iterations: 15036 
    2000     10.14136      143          143            0 1.4171143e-13            0          0.1 0.0090009997  0.016809629  0.029898336 
number of iterations: 15097 
    2100    10.343329      144          144            0 1.4437424e-13            0          0.1 0.0090010185   0.01909354  0.029898304 
number of iterations: 15592 
    2200    10.548741      145          145            0 1.4708708e-13            0          0.1 0.0090010455  0.021494762  0.029898259 
number of iterations: 15229 
    2300    10.749551      149          149            0 1.498509e-13            0          0.1 0.0090010652  0.024006599  0.029898226 
number of iterations: 15289 
    2400    10.952307      149          149            0 1.5266665e-13            0          0.1 0.0090010852  0.026630201  0.029898193 
number of iterations: 15350 
    2500    11.152028      155          155            0 1.555353e-13            0          0.1 0.0090011056  0.029367429  0.029898159 
number of iterations: 15410 
    2600    11.352213      158          158            0 1.5845786e-13            0          0.1 0.0090011264  0.032219963  0.029898125 
number of iterations: 15471 
    2700    11.552944      161          161            0 1.6143534e-13            0          0.1 0.0090011476  0.035190114  0.029898089 
number of iterations: 15516 
    2800    11.754941      162          162            0 1.6446877e-13            0          0.1  0.009001169  0.038279796  0.029898054 
number of iterations: 15593 
    2900    11.956425      166          166            0 1.6755919e-13            0          0.1  0.009001191  0.041491857  0.029898017 
number of iterations: 15654 
    3000    12.159433      170          170            0 1.7070768e-13            0          0.1 0.0090012134  0.044821781   0.02989798 
number of iterations: 15715 
    3100    12.362285      172          172            0 1.7391534e-13            0          0.1 0.0090012362  0.048259648  0.029897942 
number of iterations: 15776 
    3200    12.567125      173          173            0 1.7718327e-13            0          0.1 0.0090012594  0.051807049  0.029897903 
number of iterations: 15837 
    3300    12.771048      183          183            0 1.805126e-13            0          0.1 0.0090012831  0.055464871  0.029897864 
number of iterations: 15898 
    3400    12.974757      189          189            0 1.839045e-13            0          0.1 0.0090013072  0.059234314  0.029897823 
number of iterations: 15959 
    3500    13.215479      192          192            0 1.8736012e-13            0          0.1 0.0090013318  0.063116968  0.029897783 
number of iterations: 16020 
    3600    13.424627      196          196            0 1.9088068e-13            0          0.1 0.0090013564  0.067111697  0.029897741 
number of iterations: 16080 
    3700    13.634129      197          197            0 1.944674e-13            0          0.1 0.0090013819  0.071222445  0.029897699 
number of iterations: 16141 
    3800    13.840593      200          200            0 1.981215e-13            0          0.1 0.0090014079  0.075450374  0.029897656 
number of iterations: 16202 
    3900    14.049285      202          202            0 2.0184427e-13            0          0.1 0.0090014343  0.079797851  0.029897612 
number of iterations: 16263 
    4000    14.256581      204          204            0  2.05637e-13            0          0.1 0.0090014613    0.0842658  0.029897567 
number of iterations: 16324 
    4100    14.464031      206          206            0 2.0950098e-13            0          0.1 0.0090014888  0.088856435  0.029897521 
number of iterations: 16385 
    4200    14.672545      207          207            0 2.1343758e-13            0          0.1 0.0090015167  0.093571937  0.029897475 
number of iterations: 16446 
    4300    14.882028      207          207            0 2.1744814e-13            0          0.1 0.0090015452  0.098413655  0.029897427 
number of iterations: 16507 
    4400     15.10975      212          212            0 2.2153407e-13            0          0.1 0.0090015743   0.10338363  0.029897379 
number of iterations: 17174 
    4500    15.327124      215          215            0 2.2569677e-13            0          0.1 0.0090016041   0.10861978  0.029897329 
number of iterations: 16640 
    4600    15.536339      217          217            0 2.2993768e-13            0          0.1 0.0090016342   0.11399535  0.029897279 
number of iterations: 16702 
    4700    15.818925      220          220            0 2.3425829e-13            0          0.1 0.0090016649   0.11951244  0.029897228 
number of iterations: 16762 
    4800    16.040184      227          227            0 2.3866008e-13            0          0.1 0.0090016962   0.12517312  0.029897176 
number of iterations: 16823 
    4900    16.252977      231          231            0 2.4314459e-13            0          0.1 0.0090017284   0.13097952  0.029897122 
number of iterations: 16884 
    5000    16.467212      234          234            0 2.4771336e-13            0          0.1 0.0090017609   0.13693434  0.029897068 
number of iterations: 16945 
    5100    16.681439      244          244            0 2.5236797e-13            0          0.1  0.009001794    0.1430234  0.029897013 
number of iterations: 16716 
    5200    16.894101      251          251            0 2.5711005e-13            0          0.1 0.0090018196   0.14922687   0.02989697 
number of iterations: 17061 
    5300     17.10804      257          257            0 2.6194124e-13            0          0.1 0.0090018538    0.1555469  0.029896913 
number of iterations: 17122 
    5400    17.323932      260          260            0 2.668632e-13            0          0.1 0.0090018889   0.16198568  0.029896855 
number of iterations: 17183 
    5500    17.541375      262          262            0 2.7187765e-13            0          0.1 0.0090019244   0.16854546  0.029896796 
number of iterations: 17244 
    5600    17.760131      268          268            0 2.7698632e-13            0          0.1 0.0090019606   0.17522849  0.029896736 
number of iterations: 17305 
    5700    17.979406      277          277            0 2.8219099e-13            0          0.1 0.0090019974    0.1820371  0.029896674 
number of iterations: 17365 
    5800    18.201824      286          286            0 2.8749345e-13            0          0.1 0.0090020349   0.18897365  0.029896612 
number of iterations: 17426 
    5900    18.423493      292          292            0 2.9289555e-13            0          0.1 0.0090020732   0.19604054  0.029896548 
number of iterations: 17325 
    6000    18.649919      293          293            0 2.9839915e-13            0          0.1 0.0090021118   0.20324022  0.029896484 
number of iterations: 17545 
    6100    18.888968      296          296            0 3.0400617e-13            0          0.1 0.0090021515   0.21057518  0.029896418 
number of iterations: 17605 
    6200    19.110197      304          304            0 3.0971855e-13            0          0.1 0.0090021919   0.21804798   0.02989635 
number of iterations: 17666 
    6300    19.333215      309          309            0 3.1553826e-13            0          0.1 0.0090022331   0.22566118  0.029896282 
number of iterations: 17727 
    6400    19.557035      318          318            0 3.2146733e-13            0          0.1 0.0090022751   0.23341881  0.029896212 
number of iterations: 17735 
    6500    19.780015      326          326            0 3.2750781e-13            0          0.1 0.0090023148   0.24132221  0.029896146 
number of iterations: 17847 
    6600    20.006461      336          336            0 3.3366179e-13            0          0.1 0.0090023583   0.24937412  0.029896073 
number of iterations: 17908 
    6700    20.233131      344          344            0 3.3993141e-13            0          0.1 0.0090024027   0.25757732  0.029895999 
number of iterations: 17969 
    6800    20.460196      349          349            0 3.4631883e-13            0          0.1 0.0090024478   0.26593466  0.029895924 
number of iterations: 18161 
    6900    20.689934      356          356            0 3.5282627e-13            0          0.1 0.0090024934   0.27444904  0.029895848 
number of iterations: 18093 
    7000    20.918569      358          358            0  3.59456e-13            0          0.1 0.0090025402   0.28312341   0.02989577 
number of iterations: 18154 
    7100    21.146099      365          365            0 3.6621029e-13            0          0.1  0.009002588   0.29196077  0.029895691 
number of iterations: 18244 
    7200    21.375158      370          370            0 3.7309151e-13            0          0.1 0.0090026393   0.30096418  0.029895605 
number of iterations: 18276 
    7300    21.625618      372          372            0 3.8010202e-13            0          0.1 0.0090026888   0.31013678  0.029895523 
number of iterations: 18336 
    7400    21.856064      380          380            0 3.8724426e-13            0          0.1 0.0090027394   0.31948173  0.029895439 
number of iterations: 18397 
    7500    22.088288      387          387            0 3.9452071e-13            0          0.1 0.0090027908   0.32900227  0.029895353 
number of iterations: 18458 
    7600    22.321513      393          393            0 4.0193388e-13            0          0.1 0.0090028433   0.33870171  0.029895266 
number of iterations: 18518 
    7700    22.574486      401          401            0 4.0948635e-13            0          0.1 0.0090028967    0.3485834  0.029895177 
number of iterations: 18196 
    7800     22.80387      408          408            0 4.1718073e-13            0          0.1 0.0090029476   0.35865078  0.029895092 
number of iterations: 18633 
    7900    23.037039      411          411            0 4.250197e-13            0          0.1 0.0090030029   0.36890732     0.029895 
number of iterations: 18694 
    8000    23.321076      422          422            0 4.3300596e-13            0          0.1 0.0090030591   0.37935659  0.029894906 
number of iterations: 17831 
    8100    23.545346      431          431            0 4.4114228e-13            0          0.1 0.0090031109    0.3900022   0.02989482 
number of iterations: 17843 
    8200    23.769126      443          443            0 4.4943149e-13            0          0.1 0.0090031679   0.40084785  0.029894725 
number of iterations: 19462 
    8300    24.014766      449          449            0 4.5787645e-13            0          0.1 0.0090032324   0.41189729  0.029894618 
number of iterations: 18919 
    8400    24.251067      452          452            0 4.664801e-13            0          0.1 0.0090032932   0.42315435  0.029894517 
number of iterations: 18980 
    8500    24.489653      460          460            0 4.7524541e-13            0          0.1  0.009003355   0.43462294  0.029894414 
number of iterations: 19192 
    8600    24.731295      470          470            0 4.8417543e-13            0          0.1 0.0090034199   0.44630703  0.029894306 
number of iterations: 19104 
    8700    24.970054      478          478            0 4.9327324e-13            0          0.1 0.0090034841   0.45821067  0.029894199 
Loop time of 24.9701 on 32 procs for 8700 steps with 478 atoms

Performance: 301032345.202 tau/day, 348.417 timesteps/s
98.6% CPU use with 32 MPI tasks x no OpenMP threads

MPI task timing breakdown:
Section |  min time  |  avg time  |  max time  |%varavg| %total
---------------------------------------------------------------
Pair    | 0.00040866 | 0.0025096  | 0.0079269  |   3.2 |  0.01
Neigh   | 0.0012692  | 0.0023695  | 0.0060423  |   2.0 |  0.01
Comm    | 0.012507   | 0.028801   | 0.04773    |   6.6 |  0.12
Output  | 0.86313    | 0.86382    | 0.86487    |   0.0 |  3.46
Modify  | 24.015     | 24.02      | 24.026     |   0.0 | 96.20
Other   |            | 0.05239    |            |       |  0.21

Nlocal:    14.9375 ave 63 max 0 min
Histogram: 6 9 11 2 1 1 1 0 0 1
Nghost:    4.84375 ave 15 max 0 min
Histogram: 10 1 5 1 6 4 3 0 1 1
Neighs:    16 ave 62 max 0 min
Histogram: 7 6 10 5 0 1 1 1 0 1

Total # of neighbors = 512
Ave neighs/atom = 1.07113
Neighbor list builds = 121
Dangerous builds = 0
Total wall time: 0:00:25
