 NUFEB Simulation

     100 atoms 
     2 atom types 
     4 nutrients 

  0.0e-4   1.00e-04  xlo xhi 
  0.0e-4   1.00e-04  ylo yhi 
  0.0e-4   1.00e-05  zlo zhi 

 Atoms 

     1 1 1.72e-06  370 9.12e-05 8.46e-06 6.69e-06 1.72e-06 
     2 1 1.68e-06  370 5.76e-05 7.11e-05 1.71e-06 1.68e-06 
     3 1 1.66e-06  370 4.25e-05 2.00e-05 7.94e-06 1.66e-06 
     4 1 1.89e-06  370 8.54e-05 1.82e-05 4.71e-06 1.89e-06 
     5 1 1.74e-06  370 3.77e-05 8.73e-05 2.71e-06 1.74e-06 
     6 1 1.40e-06  370 1.35e-05 5.01e-05 6.93e-06 1.40e-06 
     7 1 1.93e-06  370 3.00e-06 3.76e-05 3.32e-06 1.93e-06 
     8 1 1.48e-06  370 6.85e-05 5.20e-05 7.77e-06 1.48e-06 
     9 1 1.85e-06  370 9.40e-05 6.85e-05 2.87e-06 1.85e-06 
     10 1 1.66e-06  370 6.04e-05 7.74e-05 3.69e-06 1.66e-06 
     11 1 1.62e-06  370 7.70e-05 6.61e-05 4.77e-06 1.62e-06 
     12 1 1.48e-06  370 3.91e-06 4.64e-05 1.95e-06 1.48e-06 
     13 1 1.41e-06  370 1.75e-05 1.41e-05 7.93e-06 1.41e-06 
     14 1 1.75e-06  370 3.44e-05 2.53e-05 2.69e-06 1.75e-06 
     15 1 1.49e-06  370 5.29e-06 7.07e-05 3.83e-06 1.49e-06 
     16 1 1.65e-06  370 8.63e-05 7.04e-06 8.31e-06 1.65e-06 
     17 1 1.89e-06  370 3.47e-05 2.65e-05 5.40e-06 1.89e-06 
     18 1 1.81e-06  370 8.01e-05 2.11e-05 4.60e-06 1.81e-06 
     19 1 1.64e-06  370 8.09e-05 5.83e-05 6.01e-06 1.64e-06 
     20 1 1.90e-06  370 7.59e-05 7.11e-05 4.87e-06 1.90e-06 
     21 1 1.89e-06  370 1.55e-05 9.56e-05 6.32e-06 1.89e-06 
     22 1 1.50e-06  370 9.66e-05 9.10e-05 3.10e-06 1.50e-06 
     23 1 1.77e-06  370 4.24e-05 8.24e-05 3.45e-06 1.77e-06 
     24 1 1.89e-06  370 2.57e-05 5.45e-05 5.16e-06 1.89e-06 
     25 1 1.49e-06  370 5.85e-05 7.81e-05 2.79e-06 1.49e-06 
     26 1 1.61e-06  370 2.29e-05 8.28e-05 6.86e-06 1.61e-06 
     27 1 1.76e-06  370 6.08e-05 7.78e-05 2.82e-06 1.76e-06 
     28 1 1.87e-06  370 5.95e-05 1.99e-05 4.22e-06 1.87e-06 
     29 1 1.78e-06  370 2.95e-05 2.33e-05 3.05e-06 1.78e-06 
     30 1 1.77e-06  370 5.90e-05 8.40e-05 4.36e-06 1.77e-06 
     31 1 1.94e-06  370 8.53e-05 1.95e-05 6.58e-06 1.94e-06 
     32 1 1.67e-06  370 8.75e-05 2.09e-05 4.22e-06 1.67e-06 
     33 1 1.71e-06  370 2.01e-05 2.23e-05 4.14e-06 1.71e-06 
     34 1 1.45e-06  370 6.43e-06 3.66e-05 3.23e-06 1.45e-06 
     35 1 1.72e-06  370 1.54e-05 1.47e-05 2.28e-06 1.72e-06 
     36 1 1.75e-06  370 7.19e-05 5.92e-05 7.41e-06 1.75e-06 
     37 1 1.52e-06  370 1.71e-05 7.77e-05 5.38e-06 1.52e-06 
     38 1 1.78e-06  370 9.02e-05 1.66e-05 7.41e-06 1.78e-06 
     39 1 1.62e-06  370 5.55e-05 6.43e-05 7.07e-06 1.62e-06 
     40 1 1.83e-06  370 6.59e-05 5.21e-05 6.42e-06 1.83e-06 
     41 1 1.41e-06  370 7.39e-05 6.78e-05 3.76e-06 1.41e-06 
     42 1 1.59e-06  370 8.85e-05 1.40e-05 5.73e-06 1.59e-06 
     43 1 1.53e-06  370 2.95e-05 9.32e-05 8.38e-06 1.53e-06 
     44 1 1.45e-06  370 7.08e-05 5.42e-05 3.19e-06 1.45e-06 
     45 1 1.60e-06  370 5.49e-05 4.89e-05 7.36e-06 1.60e-06 
     46 1 1.69e-06  370 3.23e-05 3.94e-05 2.29e-06 1.69e-06 
     47 1 1.93e-06  370 9.07e-05 7.42e-05 6.52e-06 1.93e-06 
     48 1 1.65e-06  370 6.22e-05 6.44e-05 8.16e-06 1.65e-06 
     49 1 1.44e-06  370 3.97e-05 5.46e-05 4.37e-06 1.44e-06 
     50 1 1.58e-06  370 3.47e-05 1.81e-06 7.11e-06 1.58e-06 
     51 2 1.02e-06  230 4.18e-05 4.59e-05 6.62e-06 1.02e-06 
     52 2 1.32e-06  230 2.57e-05 3.23e-05 4.34e-06 1.32e-06 
     53 2 1.31e-06  230 4.18e-05 1.54e-05 4.89e-06 1.31e-06 
     54 2 1.24e-06  230 3.78e-05 5.47e-05 3.56e-06 1.24e-06 
     55 2 8.83e-07  230 4.66e-05 4.28e-05 4.83e-06 8.83e-07 
     56 2 9.04e-07  230 8.84e-05 3.22e-05 1.83e-06 9.04e-07 
     57 2 1.02e-06  230 4.35e-05 2.45e-05 2.19e-06 1.02e-06 
     58 2 1.06e-06  230 2.00e-05 3.85e-05 4.05e-06 1.06e-06 
     59 2 1.34e-06  230 2.50e-05 6.90e-05 2.60e-06 1.34e-06 
     60 2 9.77e-07  230 4.01e-05 5.33e-05 5.83e-06 9.77e-07 
     61 2 8.94e-07  230 1.31e-05 1.70e-05 4.67e-06 8.94e-07 
     62 2 1.24e-06  230 6.89e-05 4.36e-05 7.10e-06 1.24e-06 
     63 2 1.00e-06  230 8.57e-05 1.57e-05 8.69e-06 1.00e-06 
     64 2 1.07e-06  230 1.27e-05 6.68e-06 4.48e-06 1.07e-06 
     65 2 9.48e-07  230 3.52e-05 6.41e-05 4.61e-06 9.48e-07 
     66 2 1.06e-06  230 6.68e-05 4.29e-05 1.46e-06 1.06e-06 
     67 2 1.32e-06  230 5.83e-06 2.86e-05 2.92e-06 1.32e-06 
     68 2 1.28e-06  230 3.32e-05 6.54e-05 7.57e-06 1.28e-06 
     69 2 9.55e-07  230 8.19e-05 8.26e-05 8.09e-06 9.55e-07 
     70 2 1.20e-06  230 3.41e-05 2.84e-05 4.90e-06 1.20e-06 
     71 2 1.33e-06  230 4.40e-05 3.10e-05 7.91e-06 1.33e-06 
     72 2 9.59e-07  230 5.02e-05 5.82e-05 5.36e-06 9.59e-07 
     73 2 1.19e-06  230 1.84e-05 9.62e-06 8.37e-06 1.19e-06 
     74 2 1.13e-06  230 3.04e-06 4.78e-05 1.82e-06 1.13e-06 
     75 2 1.35e-06  230 6.87e-05 2.46e-05 5.37e-06 1.35e-06 
     76 2 9.83e-07  230 2.10e-05 9.27e-05 3.23e-06 9.83e-07 
     77 2 1.00e-06  230 1.22e-05 4.10e-05 1.64e-06 1.00e-06 
     78 2 1.15e-06  230 1.48e-05 3.52e-05 6.76e-06 1.15e-06 
     79 2 1.01e-06  230 2.70e-05 5.54e-05 3.05e-06 1.01e-06 
     80 2 1.28e-06  230 8.58e-05 4.29e-05 3.98e-06 1.28e-06 
     81 2 1.18e-06  230 8.26e-05 2.15e-05 1.40e-06 1.18e-06 
     82 2 1.34e-06  230 6.56e-05 4.74e-05 6.99e-06 1.34e-06 
     83 2 1.21e-06  230 2.98e-05 7.90e-05 1.96e-06 1.21e-06 
     84 2 9.65e-07  230 8.46e-05 3.20e-05 8.54e-06 9.65e-07 
     85 2 9.58e-07  230 8.41e-06 8.21e-05 4.23e-06 9.58e-07 
     86 2 1.34e-06  230 2.78e-05 2.63e-05 5.97e-06 1.34e-06 
     87 2 1.03e-06  230 1.73e-05 2.84e-05 7.69e-06 1.03e-06 
     88 2 1.21e-06  230 7.30e-05 6.48e-05 8.21e-06 1.21e-06 
     89 2 1.24e-06  230 9.20e-05 2.73e-05 7.86e-06 1.24e-06 
     90 2 9.31e-07  230 7.61e-05 9.39e-05 4.73e-06 9.31e-07 
     91 2 1.02e-06  230 2.61e-05 3.15e-05 2.27e-06 1.02e-06 
     92 2 1.16e-06  230 6.03e-05 6.03e-05 2.71e-06 1.16e-06 
     93 2 1.13e-06  230 9.02e-05 3.33e-05 6.39e-06 1.13e-06 
     94 2 9.23e-07  230 5.90e-05 8.49e-05 3.73e-06 9.23e-07 
     95 2 1.05e-06  230 6.25e-05 4.95e-05 6.27e-06 1.05e-06 
     96 2 1.35e-06  230 7.04e-05 5.86e-06 7.57e-06 1.35e-06 
     97 2 1.25e-06  230 1.02e-05 1.41e-05 3.43e-06 1.25e-06 
     98 2 9.72e-07  230 2.35e-05 5.45e-06 6.93e-06 9.72e-07 
     99 2 8.93e-07  230 5.51e-05 7.00e-05 1.14e-06 8.93e-07 
     100 2 1.02e-06  230 9.69e-05 4.09e-05 2.38e-06 1.02e-06 

 Nutrients 

     1 sub g nn nn nn 1.00e-01 1.00e-01 
     2 o2 l nn nn nd 9.00e-03 9.00e-03 
     3 suc l nn nn nn 3.42e-20 3.42e-20 
     4 co2 l nn nn nd 2.99e-02 2.99e-02 

 Type Name 

     1 cyano  
     2 ecw  

 Diffusion Coeffs 

     sub 0 
     o2 2.3e-09 
     suc 5.2e-10 
     co2 1.9e-09 

 Growth Rate 

     cyano 1.67e-05 
     ecw 3e-06 

 Ks 

     cyano 0.00035 0.0002 0.01 0.000138 
     ecw 0 0.001 3.6 0.05 

 Yield 

     cyano 0.55 
     ecw 0.43 

 Maintenance 

     cyano 0 
     ecw 9.5e-07 

 Decay 

     cyano 0 
     ecw 0 



