LAMMPS (20 Nov 2019)
Reading data file ...
  orthogonal box = (0 0 0) to (0.0001 0.0001 1e-05)
  8 by 4 by 1 MPI processor grid
  reading atoms ...
  100 atoms
  4 nutrients
Lattice spacing in x,y,z = 100 100 100
50 atoms in group CYANO
50 atoms in group ECW
Model is defined as a closed system. 
Neighbor list info ...
  update every 1 steps, delay 0 steps, check yes
  max neighbors/atom: 5000, page size: 100000
  master list distance cutoff = 2.44e-06
  ghost atom cutoff = 2.44e-06
  binsize = 1.22e-06, bins = 82 82 9
  1 neighbor lists, perpetual/occasional/extra = 1 0 0
  (1) pair gran/hooke/history, perpetual
      attributes: half, newton off, size, history
      pair build: half/size/bin/newtoff
      stencil: half/bin/3d/newtoff
      bin: standard
Setting up Verlet run ...
  Unit style    : lj
  Current step  : 0
  Time step     : 10
Per MPI rank memory allocation (min/avg/max) = 5.794 | 9.858 | 12.11 Mbytes
Step CPU Atoms c_myNtypes[1] c_myNtypes[2] c_myMass[1] c_myMass[2] c_myCon[1] c_myCon[2] c_myCon[3] c_myCon[4] 
       0            0      100           50           50 4.6876412e-14 8.7354851e-15          0.1        0.009     3.42e-20       0.0299 
number of iterations: 321644 
     100    15.535463      128           50           78 4.7497628e-14 8.7282604e-15          0.1 0.0090007926  0.037653793   0.02989868 
number of iterations: 5521 
     200    15.938575      140           50           90 4.8127077e-14 8.7212758e-15          0.1 0.0090008031  0.074632823  0.029898662 
number of iterations: 3153 
     300    16.216533      140           50           90 4.8764868e-14 8.7145309e-15          0.1 0.0090008137   0.11208863  0.029898645 
number of iterations: 2545 
     400    16.474891      141           51           90 4.941111e-14 8.7080229e-15          0.1 0.0090008285   0.15003399   0.02989862 
number of iterations: 2132 
     500    16.743758      143           53           90 5.0065916e-14 8.7017496e-15          0.1 0.0090008405   0.18847632    0.0298986 
number of iterations: 1817 
     600    16.978743      143           53           90 5.0729401e-14 8.6957089e-15          0.1 0.0090008516   0.22742272  0.029898581 
number of iterations: 1654 
     700    17.177412      143           53           90 5.1401677e-14 8.6898984e-15          0.1 0.0090008629   0.26688027  0.029898563 
number of iterations: 1551 
     800     17.37893      143           53           90 5.2082863e-14 8.6843156e-15          0.1 0.0090008743   0.30685595  0.029898544 
number of iterations: 1467 
     900    17.601707      144           54           90 5.2773077e-14 8.6789585e-15          0.1 0.0090008859   0.34735679  0.029898524 
number of iterations: 1651 
    1000    17.853557      148           58           90 5.3472437e-14 8.6738248e-15          0.1 0.0090008961   0.38838986  0.029898507 
number of iterations: 1410 
    1100     18.03982      148           58           90 5.4181065e-14 8.6689126e-15          0.1  0.009000908   0.42996236  0.029898488 
number of iterations: 1469 
    1200    18.258904      149           59           90 5.4899084e-14 8.6642198e-15          0.1 0.0090009226   0.47208162  0.029898463 
number of iterations: 1416 
    1300     18.54498      149           59           90 5.5626618e-14 8.6597443e-15          0.1 0.0090009349   0.51475493  0.029898443 
number of iterations: 1419 
    1400    18.765242      149           59           90 5.6363794e-14 8.655484e-15          0.1 0.0090009472   0.55798974  0.029898422 
number of iterations: 1423 
    1500    18.986103      150           60           90 5.7110739e-14 8.6514369e-15          0.1 0.0090009598   0.60179351  0.029898401 
number of iterations: 1425 
    1600    19.175675      150           60           90 5.7867582e-14 8.647601e-15          0.1 0.0090009725   0.64617399   0.02989838 
number of iterations: 1514 
    1700    19.365983      151           61           90 5.8634456e-14 8.6439746e-15          0.1 0.0090009894   0.69113891  0.029898352 
number of iterations: 1431 
    1800    19.569018      151           61           90 5.9411492e-14 8.6405556e-15          0.1 0.0090010025   0.73669613   0.02989833 
number of iterations: 1507 
    1900    19.761288      151           61           90 6.0198826e-14 8.6373417e-15          0.1 0.0090010158   0.78285349  0.029898308 
number of iterations: 1608 
    2000    19.991465      152           62           90 6.0996593e-14 8.6343313e-15          0.1 0.0090010323   0.82961917   0.02989828 
number of iterations: 1443 
    2100    20.176124      152           62           90 6.1804933e-14 8.6315227e-15          0.1  0.009001046   0.87700132  0.029898258 
number of iterations: 1446 
    2200    20.387951      152           62           90 6.2623985e-14 8.6289139e-15          0.1 0.0090010599    0.9250082  0.029898234 
number of iterations: 1552 
    2300    20.592728      154           64           90 6.3453891e-14 8.6265031e-15          0.1 0.0090010681   0.97364819  0.029898221 
number of iterations: 1444 
    2400    20.813689      154           64           90 6.4294795e-14 8.6242886e-15          0.1 0.0090010822    1.0229298  0.029898197 
number of iterations: 1497 
    2500    20.997554      156           66           90 6.5146844e-14 8.6222683e-15          0.1 0.0090010962    1.0728615  0.029898174 
number of iterations: 1527 
    2600     21.20379      157           67           90 6.6010183e-14 8.6204407e-15          0.1 0.0090011121     1.123452  0.029898147 
number of iterations: 1451 
    2700    21.411408      159           69           90 6.6884964e-14 8.6188037e-15          0.1 0.0090011225    1.1747103   0.02989813 
number of iterations: 1455 
    2800    21.637073      159           69           90 6.7771338e-14 8.6173559e-15          0.1 0.0090011374    1.2266452  0.029898105 
number of iterations: 1500 
    2900     21.82765      160           70           90 6.8669458e-14 8.6160956e-15          0.1 0.0090011538    1.2792659  0.029898078 
number of iterations: 1461 
    3000    22.039101      160           70           90 6.957948e-14 8.615021e-15          0.1 0.0090011691    1.3325815  0.029898052 
number of iterations: 1712 
    3100    22.233017      162           72           90 7.0501562e-14 8.6141306e-15          0.1   0.00900119    1.3866014  0.029898018 
number of iterations: 1473 
    3200     22.43086      162           72           90 7.1435863e-14 8.6134226e-15          0.1 0.0090012058    1.4413349  0.029897991 
number of iterations: 1595 
    3300    22.640564      163           73           90 7.2382546e-14 8.6128954e-15          0.1 0.0090012245    1.4967915   0.02989796 
number of iterations: 1487 
    3400    22.828085      163           73           90 7.3341775e-14 8.6125472e-15          0.1 0.0090012407     1.552981  0.029897933 
number of iterations: 1484 
    3500    23.016919      164           74           90 7.4313715e-14 8.6123765e-15          0.1 0.0090012587    1.6099131  0.029897903 
number of iterations: 1484 
    3600    23.220594      164           74           90 7.5298536e-14 8.6123819e-15          0.1 0.0090012754    1.6675979  0.029897875 
number of iterations: 1486 
    3700    23.429488      165           75           90 7.6296408e-14 8.6125617e-15          0.1 0.0090012908    1.7260453   0.02989785 
number of iterations: 1647 
    3800    23.723683      166           76           90 7.7307503e-14 8.6129145e-15          0.1  0.009001311    1.7852655  0.029897816 
number of iterations: 1563 
    3900    23.922831      168           78           90 7.8331999e-14 8.6134386e-15          0.1 0.0090013256    1.8452689  0.029897792 
number of iterations: 1498 
    4000    24.139697      168           78           90 7.937007e-14 8.6141324e-15          0.1 0.0090013432     1.906066  0.029897762 
number of iterations: 1589 
    4100     24.33286      170           80           90 8.0421899e-14 8.6149945e-15          0.1 0.0090013672    1.9676672  0.029897722 
number of iterations: 1598 
    4200    24.541084      171           81           90 8.1487667e-14 8.6160235e-15          0.1 0.0090013827    2.0300835  0.029897697 
number of iterations: 1506 
    4300    24.728888      171           81           90 8.2567558e-14 8.6172178e-15          0.1  0.009001401    2.0933256  0.029897666 
number of iterations: 1509 
    4400    24.916065      171           81           90 8.366176e-14 8.6185761e-15          0.1 0.0090014196    2.1574046  0.029897635 
number of iterations: 1580 
    4500    25.143751      173           83           90 8.4770463e-14 8.6200969e-15          0.1 0.0090014415    2.2223316  0.029897599 
number of iterations: 1515 
    4600    25.347428      174           84           90 8.5893859e-14 8.6217787e-15          0.1 0.0090014606    2.2881181  0.029897567 
number of iterations: 1518 
    4700    25.543938      174           84           90 8.7032142e-14 8.6236201e-15          0.1 0.0090014799    2.3547753  0.029897535 
number of iterations: 1510 
    4800    25.726823      175           85           90 8.8185509e-14 8.6256199e-15          0.1 0.0090014937    2.4223151  0.029897512 
number of iterations: 1491 
    4900    25.921913      176           86           90 8.9354162e-14 8.6277767e-15          0.1 0.0090015135    2.4907493  0.029897479 
number of iterations: 1525 
    5000    26.134047      176           86           90 9.0538301e-14 8.6300891e-15          0.1 0.0090015335    2.5600896  0.029897445 
number of iterations: 1527 
    5100     26.33228      177           87           90 9.1738133e-14 8.6325556e-15          0.1 0.0090015538    2.6303483  0.029897412 
number of iterations: 1530 
    5200    26.511279      177           87           90 9.2953865e-14 8.635175e-15          0.1 0.0090015744    2.7015374  0.029897377 
number of iterations: 1505 
    5300    26.734417      178           88           90 9.4185709e-14 8.6379462e-15          0.1 0.0090015953    2.7736695  0.029897343 
number of iterations: 1617 
    5400    26.934992      180           90           90 9.5433877e-14 8.6408675e-15          0.1 0.0090016134    2.8467571  0.029897312 
number of iterations: 1633 
    5500    27.138921      180           90           90 9.6698586e-14 8.6439376e-15          0.1 0.0090016397    2.9208129  0.029897269 
number of iterations: 1541 
    5600    27.352044      180           90           90 9.7980055e-14 8.6471553e-15          0.1 0.0090016614    2.9958498  0.029897232 
number of iterations: 1564 
    5700    27.608739      181           91           90 9.9278507e-14 8.6505194e-15          0.1 0.0090016835    3.0718809  0.029897196 
number of iterations: 1654 
    5800     27.80083      182           92           90 1.0059417e-13 8.6540286e-15          0.1 0.0090017111    3.1489194   0.02989715 
number of iterations: 1554 
    5900    28.027972      186           96           90 1.0192726e-13 8.6576817e-15          0.1 0.0090017341    3.2269786  0.029897111 
number of iterations: 1552 
    6000    28.260457      186           96           90 1.0327802e-13 8.6614776e-15          0.1 0.0090017571    3.3060723  0.029897073 
number of iterations: 1626 
    6100    28.478291      189           99           90 1.0464668e-13 8.6654152e-15          0.1 0.0090017783    3.3862142  0.029897038 
number of iterations: 1594 
    6200    28.797246      192          102           90 1.0603348e-13 8.6694931e-15          0.1 0.0090017991    3.4674184  0.029897003 
number of iterations: 1553 
    6300    28.973902      193          103           90 1.0743866e-13 8.6737102e-15          0.1 0.0090018204    3.5496988  0.029896968 
number of iterations: 1531 
    6400    29.162461      196          106           90 1.0886246e-13 8.6780651e-15          0.1 0.0090018393    3.6330698  0.029896936 
number of iterations: 1552 
    6500     29.34288      198          108           90 1.1030512e-13 8.6825567e-15          0.1 0.0090018637    3.7175461  0.029896896 
number of iterations: 1561 
    6600    29.521975      201          111           90 1.1176691e-13 8.687184e-15          0.1 0.0090018869    3.8031425  0.029896857 
number of iterations: 1600 
    6700    29.719692      204          114           90 1.1324807e-13 8.6919457e-15          0.1  0.009001915    3.8898737   0.02989681 
number of iterations: 1567 
    6800    29.915499      204          114           90 1.1474885e-13 8.6968409e-15          0.1 0.0090019404    3.9777549  0.029896768 
number of iterations: 1571 
    6900    30.104246      205          115           90 1.1626953e-13 8.7018684e-15          0.1 0.0090019661    4.0668012  0.029896725 
number of iterations: 1597 
    7000    30.306494      207          117           90 1.1781035e-13 8.7070271e-15          0.1 0.0090019922    4.1570281  0.029896682 
number of iterations: 1589 
    7100     30.53429      208          118           90 1.193716e-13 8.7123159e-15          0.1 0.0090020186    4.2484516  0.029896638 
number of iterations: 1743 
    7200    30.723442      211          121           90 1.2095353e-13 8.7177338e-15          0.1 0.0090020506    4.3410874  0.029896584 
number of iterations: 1618 
    7300    30.927711      213          123           90 1.2255643e-13 8.7232797e-15          0.1 0.0090020834    4.4349519   0.02989653 
number of iterations: 1572 
    7400    31.104618      214          124           90 1.2418058e-13 8.7289524e-15          0.1 0.0090021076    4.5300613  0.029896489 
number of iterations: 1591 
    7500    31.295803      214          124           90 1.2582624e-13 8.7347511e-15          0.1 0.0090021357    4.6264321  0.029896442 
number of iterations: 1594 
    7600    31.499325      214          124           90 1.2749372e-13 8.7406747e-15          0.1  0.009002164     4.724081  0.029896395 
number of iterations: 1594 
    7700    31.701251      217          127           90 1.2918329e-13 8.746722e-15          0.1 0.0090021847     4.823025  0.029896361 
number of iterations: 1629 
    7800      31.9094      220          130           90 1.3089525e-13 8.7528923e-15          0.1 0.0090022151    4.9232813   0.02989631 
number of iterations: 1603 
    7900    32.089117      221          131           90 1.326299e-13 8.7591843e-15          0.1 0.0090022444    5.0248673  0.029896261 
number of iterations: 1773 
    8000    32.270034      225          135           90 1.3438754e-13 8.7655971e-15          0.1 0.0090022776    5.1278008  0.029896206 
number of iterations: 1607 
    8100    32.482792      227          137           90 1.3616847e-13 8.7721298e-15          0.1 0.0090023043    5.2320998  0.029896162 
number of iterations: 1633 
    8200    32.653631      232          142           90  1.37973e-13 8.7787814e-15          0.1 0.0090023387     5.337782  0.029896104 
number of iterations: 1564 
    8300     32.84333      235          145           90 1.3980144e-13 8.7855511e-15          0.1 0.0090023649    5.4448661  0.029896061 
number of iterations: 1725 
    8400    33.050752      236          146           90 1.4165412e-13 8.7924379e-15          0.1 0.0090023963     5.553371  0.029896009 
number of iterations: 1679 
    8500    33.241444      237          147           90 1.4353135e-13 8.7994409e-15          0.1 0.0090024329    5.6633153  0.029895948 
number of iterations: 1579 
    8600    33.444736      239          149           90 1.4543345e-13 8.8065592e-15          0.1 0.0090024591    5.7747183  0.029895904 
number of iterations: 1803 
    8700    33.805077      241          151           90 1.4736076e-13 8.8137919e-15          0.1 0.0090024953    5.8875994  0.029895844 
number of iterations: 1733 
    8800    34.005255      244          154           90 1.4931362e-13 8.821138e-15          0.1 0.0090025275     6.001978   0.02989579 
number of iterations: 1657 
    8900    34.187591      244          154           90 1.5129235e-13 8.8285966e-15          0.1 0.0090025665    6.1178741  0.029895725 
number of iterations: 1652 
    9000     34.39657      246          155           91 1.532973e-13 8.8361669e-15          0.1 0.0090025975    6.2353078  0.029895673 
number of iterations: 1634 
    9100    34.578045      246          155           91 1.5532883e-13 8.843848e-15          0.1 0.0090026319    6.3542995  0.029895616 
number of iterations: 1637 
    9200    34.767418      246          155           91 1.5738728e-13 8.8516391e-15          0.1 0.0090026668    6.4748702  0.029895558 
number of iterations: 1644 
    9300    34.944411      248          157           91  1.59473e-13 8.8595393e-15          0.1 0.0090027022    6.5970406  0.029895499 
number of iterations: 1642 
    9400    35.129987      248          157           91 1.6158637e-13 8.8675478e-15          0.1 0.0090027352    6.7208322  0.029895444 
number of iterations: 1645 
    9500    35.317994      248          157           91 1.6372774e-13 8.8756638e-15          0.1 0.0090027715    6.8462663  0.029895384 
number of iterations: 1684 
    9600    35.525312      252          160           92 1.6589749e-13 8.8838862e-15          0.1 0.0090028136    6.9733648  0.029895314 
number of iterations: 1655 
    9700    35.720175      255          163           92  1.68096e-13 8.8922146e-15          0.1  0.009002839    7.1021499  0.029895271 
number of iterations: 1619 
    9800    35.923355      256          164           92 1.7032364e-13 8.9006479e-15          0.1 0.0090028705    7.2326438  0.029895219 
number of iterations: 1658 
    9900    36.131494      258          166           92 1.725808e-13 8.9091857e-15          0.1 0.0090029052    7.3648693  0.029895161 
number of iterations: 1608 
   10000    36.322601      259          167           92 1.7486787e-13 8.9178269e-15          0.1 0.0090029285    7.4988495  0.029895122 
number of iterations: 1789 
   10100    36.552243      263          171           92 1.7718525e-13 8.9265709e-15          0.1 0.0090029685    7.6346076  0.029895056 
number of iterations: 1663 
   10200    36.741707      264          172           92 1.7953334e-13 8.9354169e-15          0.1 0.0090030078    7.7721673   0.02989499 
number of iterations: 1666 
   10300    36.965046      265          173           92 1.8191255e-13 8.944364e-15          0.1 0.0090030474    7.9115525  0.029894924 
number of iterations: 1674 
   10400    37.161638      268          176           92 1.8432329e-13 8.9534119e-15          0.1  0.009003085    8.0527875  0.029894862 
number of iterations: 1717 
   10500    37.356953      276          184           92 1.8676598e-13 8.9625594e-15          0.1 0.0090031222    8.1958968    0.0298948 
number of iterations: 1678 
   10600    37.558211      279          187           92 1.8924104e-13 8.9718058e-15          0.1 0.0090031571    8.3409052  0.029894742 
number of iterations: 1772 
   10700    37.763888      283          191           92 1.9174889e-13 8.9811507e-15          0.1 0.0090032072    8.4878383  0.029894658 
number of iterations: 1725 
   10800    37.960709      286          194           92 1.9428999e-13 8.990593e-15          0.1 0.0090032552    8.6367211  0.029894578 
number of iterations: 1739 
   10900    38.152884      288          196           92 1.9686475e-13 9.0001321e-15          0.1 0.0090032989    8.7875797  0.029894505 
number of iterations: 1687 
   11000    38.364984      290          197           93 1.9947364e-13 9.0097672e-15          0.1 0.0090033426    8.9404403  0.029894433 
number of iterations: 1690 
   11100    38.659047      292          199           93 2.021171e-13 9.0194978e-15          0.1 0.0090033882    9.0953296  0.029894357 
number of iterations: 1716 
   11200    38.860217      294          201           93 2.0479559e-13 9.0293231e-15          0.1 0.0090034288    9.2522744  0.029894289 
number of iterations: 1702 
   11300    39.054454      300          206           94 2.0750958e-13 9.0392427e-15          0.1 0.0090034639    9.4113023  0.029894231 
number of iterations: 1710 
   11400    39.262108      302          208           94 2.1025954e-13 9.0492557e-15          0.1 0.0090035098    9.5724406  0.029894154 
number of iterations: 1726 
   11500    39.452401      304          210           94 2.1304594e-13 9.0593615e-15          0.1 0.0090035589    9.7357175  0.029894073 
number of iterations: 1779 
   11600    39.660275      306          212           94 2.1586926e-13 9.0695595e-15          0.1 0.0090036122    9.9011613  0.029893984 
number of iterations: 1710 
   11700     39.86103      312          217           95   2.1873e-13 9.0798489e-15          0.1 0.0090036515    10.068801  0.029893918 
number of iterations: 1710 
   11800    40.061293      315          220           95 2.2162865e-13 9.0902292e-15          0.1 0.0090036974    10.238665  0.029893842 
number of iterations: 1825 
   11900    40.245426      317          222           95 2.2456571e-13 9.1006997e-15          0.1 0.0090037478    10.410783  0.029893758 
number of iterations: 1700 
   12000    40.446539      321          226           95 2.2754169e-13 9.1112599e-15          0.1 0.0090037975    10.585186  0.029893675 
number of iterations: 1809 
   12100    40.671117      327          232           95 2.3055712e-13 9.1219091e-15          0.1  0.009003846    10.761903  0.029893594 
number of iterations: 1711 
   12200    40.864839      329          234           95 2.336125e-13 9.1326467e-15          0.1 0.0090038924    10.940966  0.029893517 
number of iterations: 1739 
   12300    41.063533      334          239           95 2.3670838e-13 9.1434721e-15          0.1 0.0090039398    11.122405  0.029893438 
number of iterations: 1737 
   12400    41.264094      338          243           95 2.3984528e-13 9.1543848e-15          0.1 0.0090039912    11.306252  0.029893353 
number of iterations: 1727 
   12500    41.480443      341          246           95 2.4302375e-13 9.1653842e-15          0.1 0.0090040445    11.492539  0.029893264 
number of iterations: 1665 
   12600    41.697777      346          251           95 2.4624434e-13 9.1764697e-15          0.1 0.0090040791    11.681298  0.029893206 
number of iterations: 1734 
   12700    41.913683      347          252           95 2.4950762e-13 9.1876408e-15          0.1 0.0090041313    11.872563  0.029893119 
number of iterations: 1792 
   12800     42.12049      350          255           95 2.5281414e-13 9.1988969e-15          0.1 0.0090041937    12.066366  0.029893015 
number of iterations: 1706 
   12900    42.299203      354          259           95 2.5616447e-13 9.2102373e-15          0.1 0.0090042425     12.26274  0.029892934 
number of iterations: 1856 
   13000    42.512753      358          262           96 2.5955921e-13 9.2216616e-15          0.1 0.0090043048     12.46172   0.02989283 
number of iterations: 1703 
   13100    42.749684      360          264           96 2.6299893e-13 9.2331692e-15          0.1 0.0090043572    12.663342  0.029892743 
number of iterations: 1713 
   13200    42.964818      364          267           97 2.6648424e-13 9.2447596e-15          0.1 0.0090044117    12.867639  0.029892652 
number of iterations: 1744 
   13300    43.153937      367          270           97 2.7001574e-13 9.2564323e-15          0.1 0.0090044669    13.074646   0.02989256 
number of iterations: 1739 
   13400    43.346312      371          272           99 2.7359403e-13 9.2681868e-15          0.1 0.0090045199    13.284401  0.029892472 
number of iterations: 1750 
   13500    43.523281      377          277          100 2.7721975e-13 9.2800223e-15          0.1 0.0090045654     13.49694  0.029892396 
number of iterations: 1777 
   13600     43.76289      380          279          101 2.8089351e-13 9.2919386e-15          0.1 0.0090046347    13.712299  0.029892281 
number of iterations: 1753 
   13700    43.960044      382          281          101 2.8461596e-13 9.303935e-15          0.1 0.0090046974    13.930517  0.029892177 
number of iterations: 1759 
   13800    44.167452      384          283          101 2.8838774e-13 9.3160112e-15          0.1 0.0090047596     14.15163  0.029892073 
number of iterations: 1763 
   13900    44.373148      388          287          101 2.922095e-13 9.3281666e-15          0.1 0.0090048195    14.375678  0.029891973 
number of iterations: 1762 
   14000    44.562513      391          290          101 2.9608191e-13 9.3404007e-15          0.1 0.0090048768    14.602699  0.029891878 
number of iterations: 1794 
   14100    44.785419      395          294          101 3.0000564e-13 9.3527132e-15          0.1 0.0090049426    14.832732  0.029891768 
number of iterations: 1771 
   14200    44.982098      398          297          101 3.0398136e-13 9.3651035e-15          0.1 0.0090050111    15.065819  0.029891654 
number of iterations: 1760 
   14300    45.183797      404          303          101 3.0800978e-13 9.3775711e-15          0.1 0.0090050684    15.301998  0.029891559 
number of iterations: 1880 
   14400    45.386083      405          304          101 3.1209157e-13 9.3901156e-15          0.1 0.0090051545    15.541312  0.029891415 
number of iterations: 1788 
   14500    45.571858      409          308          101 3.1622746e-13 9.4027364e-15          0.1 0.0090052228    15.783801  0.029891302 
number of iterations: 1773 
   14600    45.754543      411          310          101 3.2041816e-13 9.4154332e-15          0.1 0.0090052888    16.029509  0.029891192 
number of iterations: 1796 
   14700    45.973102      419          318          101 3.2466439e-13 9.4282055e-15          0.1  0.009005361    16.278476  0.029891072 
number of iterations: 1790 
   14800    46.168871      427          325          102 3.289669e-13 9.4410527e-15          0.1 0.0090054255    16.530748  0.029890964 
number of iterations: 1768 
   14900     46.37612      433          330          103 3.3332642e-13 9.4539746e-15          0.1 0.0090054948    16.786367  0.029890849 
number of iterations: 1829 
   15000    46.563811      439          336          103 3.3774372e-13 9.4669708e-15          0.1 0.0090055788    17.045379  0.029890709 
number of iterations: 1814 
   15100    46.793644      446          341          105 3.4221955e-13 9.4800407e-15          0.1 0.0090056439    17.307827    0.0298906 
number of iterations: 1797 
   15200     46.99042      449          344          105 3.467547e-13 9.4931839e-15          0.1 0.0090057132    17.573757  0.029890485 
number of iterations: 1883 
   15300      47.1981      455          350          105 3.5134995e-13 9.5064002e-15          0.1 0.0090057985    17.843217  0.029890343 
number of iterations: 1807 
   15400    47.389959      459          354          105 3.560061e-13 9.5196889e-15          0.1 0.0090058717    18.116252  0.029890221 
number of iterations: 1797 
   15500    47.590857      463          358          105 3.6072395e-13 9.5330499e-15          0.1 0.0090059403    18.392909  0.029890107 
number of iterations: 1839 
   15600    47.789518      465          360          105 3.6550432e-13 9.5464826e-15          0.1 0.0090060187    18.673238  0.029889976 
number of iterations: 1804 
   15700    47.985085      470          364          106 3.7034804e-13 9.5599866e-15          0.1 0.0090060881    18.957286  0.029889861 
number of iterations: 1869 
   15800    48.194758      477          371          106 3.7525595e-13 9.5735617e-15          0.1 0.0090061772    19.245103  0.029889712 
number of iterations: 1829 
   15900    48.408026      482          376          106 3.802289e-13 9.5872073e-15          0.1 0.0090062585    19.536738  0.029889577 
number of iterations: 1873 
   16000    48.743746      485          379          106 3.8526775e-13 9.6009232e-15          0.1 0.0090063493    19.832243  0.029889426 
number of iterations: 1872 
   16100    48.989984      488          382          106 3.9037338e-13 9.614709e-15          0.1 0.0090064282     20.13167  0.029889295 
number of iterations: 1837 
   16200    49.192898      494          388          106 3.9554666e-13 9.6285642e-15          0.1 0.0090065225    20.435069  0.029889138 
number of iterations: 1803 
   16300    49.386874      499          393          106 4.0078851e-13 9.6424886e-15          0.1 0.0090065996    20.742495  0.029889009 
number of iterations: 1887 
   16400    49.594078      504          398          106 4.0609982e-13 9.6564818e-15          0.1 0.0090066783    21.053999  0.029888878 
number of iterations: 1949 
   16500    49.794863      514          407          107 4.1148152e-13 9.6705434e-15          0.1   0.00900678    21.369637  0.029888709 
number of iterations: 1848 
   16600    49.992464      519          412          107 4.1693453e-13 9.6846731e-15          0.1 0.0090068785    21.689463  0.029888545 
number of iterations: 1860 
   16700    50.203761      525          418          107 4.2245981e-13 9.6988705e-15          0.1 0.0090069728    22.013532  0.029888388 
number of iterations: 1847 
   16800    50.450519      531          424          107 4.2805831e-13 9.7131352e-15          0.1 0.0090070607    22.341902  0.029888241 
number of iterations: 1847 
   16900    50.666191      535          428          107  4.33731e-13 9.727467e-15          0.1  0.009007143    22.674628  0.029888104 
number of iterations: 1821 
   17000    50.861396      540          433          107 4.3947887e-13 9.7418654e-15          0.1 0.0090072324    23.011767  0.029887955 
number of iterations: 1831 
   17100    51.078781      548          440          108 4.4530291e-13  9.75633e-15          0.1 0.0090073249     23.35338  0.029887801 
number of iterations: 1816 
   17200    51.280048      555          447          108 4.5120413e-13 9.7708607e-15          0.1 0.0090074059    23.699524  0.029887666 
number of iterations: 1847 
   17300    51.496526      562          454          108 4.5718355e-13 9.7854571e-15          0.1 0.0090074931    24.050261  0.029887521 
number of iterations: 1852 
   17400    51.746007      570          461          109 4.6324221e-13 9.800119e-15          0.1 0.0090075825    24.405651  0.029887372 
number of iterations: 1848 
   17500    51.954825      578          469          109 4.6938116e-13 9.814846e-15          0.1 0.0090076829    24.765755  0.029887205 
number of iterations: 1895 
   17600    52.175023      586          477          109 4.7560147e-13 9.8296378e-15          0.1 0.0090077979    25.130637  0.029887014 
number of iterations: 1928 
   17700    52.418187      592          482          110 4.8190421e-13 9.8444942e-15          0.1 0.0090079074     25.50036  0.029886831 
number of iterations: 1896 
   17800    52.629617      597          487          110 4.8829047e-13 9.8594149e-15          0.1 0.0090080278    25.874989  0.029886631 
number of iterations: 1865 
   17900     52.84178      600          490          110 4.9476136e-13 9.8743995e-15          0.1 0.0090081331    26.254587  0.029886456 
number of iterations: 1870 
   18000    53.036155      608          498          110 5.0131801e-13 9.8894478e-15          0.1 0.0090082405    26.639222  0.029886277 
number of iterations: 1864 
   18100    53.252266      611          501          110 5.0796155e-13 9.9045595e-15          0.1 0.0090083336    27.028959  0.029886122 
number of iterations: 1881 
   18200    53.450697      615          505          110 5.1469312e-13 9.9197343e-15          0.1 0.0090084384    27.423867  0.029885947 
number of iterations: 1881 
   18300    53.682419      619          509          110 5.215139e-13 9.934972e-15          0.1 0.0090085422    27.824013  0.029885774 
number of iterations: 1889 
   18400     53.90171      627          517          110 5.2842508e-13 9.9502722e-15          0.1  0.009008653    28.229468   0.02988559 
number of iterations: 1893 
   18500    54.136223      631          521          110 5.3542784e-13 9.9656346e-15          0.1 0.0090087696    28.640302  0.029885396 
number of iterations: 1888 
   18600    54.327784      640          529          111 5.425234e-13 9.9810591e-15          0.1  0.009008876    29.056585  0.029885218 
number of iterations: 1986 
   18700    54.523166      652          541          111 5.4971299e-13 9.9965454e-15          0.1 0.0090089977    29.478391  0.029885016 
number of iterations: 1830 
   18800    54.723611      658          547          111 5.5699786e-13 1.0012093e-14          0.1 0.0090090909    29.905792  0.029884861 
number of iterations: 1952 
   18900    54.928416      664          553          111 5.6437926e-13 1.0027702e-14          0.1 0.0090092196    30.338862  0.029884646 
number of iterations: 1863 
   19000    55.164309      678          567          111 5.7185849e-13 1.0043372e-14          0.1 0.0090093208    30.777678  0.029884478 
number of iterations: 1933 
   19100    55.359718      686          575          111 5.7943683e-13 1.0059103e-14          0.1 0.0090094493    31.222314  0.029884264 
number of iterations: 1942 
   19200    55.578302      694          583          111 5.871156e-13 1.0074894e-14          0.1 0.0090095813    31.672849  0.029884044 
number of iterations: 1952 
   19300    55.797552      700          589          111 5.9489613e-13 1.0090746e-14          0.1 0.0090097242    32.129361  0.029883806 
number of iterations: 1981 
   19400    56.009961      709          598          111 6.0277977e-13 1.0106657e-14          0.1  0.009009873    32.591928  0.029883558 
number of iterations: 1951 
   19500    56.221261      718          607          111 6.1076788e-13 1.0122628e-14          0.1 0.0090099997     33.06063  0.029883347 
number of iterations: 1926 
   19600    56.446127      724          612          112 6.1886185e-13 1.0138659e-14          0.1 0.0090101198    33.535549  0.029883147 
number of iterations: 1903 
   19700    56.646098      729          617          112 6.2706308e-13 1.015475e-14          0.1 0.0090102531    34.016769  0.029882925 
number of iterations: 1953 
   19800    56.870682      740          627          113  6.35373e-13 1.0170899e-14          0.1 0.0090103997    34.504372  0.029882681 
number of iterations: 1984 
   19900    57.121953      753          640          113 6.4379304e-13 1.0187107e-14          0.1 0.0090105401    34.998442  0.029882448 
number of iterations: 1918 
   20000    57.342855      761          648          113 6.5232466e-13 1.0203374e-14          0.1 0.0090106726    35.499065  0.029882227 
number of iterations: 1971 
   20100    57.565934      768          655          113 6.6096934e-13 1.0219699e-14          0.1 0.0090108149    36.006328   0.02988199 
number of iterations: 1961 
   20200     57.77672      773          660          113 6.6972859e-13 1.0236083e-14          0.1 0.0090109426     36.52032  0.029881777 
number of iterations: 1917 
   20300     57.97857      780          667          113 6.7860391e-13 1.0252525e-14          0.1 0.0090110828     37.04113  0.029881544 
number of iterations: 2054 
   20400    58.193111      781          668          113 6.8759684e-13 1.0269024e-14          0.1 0.0090112527    37.568848  0.029881261 
number of iterations: 1982 
   20500     58.43401      795          682          113 6.9670895e-13 1.0285582e-14          0.1 0.0090114021    38.103564  0.029881012 
number of iterations: 2062 
   20600    58.689699      808          695          113 7.0594182e-13 1.0302196e-14          0.1  0.009011571    38.645373  0.029880731 
number of iterations: 1978 
   20700    58.923455      822          709          113 7.1529704e-13 1.0318868e-14          0.1 0.0090117289    39.194369  0.029880468 
number of iterations: 1990 
   20800    59.167167      835          722          113 7.2477623e-13 1.0335597e-14          0.1 0.0090119128    39.750647  0.029880162 
number of iterations: 1955 
   20900    59.413967      842          729          113 7.3438104e-13 1.0352383e-14          0.1 0.0090120666    40.314302  0.029879906 
number of iterations: 1967 
   21000    59.640791      853          739          114 7.4411314e-13 1.0369226e-14          0.1 0.0090122175    40.885434  0.029879655 
number of iterations: 1967 
   21100    59.847858      862          747          115 7.539742e-13 1.0386125e-14          0.1 0.0090123795     41.46414  0.029879385 
number of iterations: 1998 
   21200    60.043274      868          753          115 7.6396595e-13 1.040308e-14          0.1 0.0090125455    42.050522  0.029879108 
number of iterations: 1964 
   21300     60.24998      879          764          115 7.740901e-13 1.0420092e-14          0.1 0.0090127081     42.64468  0.029878838 
number of iterations: 2023 
   21400    60.478207      887          772          115 7.8434842e-13 1.0437159e-14          0.1 0.0090128933    43.246718  0.029878529 
number of iterations: 2045 
   21500    60.716012      901          786          115 7.9474269e-13 1.0454283e-14          0.1 0.0090130733    43.856741  0.029878229 
number of iterations: 1980 
   21600    60.931489      909          794          115 8.0527469e-13 1.0471462e-14          0.1 0.0090132393    44.474854  0.029877953 
number of iterations: 1998 
   21700    61.175502      920          805          115 8.1594627e-13 1.0488696e-14          0.1 0.0090134029    45.101164  0.029877681 
number of iterations: 1954 
   21800    61.400732      930          815          115 8.2675927e-13 1.0505986e-14          0.1 0.0090135738    45.735781  0.029877396 
number of iterations: 1994 
   21900    61.732229      938          823          115 8.3771556e-13 1.0523331e-14          0.1 0.0090137566    46.378814  0.029877092 
number of iterations: 1966 
   22000    61.950215      949          834          115 8.4881705e-13 1.0540731e-14          0.1 0.0090139144    47.030376  0.029876829 
number of iterations: 2023 
   22100    62.166882      965          850          115 8.6006565e-13 1.0558185e-14          0.1 0.0090140878    47.690578   0.02987654 
number of iterations: 2025 
   22200    62.400433      975          859          116 8.7146331e-13 1.0575695e-14          0.1 0.0090142794    48.359535  0.029876221 
number of iterations: 1983 
   22300    62.608681      981          865          116 8.8301202e-13 1.0593259e-14          0.1 0.0090144768    49.037364  0.029875892 
number of iterations: 1978 
   22400    62.837343      990          874          116 8.9471377e-13 1.0610877e-14          0.1 0.0090146631    49.724182  0.029875582 
number of iterations: 2047 
   22500    63.081576     1004          888          116 9.065706e-13 1.062855e-14          0.1 0.0090148512    50.420108  0.029875269 
number of iterations: 2013 
   22600    63.282866     1022          906          116 9.1858455e-13 1.0646277e-14          0.1 0.0090150531    51.125262  0.029874933 
number of iterations: 1936 
   22700    63.527655     1033          917          116 9.3075771e-13 1.0664057e-14          0.1 0.0090152086    51.839766  0.029874674 
number of iterations: 1963 
   22800    63.789928     1049          933          116 9.4309218e-13 1.0681892e-14          0.1 0.0090153883    52.563746  0.029874375 
number of iterations: 2042 
   22900    64.048478     1055          939          116 9.5559012e-13 1.069978e-14          0.1 0.0090155784    53.297326  0.029874058 
number of iterations: 2044 
   23000    64.267114     1065          949          116 9.6825367e-13 1.0717721e-14          0.1 0.0090158051    54.040635  0.029873681 
number of iterations: 2047 
   23100    64.485125     1081          964          117 9.8108505e-13 1.0735716e-14          0.1  0.009016011    54.793801  0.029873338 
number of iterations: 2030 
   23200    64.711702     1101          984          117 9.9408646e-13 1.0753765e-14          0.1 0.0090162248    55.556955  0.029872982 
number of iterations: 2034 
   23300    64.930413     1113          995          118 1.0072602e-12 1.0771866e-14          0.1 0.0090164403    56.330229  0.029872623 
number of iterations: 2054 
   23400    65.154476     1128         1010          118 1.0206085e-12 1.0790021e-14          0.1 0.0090166646    57.113758   0.02987225 
number of iterations: 2028 
   23500     65.36163     1144         1026          118 1.0341336e-12 1.0808228e-14          0.1 0.0090168758    57.907676  0.029871898 
number of iterations: 2060 
   23600    65.574454     1158         1040          118 1.047838e-12 1.0826489e-14          0.1 0.0090171105    58.712122  0.029871507 
number of iterations: 2056 
   23700     65.81058     1172         1054          118 1.0617241e-12 1.0844802e-14          0.1 0.0090173487    59.527236   0.02987111 
number of iterations: 2084 
   23800    66.034266     1182         1064          118 1.0757941e-12 1.0863168e-14          0.1 0.0090175843    60.353159  0.029870718 
number of iterations: 2024 
   23900     66.24953     1197         1079          118 1.0900506e-12 1.0881586e-14          0.1 0.0090178053    61.190035   0.02987035 
number of iterations: 2028 
   24000    66.461541     1209         1091          118 1.104496e-12 1.0900056e-14          0.1 0.0090180418    62.038006  0.029869956 
number of iterations: 2059 
   24100    66.673199     1226         1107          119 1.1191329e-12 1.0918579e-14          0.1  0.009018277    62.897223  0.029869565 
number of iterations: 2109 
   24200    66.891144     1233         1114          119 1.1327624e-12 1.0937154e-14          0.1 0.0090185153    63.766912  0.029869168 
number of iterations: 2043 
   24300    67.118699     1251         1130          121 1.1477738e-12 1.0955781e-14          0.1 0.0090187609    64.648133  0.029868759 
number of iterations: 2111 
   24400    67.336462     1266         1145          121 1.1629842e-12 1.097446e-14          0.1 0.0090189969    65.541038  0.029868366 
number of iterations: 2093 
   24500    67.561917     1285         1164          121 1.1783961e-12 1.099319e-14          0.1 0.0090192463    66.445784  0.029867951 
number of iterations: 2057 
   24600    67.802415     1301         1180          121 1.1940123e-12 1.1011973e-14          0.1 0.0090194972    67.362526  0.029867533 
number of iterations: 2124 
   24700    68.057418     1317         1196          121 1.2098354e-12 1.1030807e-14          0.1 0.0090197829    68.291425  0.029867057 
number of iterations: 2075 
   24800    68.310397     1328         1207          121 1.2258682e-12 1.1049692e-14          0.1 0.0090200398     69.23264  0.029866629 
number of iterations: 2052 
   24900    68.545621     1341         1219          122 1.2421134e-12 1.1068629e-14          0.1 0.0090202943    70.186335  0.029866206 
number of iterations: 2092 
   25000    68.790901     1357         1235          122 1.258574e-12 1.1087617e-14          0.1 0.0090205746    71.152675  0.029865739 
number of iterations: 2141 
   25100    69.063478     1380         1258          122 1.2752526e-12 1.1106657e-14          0.1 0.0090208616    72.131829  0.029865261 
number of iterations: 2072 
   25200    69.279596     1400         1278          122 1.2921523e-12 1.1125748e-14          0.1 0.0090211484    73.123965  0.029864783 
number of iterations: 2112 
   25300     69.51126     1421         1298          123 1.309276e-12 1.114489e-14          0.1 0.0090214424    74.129256  0.029864294 
number of iterations: 2082 
   25400    69.752013     1439         1315          124 1.3266266e-12 1.1164082e-14          0.1 0.0090217203    75.147878  0.029863831 
number of iterations: 2079 
   25500    69.977683     1459         1335          124 1.3442071e-12 1.1183326e-14          0.1  0.009022017    76.180005  0.029863337 
number of iterations: 2088 
   25600     70.27228     1479         1355          124 1.3620205e-12 1.1202621e-14          0.1 0.0090223092    77.225818  0.029862851 
number of iterations: 2123 
   25700    70.504699     1490         1365          125 1.3800701e-12 1.1221967e-14          0.1 0.0090225915    78.285497  0.029862381 
number of iterations: 2084 
   25800    70.744049     1507         1382          125 1.3983588e-12 1.1241363e-14          0.1 0.0090228701    79.359226  0.029861917 
number of iterations: 2122 
   25900    70.987596     1525         1400          125 1.4168899e-12 1.126081e-14          0.1 0.0090231578    80.447192  0.029861437 
number of iterations: 2107 
   26000     71.20861     1540         1415          125 1.4356665e-12 1.1280307e-14          0.1  0.009023466    81.549582  0.029860924 
number of iterations: 2071 
   26100    71.447495     1561         1436          125 1.454692e-12 1.1299855e-14          0.1  0.009023741    82.666589  0.029860467 
number of iterations: 2167 
   26200    71.725883     1578         1452          126 1.4739696e-12 1.1319453e-14          0.1 0.0090240709    83.798405  0.029859917 
number of iterations: 2149 
   26300    71.965757     1591         1465          126 1.4935027e-12 1.1339102e-14          0.1 0.0090243996    84.945229   0.02985937 
number of iterations: 2122 
   26400    72.188662     1613         1487          126 1.5132946e-12 1.1358801e-14          0.1 0.0090247413    86.107256  0.029858801 
number of iterations: 2101 
   26500    72.457884     1631         1505          126 1.5333488e-12 1.137855e-14          0.1 0.0090250617     87.28469  0.029858267 
number of iterations: 2109 
   26600    72.703153     1652         1526          126 1.5536687e-12 1.139835e-14          0.1 0.0090253698    88.477734  0.029857754 
number of iterations: 2179 
   26700    72.944707     1674         1547          127 1.5728713e-12 1.1418199e-14          0.1  0.009025693    89.685533  0.029857216 
number of iterations: 2078 
   26800    73.172061     1695         1568          127 1.593715e-12 1.1438099e-14          0.1 0.0090259956    90.909347  0.029856712 
number of iterations: 2202 
   26900      73.4132     1717         1590          127 1.6136857e-12 1.1458048e-14          0.1 0.0090263461    92.148506  0.029856129 
number of iterations: 2136 
   27000    73.642416     1739         1612          127 1.6350702e-12 1.1478048e-14          0.1 0.0090266691    93.404093  0.029855591 
number of iterations: 2122 
   27100    73.870585     1761         1634          127 1.6567382e-12 1.1498097e-14          0.1 0.0090270036    94.676325  0.029855034 
number of iterations: 2135 
   27200    74.114733     1788         1660          128 1.6786933e-12 1.1518196e-14          0.1 0.0090273574    95.965423  0.029854445 
number of iterations: 2123 
   27300    74.346768     1807         1679          128 1.7009393e-12 1.1538345e-14          0.1 0.0090276899    97.271613  0.029853891 
number of iterations: 2136 
   27400    74.603157     1823         1695          128 1.7234801e-12 1.1558544e-14          0.1 0.0090280536     98.59512  0.029853285 
number of iterations: 2139 
   27500    74.843045     1849         1720          129 1.7463197e-12 1.1578792e-14          0.1 0.0090284065    99.936173  0.029852698 
number of iterations: 2219 
   27600    75.074785     1877         1748          129 1.7694619e-12 1.159909e-14          0.1 0.0090288208    101.29501  0.029852008 
number of iterations: 2179 
   27700    75.316625     1900         1771          129 1.7929108e-12 1.1619438e-14          0.1 0.0090291863    102.67186  0.029851399 
number of iterations: 2164 
   27800    75.548106     1925         1796          129 1.8166704e-12 1.1639835e-14          0.1 0.0090295688    104.06696  0.029850762 
number of iterations: 2170 
   27900    75.780508     1946         1817          129 1.8407449e-12 1.1660282e-14          0.1 0.0090299495    105.48056  0.029850128 
number of iterations: 2196 
   28000    76.011283     1975         1846          129 1.8651384e-12 1.1680778e-14          0.1   0.00903035    106.91289  0.029849462 
number of iterations: 2183 
   28100    76.245411     1995         1866          129 1.8898552e-12 1.1701324e-14          0.1 0.0090307157    108.36422  0.029848853 
number of iterations: 2163 
   28200     76.49142     2010         1881          129 1.9148995e-12 1.1721919e-14          0.1 0.0090311105    109.83479  0.029848195 
number of iterations: 2177 
   28300    76.753824     2036         1907          129 1.9402757e-12 1.1742563e-14          0.1 0.0090315311    111.32485  0.029847495 
number of iterations: 2181 
   28400    76.985801     2068         1939          129 1.9659881e-12 1.1763257e-14          0.1 0.0090319584    112.83467  0.029846784 
number of iterations: 2174 
   28500    77.220539     2095         1966          129 1.9920413e-12   1.1784e-14          0.1 0.0090323485     114.3645  0.029846134 
number of iterations: 2206 
   28600    77.465107     2118         1989          129 2.0184398e-12 1.1804792e-14          0.1 0.0090327708    115.91462  0.029845431 
number of iterations: 2210 
   28700    77.700066     2135         2006          129 2.0436989e-12 1.1825633e-14          0.1 0.0090332002    117.48414  0.029844716 
number of iterations: 2184 
   28800     77.93245     2171         2042          129 2.0707819e-12 1.1846524e-14          0.1 0.0090336412    119.07448  0.029843981 
number of iterations: 2200 
   28900    78.174894     2192         2063          129 2.0982238e-12 1.1867464e-14          0.1 0.0090340677    120.68589  0.029843271 
number of iterations: 2172 
   29000    78.443034     2215         2086          129 2.1260294e-12 1.1888453e-14          0.1 0.0090344844    122.31867  0.029842577 
number of iterations: 2221 
   29100    78.750242     2249         2120          129 2.1542034e-12 1.1909491e-14          0.1 0.0090349533    123.97309  0.029841797 
number of iterations: 2200 
   29200    79.031701     2277         2148          129 2.1827508e-12 1.1930578e-14          0.1 0.0090354245    125.64944  0.029841012 
number of iterations: 2272 
   29300     79.29004     2301         2172          129 2.2116765e-12 1.1951714e-14          0.1 0.0090359179    127.34802  0.029840191 
number of iterations: 2191 
   29400    79.540051     2327         2198          129 2.2401229e-12  1.19729e-14          0.1 0.0090363314    129.06846  0.029839502 
number of iterations: 2233 
   29500    79.781408     2362         2233          129 2.2698088e-12 1.1994134e-14          0.1  0.009036781     130.8117  0.029838753 
number of iterations: 2216 
   29600    80.029397     2397         2268          129 2.2998882e-12 1.2015417e-14          0.1 0.0090372922    132.57805  0.029837902 
number of iterations: 2210 
   29700     80.28769     2417         2288          129 2.3303662e-12 1.203675e-14          0.1 0.0090378022    134.36782  0.029837053 
number of iterations: 2286 
   29800    80.531213     2449         2319          130 2.361248e-12 1.2058131e-14          0.1 0.0090383233    136.18132  0.029836185 
number of iterations: 2240 
   29900    80.771968     2484         2354          130 2.3925391e-12 1.2079561e-14          0.1 0.0090388211    138.01885  0.029835356 
number of iterations: 2243 
   30000    81.059007     2515         2385          130 2.4242448e-12 1.2101041e-14          0.1  0.009039346    139.88075  0.029834482 
number of iterations: 2197 
   30100    81.298886     2546         2416          130 2.4563707e-12 1.2122569e-14          0.1 0.0090398558    141.76732  0.029833633 
number of iterations: 2238 
   30200    81.613378     2575         2445          130 2.4878653e-12 1.2144146e-14          0.1 0.0090403751     143.6781  0.029832769 
number of iterations: 2295 
   30300    81.873157     2622         2492          130 2.5208343e-12 1.2165772e-14          0.1 0.0090409458    145.61422  0.029831819 
number of iterations: 2280 
   30400    82.120806     2644         2514          130 2.5542401e-12 1.2187447e-14          0.1 0.0090415295      147.576  0.029830847 
number of iterations: 2271 
   30500    82.403324     2690         2560          130 2.5880887e-12 1.2209171e-14          0.1 0.0090420922    149.56379   0.02982991 
number of iterations: 2264 
   30600    82.662342     2726         2594          132 2.6223858e-12 1.2230944e-14          0.1   0.00904266    151.57792  0.029828964 
number of iterations: 2269 
   30700    82.910933     2766         2633          133 2.6571374e-12 1.2252765e-14          0.1 0.0090432341    153.61877  0.029828008 
number of iterations: 2262 
   30800    83.191297     2792         2659          133 2.6923495e-12 1.2274636e-14          0.1 0.0090438303    155.68666  0.029827016 
number of iterations: 2286 
   30900    83.453501     2820         2686          134 2.7280282e-12 1.2296555e-14          0.1 0.0090444299    157.78197  0.029826017 
number of iterations: 2246 
   31000    83.694254     2863         2729          134 2.7641798e-12 1.2318524e-14          0.1 0.0090450008    159.90505  0.029825066 
number of iterations: 2290 
   31100    83.984496     2895         2761          134 2.7998884e-12 1.2340541e-14          0.1 0.0090455734    162.05558  0.029824113 
number of iterations: 2294 
   31200     84.28511     2931         2797          134 2.8369922e-12 1.2362607e-14          0.1 0.0090462051    164.23461  0.029823061 
number of iterations: 2312 
   31300    84.553443     2975         2841          134 2.8734034e-12 1.2384722e-14          0.1 0.0090468029    166.44163  0.029822066 
number of iterations: 2309 
   31400    84.807053     3001         2866          135 2.9083778e-12 1.2406886e-14          0.1  0.009047376    168.67553  0.029821112 
number of iterations: 2271 
   31500    85.086422     3037         2902          135 2.9455815e-12 1.2429099e-14          0.1     0.009048    170.93801  0.029820073 
number of iterations: 2291 
   31600    85.384453     3072         2937          135 2.984616e-12 1.245136e-14          0.1 0.0090486164     173.2305  0.029819046 
number of iterations: 2281 
   31700    85.649038     3117         2981          136 3.0241677e-12 1.2473671e-14          0.1 0.0090492699    175.55337  0.029817958 
number of iterations: 2293 
   31800    85.905734     3161         3024          137 3.0642436e-12 1.2496031e-14          0.1 0.0090498993    177.90703   0.02981691 
number of iterations: 2272 
   31900    86.150274     3196         3058          138 3.1048505e-12 1.2518439e-14          0.1 0.0090505738     180.2919  0.029815787 
number of iterations: 2303 
   32000    86.427496     3230         3092          138 3.1459955e-12 1.2540896e-14          0.1  0.009051236    182.70838  0.029814684 
number of iterations: 2339 
   32100    86.704593     3275         3137          138 3.1864583e-12 1.2563403e-14          0.1 0.0090519067    185.15596  0.029813568 
number of iterations: 2319 
   32200    86.955419     3310         3172          138 3.227476e-12 1.2585958e-14          0.1 0.0090525799    187.63505  0.029812447 
number of iterations: 2291 
   32300    87.216219     3355         3217          138 3.2690378e-12 1.2608563e-14          0.1 0.0090532029    190.14608  0.029811409 
number of iterations: 2314 
   32400    87.539799     3402         3263          139 3.3123586e-12 1.2631216e-14          0.1 0.0090538898     192.6904  0.029810265 
number of iterations: 2334 
   32500    87.807603     3441         3302          139 3.3562534e-12 1.2653918e-14          0.1 0.0090545717    195.26844   0.02980913 
number of iterations: 2311 
   32600    88.090157     3484         3345          139 3.4007299e-12 1.2676669e-14          0.1 0.0090553344    197.88066   0.02980786 
number of iterations: 2348 
   32700    88.396163     3523         3384          139 3.4457959e-12 1.2699469e-14          0.1 0.0090560609     200.5275   0.02980665 
number of iterations: 2297 
   32800    88.661214     3576         3437          139 3.491459e-12 1.2722319e-14          0.1 0.0090568408    203.20944  0.029805352 
number of iterations: 2278 
   32900    88.917812     3617         3477          140 3.5355706e-12 1.2745217e-14          0.1 0.0090574699    205.92529  0.029804304 
number of iterations: 2346 
   33000    89.203266     3670         3530          140 3.5813679e-12 1.2768164e-14          0.1 0.0090582269    208.67634  0.029803044 
number of iterations: 2322 
   33100    89.468711     3715         3575          140 3.6276008e-12 1.2791161e-14          0.1 0.0090590077     211.4629  0.029801744 
number of iterations: 2348 
   33200    89.724954     3776         3636          140 3.6756731e-12 1.2814206e-14          0.1 0.0090597751     214.2864  0.029800466 
number of iterations: 2344 
   33300    89.979231     3813         3673          140 3.7235279e-12 1.2837301e-14          0.1 0.0090605248    217.14668  0.029799217 
number of iterations: 2363 
   33400    90.271734     3848         3708          140 3.7728714e-12 1.2860444e-14          0.1 0.0090613385    220.04487  0.029797862 
number of iterations: 2361 
   33500    90.525733     3894         3754          140 3.8215886e-12 1.2883637e-14          0.1  0.009062097    222.98051  0.029796599 
number of iterations: 2345 
   33600    90.787754     3947         3807          140 3.8704596e-12 1.2906879e-14          0.1   0.00906294    225.95371  0.029795196 
number of iterations: 2335 
   33700    91.069857     3993         3853          140 3.9208564e-12 1.293017e-14          0.1 0.0090637183    228.96565    0.0297939 
number of iterations: 2315 
   33800     91.37786     4041         3901          140 3.9716481e-12 1.2953511e-14          0.1 0.0090645144    232.01662  0.029792574 
number of iterations: 2371 
   33900    91.715337     4097         3956          141 4.0242796e-12  1.29769e-14          0.1 0.0090653893    235.10802  0.029791117 
number of iterations: 2376 
   34000     91.99835     4148         4007          141 4.0776085e-12 1.3000339e-14          0.1 0.0090662853    238.24041  0.029789625 
number of iterations: 2357 
   34100    92.269824     4201         4060          141 4.1304075e-12 1.3023827e-14          0.1 0.0090671372    241.41337  0.029788207 
number of iterations: 2349 
   34200    92.544146     4255         4114          141 4.1851427e-12 1.3047365e-14          0.1 0.0090679855    244.62839  0.029786795 
number of iterations: 2331 
   34300    92.802857     4314         4173          141 4.2384946e-12 1.3070952e-14          0.1 0.0090688743    247.88439  0.029785315 
number of iterations: 2422 
   34400    93.076814     4365         4224          141 4.2934367e-12 1.3094588e-14          0.1 0.0090698094    251.18263  0.029783758 
number of iterations: 2384 
   34500    93.344339     4421         4280          141 4.3503323e-12 1.3118274e-14          0.1 0.0090707625    254.52458  0.029782171 
number of iterations: 2342 
   34600    93.666283     4475         4334          141 4.4069456e-12 1.3142009e-14          0.1 0.0090716345    257.91005  0.029780719 
number of iterations: 2428 
   34700    93.997743     4531         4387          144 4.4653454e-12 1.3165794e-14          0.1 0.0090726202    261.34039  0.029779077 
number of iterations: 2341 
   34800    94.302114     4592         4448          144 4.5230597e-12 1.3189628e-14          0.1 0.0090734657    264.81509  0.029777669 
number of iterations: 2405 
   34900    94.589872     4650         4506          144 4.5829981e-12 1.3213512e-14          0.1 0.0090744705    268.33584  0.029775996 
number of iterations: 2405 
   35000    94.870109     4726         4582          144 4.6426366e-12 1.3237445e-14          0.1  0.009075466    271.90242  0.029774339 
Loop time of 94.8702 on 32 procs for 35000 steps with 4726 atoms

Performance: 318751201.766 tau/day, 368.925 timesteps/s
92.3% CPU use with 32 MPI tasks x no OpenMP threads

MPI task timing breakdown:
Section |  min time  |  avg time  |  max time  |%varavg| %total
---------------------------------------------------------------
Pair    | 0.0060618  | 0.080985   | 0.33598    |  27.3 |  0.09
Neigh   | 0.0037028  | 0.023101   | 0.074031   |  12.0 |  0.02
Comm    | 0.066831   | 0.18194    | 0.29505    |  15.0 |  0.19
Output  | 22.952     | 22.952     | 22.959     |   0.0 | 24.19
Modify  | 70.945     | 70.991     | 71.084     |   0.4 | 74.83
Other   |            | 0.6408     |            |       |  0.68

Nlocal:    147.688 ave 407 max 14 min
Histogram: 4 9 5 2 2 4 2 1 1 2
Nghost:    92.9062 ave 252 max 27 min
Histogram: 6 7 7 3 3 3 2 0 0 1
Neighs:    576.312 ave 1858 max 46 min
Histogram: 9 7 3 5 1 3 1 0 2 1

Total # of neighbors = 18442
Ave neighs/atom = 3.90224
Neighbor list builds = 721
Dangerous builds = 0
Total wall time: 0:01:35
