 NUFEB Simulation

     100 atoms 
     2 atom types 
     4 nutrients 

  0.0e-4   1.00e-04  xlo xhi 
  0.0e-4   1.00e-04  ylo yhi 
  0.0e-4   1.00e-05  zlo zhi 

 Atoms 

     1 1 1.40e-06  370 7.55e-05 4.31e-05 4.02e-06 1.40e-06 
     2 1 1.65e-06  370 9.68e-05 7.47e-05 6.79e-06 1.65e-06 
     3 1 1.48e-06  370 4.28e-05 7.93e-05 5.21e-06 1.48e-06 
     4 1 1.92e-06  370 4.47e-05 4.84e-05 6.69e-06 1.92e-06 
     5 1 1.63e-06  370 5.32e-05 5.73e-05 7.65e-06 1.63e-06 
     6 1 1.80e-06  370 7.86e-05 8.32e-05 4.86e-06 1.80e-06 
     7 1 1.53e-06  370 9.10e-05 6.24e-05 5.91e-06 1.53e-06 
     8 1 1.83e-06  370 2.36e-05 9.53e-05 2.32e-06 1.83e-06 
     9 1 1.70e-06  370 9.55e-05 3.32e-05 4.48e-06 1.70e-06 
     10 1 1.78e-06  370 7.29e-05 7.75e-05 5.18e-06 1.78e-06 
     11 1 1.62e-06  370 8.70e-05 9.79e-06 3.38e-06 1.62e-06 
     12 1 1.38e-06  370 7.53e-05 4.12e-05 7.07e-06 1.38e-06 
     13 1 1.41e-06  370 8.13e-05 6.55e-05 6.87e-06 1.41e-06 
     14 1 1.53e-06  370 2.44e-05 7.21e-05 7.39e-06 1.53e-06 
     15 1 1.59e-06  370 3.35e-05 1.25e-05 4.49e-06 1.59e-06 
     16 1 1.66e-06  370 5.51e-05 5.37e-05 6.52e-06 1.66e-06 
     17 1 1.63e-06  370 1.67e-05 1.89e-05 5.21e-06 1.63e-06 
     18 1 1.78e-06  370 3.33e-05 5.41e-05 6.35e-06 1.78e-06 
     19 1 1.54e-06  370 1.65e-05 3.30e-05 5.59e-06 1.54e-06 
     20 1 1.61e-06  370 1.77e-06 3.51e-05 7.53e-06 1.61e-06 
     21 1 1.63e-06  370 7.56e-05 6.92e-05 7.32e-06 1.63e-06 
     22 1 1.43e-06  370 4.14e-05 6.02e-05 4.66e-06 1.43e-06 
     23 1 1.80e-06  370 3.05e-05 3.05e-05 2.32e-06 1.80e-06 
     24 1 1.87e-06  370 6.99e-05 9.60e-05 6.51e-06 1.87e-06 
     25 1 1.45e-06  370 4.63e-05 3.52e-05 7.07e-06 1.45e-06 
     26 1 1.89e-06  370 7.09e-05 3.71e-05 3.58e-06 1.89e-06 
     27 1 1.70e-06  370 1.83e-05 8.12e-05 7.46e-06 1.70e-06 
     28 1 1.45e-06  370 6.65e-05 1.93e-05 3.28e-06 1.45e-06 
     29 1 1.70e-06  370 1.54e-05 6.37e-05 3.12e-06 1.70e-06 
     30 1 1.84e-06  370 4.62e-06 1.94e-05 7.65e-06 1.84e-06 
     31 1 1.63e-06  370 6.65e-05 4.28e-05 2.43e-06 1.63e-06 
     32 1 1.90e-06  370 9.75e-05 2.79e-06 4.56e-06 1.90e-06 
     33 1 1.90e-06  370 2.02e-05 9.48e-05 4.07e-06 1.90e-06 
     34 1 1.38e-06  370 7.72e-05 7.91e-05 4.04e-06 1.38e-06 
     35 1 1.80e-06  370 3.32e-05 4.33e-05 7.10e-06 1.80e-06 
     36 1 1.77e-06  370 8.14e-05 7.15e-05 6.68e-06 1.77e-06 
     37 1 1.91e-06  370 6.06e-05 2.96e-05 3.83e-06 1.91e-06 
     38 1 1.65e-06  370 8.30e-05 7.49e-05 6.09e-06 1.65e-06 
     39 1 1.70e-06  370 3.10e-05 4.63e-05 1.95e-06 1.70e-06 
     40 1 1.58e-06  370 9.08e-05 4.77e-05 4.31e-06 1.58e-06 
     41 1 1.54e-06  370 2.46e-06 7.18e-05 2.30e-06 1.54e-06 
     42 1 1.67e-06  370 7.20e-05 1.05e-05 3.31e-06 1.67e-06 
     43 1 1.58e-06  370 7.24e-05 1.85e-05 3.65e-06 1.58e-06 
     44 1 1.76e-06  370 6.33e-05 5.97e-05 7.90e-06 1.76e-06 
     45 1 1.51e-06  370 7.66e-05 2.39e-05 1.77e-06 1.51e-06 
     46 1 1.47e-06  370 9.66e-05 8.53e-05 4.38e-06 1.47e-06 
     47 1 1.73e-06  370 5.98e-05 2.36e-05 8.27e-06 1.73e-06 
     48 1 1.82e-06  370 2.07e-05 7.38e-05 7.42e-06 1.82e-06 
     49 1 1.45e-06  370 8.95e-05 1.19e-05 7.30e-06 1.45e-06 
     50 1 1.79e-06  370 5.51e-05 4.50e-05 2.09e-06 1.79e-06 
     51 2 1.34e-06  230 7.11e-05 6.66e-05 1.55e-06 1.34e-06 
     52 2 1.19e-06  230 2.25e-05 6.04e-06 4.43e-06 1.19e-06 
     53 2 1.31e-06  230 9.72e-05 5.61e-05 6.17e-06 1.31e-06 
     54 2 1.06e-06  230 8.86e-05 1.74e-06 3.59e-06 1.06e-06 
     55 2 1.05e-06  230 8.99e-05 8.98e-05 4.18e-06 1.05e-06 
     56 2 1.04e-06  230 1.73e-05 2.00e-05 6.39e-06 1.04e-06 
     57 2 1.32e-06  230 1.34e-05 4.42e-05 1.43e-06 1.32e-06 
     58 2 1.06e-06  230 3.62e-05 1.38e-05 7.18e-06 1.06e-06 
     59 2 1.22e-06  230 6.52e-05 9.59e-05 8.13e-06 1.22e-06 
     60 2 9.21e-07  230 1.71e-05 2.35e-05 2.35e-06 9.21e-07 
     61 2 1.07e-06  230 2.95e-05 5.18e-05 6.17e-06 1.07e-06 
     62 2 9.81e-07  230 7.51e-06 7.83e-05 4.43e-06 9.81e-07 
     63 2 1.30e-06  230 8.61e-06 8.30e-05 5.34e-06 1.30e-06 
     64 2 1.09e-06  230 6.75e-05 6.32e-05 8.52e-06 1.09e-06 
     65 2 1.34e-06  230 3.76e-05 5.03e-05 3.88e-06 1.34e-06 
     66 2 9.30e-07  230 4.86e-05 1.69e-05 7.35e-06 9.30e-07 
     67 2 9.92e-07  230 9.88e-06 2.32e-05 7.45e-06 9.92e-07 
     68 2 1.20e-06  230 8.32e-06 3.22e-05 3.00e-06 1.20e-06 
     69 2 1.38e-06  230 1.26e-05 4.34e-05 7.82e-06 1.38e-06 
     70 2 8.93e-07  230 1.22e-05 9.70e-05 7.77e-06 8.93e-07 
     71 2 9.77e-07  230 6.82e-05 3.63e-05 6.33e-06 9.77e-07 
     72 2 1.16e-06  230 5.50e-05 8.78e-05 2.38e-06 1.16e-06 
     73 2 1.27e-06  230 2.26e-05 5.51e-05 5.18e-06 1.27e-06 
     74 2 1.34e-06  230 8.91e-05 7.71e-05 6.28e-06 1.34e-06 
     75 2 9.04e-07  230 6.86e-05 9.30e-05 7.55e-06 9.04e-07 
     76 2 9.90e-07  230 8.97e-05 3.07e-05 5.41e-06 9.90e-07 
     77 2 9.81e-07  230 4.47e-05 4.35e-05 1.61e-06 9.81e-07 
     78 2 1.13e-06  230 5.90e-05 8.14e-05 7.73e-06 1.13e-06 
     79 2 1.31e-06  230 5.72e-06 7.57e-06 8.08e-06 1.31e-06 
     80 2 1.25e-06  230 1.53e-05 7.89e-05 8.14e-06 1.25e-06 
     81 2 1.33e-06  230 4.49e-05 2.72e-05 2.90e-06 1.33e-06 
     82 2 1.07e-06  230 8.16e-05 9.41e-05 1.73e-06 1.07e-06 
     83 2 1.06e-06  230 5.17e-05 4.93e-05 3.40e-06 1.06e-06 
     84 2 1.13e-06  230 6.57e-05 3.21e-05 8.46e-06 1.13e-06 
     85 2 1.18e-06  230 3.94e-06 7.06e-05 8.76e-06 1.18e-06 
     86 2 1.17e-06  230 2.07e-05 6.15e-05 5.86e-06 1.17e-06 
     87 2 1.13e-06  230 3.26e-05 8.22e-05 4.19e-06 1.13e-06 
     88 2 1.36e-06  230 8.18e-05 2.22e-05 5.12e-06 1.36e-06 
     89 2 8.83e-07  230 7.83e-05 6.69e-05 3.50e-06 8.83e-07 
     90 2 1.00e-06  230 5.30e-05 2.17e-05 5.90e-06 1.00e-06 
     91 2 1.27e-06  230 8.47e-05 5.76e-06 8.11e-06 1.27e-06 
     92 2 9.48e-07  230 4.14e-05 5.80e-05 8.34e-06 9.48e-07 
     93 2 1.15e-06  230 3.65e-05 4.73e-05 3.70e-06 1.15e-06 
     94 2 1.08e-06  230 9.69e-05 6.96e-05 5.74e-06 1.08e-06 
     95 2 1.34e-06  230 8.85e-05 8.07e-05 7.75e-06 1.34e-06 
     96 2 1.26e-06  230 3.71e-05 9.20e-06 3.11e-06 1.26e-06 
     97 2 1.29e-06  230 4.31e-05 3.78e-05 4.10e-06 1.29e-06 
     98 2 1.19e-06  230 2.89e-05 3.20e-05 1.50e-06 1.19e-06 
     99 2 1.05e-06  230 3.26e-05 2.78e-05 7.65e-06 1.05e-06 
     100 2 1.27e-06  230 1.48e-05 5.71e-05 6.45e-06 1.27e-06 

 Nutrients 

     1 sub g nn nn nn 1.00e-01 1.00e-01 
     2 o2 l nn nn nd 9.00e-03 9.00e-03 
     3 suc l nn nn nn 3.42e-20 3.42e-20 
     4 co2 l nn nn nd 2.99e-02 2.99e-02 

 Type Name 

     1 cyano  
     2 ecw  

 Diffusion Coeffs 

     sub 0 
     o2 2.3e-09 
     suc 5.2e-10 
     co2 1.9e-09 

 Growth Rate 

     cyano 1.67e-05 
     ecw 1.3e-05 

 Ks 

     cyano 0.00035 0.0002 0.01 0.000138 
     ecw 0 0.001 3.6 0.05 

 Yield 

     cyano 0.55 
     ecw 0.43 

 Maintenance 

     cyano 0 
     ecw 9.5e-07 

 Decay 

     cyano 0 
     ecw 0 



