LAMMPS (20 Nov 2019)
Reading data file ...
  orthogonal box = (0 0 0) to (0.0001 0.0001 1e-05)
  8 by 4 by 1 MPI processor grid
  reading atoms ...
  100 atoms
  4 nutrients
Lattice spacing in x,y,z = 100 100 100
50 atoms in group CYANO
50 atoms in group ECW
Model is defined as a closed system. 
Neighbor list info ...
  update every 1 steps, delay 0 steps, check yes
  max neighbors/atom: 5000, page size: 100000
  master list distance cutoff = 2.42e-06
  ghost atom cutoff = 2.42e-06
  binsize = 1.21e-06, bins = 83 83 9
  1 neighbor lists, perpetual/occasional/extra = 1 0 0
  (1) pair gran/hooke/history, perpetual
      attributes: half, newton off, size, history
      pair build: half/size/bin/newtoff
      stencil: half/bin/3d/newtoff
      bin: standard
Setting up Verlet run ...
  Unit style    : lj
  Current step  : 0
  Time step     : 10
Per MPI rank memory allocation (min/avg/max) = 6.792 | 11.11 | 12.11 Mbytes
Step CPU Atoms c_myNtypes[1] c_myNtypes[2] c_myMass[1] c_myMass[2] c_myCon[1] c_myCon[2] c_myCon[3] c_myCon[4] 
       0            0      100           50           50 4.5110945e-14 9.4283413e-15          0.1        0.009     3.42e-20       0.0299 
number of iterations: 324010 
     100    15.850758      138           50           88 4.5708765e-14 9.4213795e-15          0.1 0.0090007509  0.036243343  0.029898749 
number of iterations: 3833 
     200    16.220686      155           50          105 4.6314508e-14 9.4154739e-15          0.1 0.0090007608  0.071806181  0.029898733 
number of iterations: 2541 
     300     16.51051      155           50          105 4.6928278e-14 9.410634e-15          0.1 0.0090007709   0.10781307  0.029898716 
number of iterations: 2127 
     400    16.759217      155           50          105 4.7550182e-14 9.4068439e-15          0.1  0.009000781   0.14427282  0.029898699 
number of iterations: 1868 
     500    16.982433      155           50          105 4.8180327e-14 9.404093e-15          0.1 0.0090007913   0.18119231  0.029898682 
number of iterations: 1685 
     600    17.205422      156           51          105 4.8818823e-14 9.4023717e-15          0.1 0.0090008066   0.21857827  0.029898656 
number of iterations: 1545 
     700    17.410197      157           52          105 4.9465781e-14 9.4016713e-15          0.1  0.009000815   0.25643746  0.029898642 
number of iterations: 1434 
     800    17.607096      157           52          105 5.0121312e-14 9.4019834e-15          0.1 0.0090008257   0.29477666  0.029898624 
number of iterations: 1701 
     900    17.842644      159           54          105 5.078553e-14 9.4033002e-15          0.1 0.0090008432   0.33360273  0.029898595 
number of iterations: 1364 
    1000    18.043431      160           55          105 5.1458551e-14 9.4056145e-15          0.1  0.009000852   0.37292259   0.02989858 
number of iterations: 1426 
    1100    18.242007      160           55          105 5.2140491e-14 9.4089195e-15          0.1 0.0090008632   0.41274322  0.029898562 
number of iterations: 1620 
    1200    18.453003      161           56          105 5.2831468e-14 9.4132088e-15          0.1 0.0090008795   0.45307167  0.029898534 
number of iterations: 1431 
    1300    18.785413      161           56          105 5.3531602e-14 9.418476e-15          0.1 0.0090008911   0.49391512  0.029898515 
number of iterations: 1434 
    1400    19.009942      161           56          105 5.4241014e-14 9.4247154e-15          0.1 0.0090009029   0.53528084  0.029898495 
number of iterations: 1437 
    1500    19.211629      161           56          105 5.4959828e-14 9.4319215e-15          0.1 0.0090009148   0.57717614  0.029898475 
number of iterations: 1556 
    1600    19.423258      162           57          105 5.5688167e-14 9.4400892e-15          0.1 0.0090009222   0.61960846  0.029898463 
number of iterations: 1505 
    1700    19.610651      164           58          106 5.6426159e-14 9.4492128e-15          0.1 0.0090009359   0.66258533   0.02989844 
number of iterations: 1445 
    1800    19.805729      165           59          106 5.717393e-14 9.4592887e-15          0.1 0.0090009437   0.70611432  0.029898427 
number of iterations: 1448 
    1900    20.000422      165           59          106 5.7931611e-14 9.4703125e-15          0.1 0.0090009561   0.75020312  0.029898406 
number of iterations: 1451 
    2000    20.258155      165           59          106 5.8699334e-14 9.4822802e-15          0.1 0.0090009688   0.79485952  0.029898385 
number of iterations: 1455 
    2100    20.448681      168           62          106 5.947723e-14 9.4951883e-15          0.1 0.0090009832   0.84009141  0.029898361 
number of iterations: 1468 
    2200    20.651803      169           63          106 6.0265435e-14 9.5090333e-15          0.1 0.0090009977   0.88590677  0.029898337 
number of iterations: 1534 
    2300    20.861724      171           65          106 6.1064085e-14 9.5238121e-15          0.1 0.0090010158   0.93231367  0.029898307 
number of iterations: 1462 
    2400    21.047451      171           65          106 6.1873319e-14 9.5395217e-15          0.1 0.0090010292    0.9793203  0.029898284 
number of iterations: 1601 
    2500    21.248725      172           66          106 6.2693278e-14 9.5561594e-15          0.1 0.0090010477     1.026935  0.029898253 
number of iterations: 1461 
    2600    21.438279      173           67          106 6.3524102e-14 9.573723e-15          0.1 0.0090010569     1.075166  0.029898238 
number of iterations: 1471 
    2700     21.63481      173           67          106 6.4365937e-14 9.5922102e-15          0.1 0.0090010709    1.1240219  0.029898215 
number of iterations: 1474 
    2800    21.838151      173           67          106 6.5218928e-14 9.6116191e-15          0.1  0.009001085    1.1735114  0.029898191 
number of iterations: 1476 
    2900    22.039384      173           67          106 6.6083223e-14 9.631948e-15          0.1 0.0090010994     1.223643  0.029898167 
number of iterations: 1601 
    3000    22.255923      174           68          106 6.6958972e-14 9.6531955e-15          0.1 0.0090011205    1.2744256  0.029898132 
number of iterations: 1628 
    3100    22.443692      174           68          106 6.7846327e-14 9.6753602e-15          0.1  0.009001139    1.3258682  0.029898101 
number of iterations: 1486 
    3200    22.649104      174           68          106 6.8745441e-14 9.6984413e-15          0.1 0.0090011541    1.3779798  0.029898076 
number of iterations: 1489 
    3300    22.851449      174           68          106 6.965647e-14 9.7224378e-15          0.1 0.0090011694    1.4307695   0.02989805 
number of iterations: 1622 
    3400    23.051796      179           72          107 7.0579572e-14 9.7473501e-15          0.1 0.0090011866    1.4842466  0.029898022 
number of iterations: 1497 
    3500    23.335086      179           72          107 7.1514907e-14 9.773177e-15          0.1 0.0090012023    1.5384204  0.029897996 
number of iterations: 1500 
    3600    23.534079      179           72          107 7.2462638e-14 9.7999183e-15          0.1 0.0090012182    1.5933006  0.029897969 
number of iterations: 1502 
    3700    23.887889      179           72          107 7.3422928e-14 9.827574e-15          0.1 0.0090012343    1.6488967  0.029897942 
number of iterations: 1436 
    3800    24.072472      180           73          107 7.4395944e-14 9.8561452e-15          0.1 0.0090012483    1.7052185  0.029897919 
number of iterations: 1569 
    3900    24.273663      181           74          107 7.5381855e-14 9.8856315e-15          0.1 0.0090012697    1.7622759  0.029897883 
number of iterations: 1510 
    4000    24.492815      182           74          108 7.6380831e-14 9.9160336e-15          0.1 0.0090012865    1.8200789  0.029897855 
number of iterations: 1762 
    4100    24.717103      184           76          108 7.7393046e-14 9.9473519e-15          0.1  0.009001313    1.8786376  0.029897811 
number of iterations: 1516 
    4200    24.921589      184           76          108 7.8418674e-14 9.9795878e-15          0.1 0.0090013304    1.9379623  0.029897782 
number of iterations: 1518 
    4300    25.124004      184           76          108 7.9457895e-14 1.0012743e-14          0.1  0.009001348    1.9980634  0.029897752 
number of iterations: 1532 
    4400    25.319176      188           80          108 8.0510888e-14 1.0046817e-14          0.1 0.0090013622    2.0589513  0.029897729 
number of iterations: 1504 
    4500    25.507754      189           81          108 8.1577835e-14 1.0081812e-14          0.1 0.0090013802    2.1206371  0.029897699 
number of iterations: 1526 
    4600    25.689341      190           82          108 8.2658921e-14 1.0117731e-14          0.1 0.0090013939    2.1831312  0.029897676 
number of iterations: 1528 
    4700    25.867951      192           83          109 8.3754334e-14 1.0154576e-14          0.1 0.0090014085    2.2464447  0.029897651 
number of iterations: 1504 
    4800     26.05719      193           84          109 8.4864264e-14 1.0192349e-14          0.1 0.0090014271    2.3105886   0.02989762 
number of iterations: 1561 
    4900    26.282659      196           87          109 8.5988903e-14 1.0231051e-14          0.1 0.0090014462     2.375574  0.029897588 
number of iterations: 1731 
    5000    26.504177      196           87          109 8.7128446e-14 1.0270687e-14          0.1 0.0090014685    2.4414126  0.029897551 
number of iterations: 1603 
    5100     26.69599      199           90          109 8.828309e-14 1.0311258e-14          0.1 0.0090014884    2.5081157  0.029897518 
number of iterations: 1542 
    5200    26.860861      199           90          109 8.9453036e-14 1.0352768e-14          0.1 0.0090015081    2.5756951  0.029897485 
number of iterations: 1546 
    5300    27.051927      201           91          110 9.0638486e-14 1.0395218e-14          0.1  0.009001528    2.6441623  0.029897452 
number of iterations: 1547 
    5400    27.244043      202           91          111 9.1839646e-14 1.0438613e-14          0.1 0.0090015483    2.7135295  0.029897418 
number of iterations: 1550 
    5500    27.434409      202           91          111 9.3056724e-14 1.0482955e-14          0.1 0.0090015688    2.7838089  0.029897384 
number of iterations: 1566 
    5600    27.636121      204           93          111 9.4289931e-14 1.0528247e-14          0.1 0.0090015877    2.8550128  0.029897352 
number of iterations: 1556 
    5700    27.838807      205           94          111 9.553948e-14 1.0574494e-14          0.1 0.0090016087    2.9271536  0.029897317 
number of iterations: 1549 
    5800    28.038163      207           96          111 9.6805589e-14  1.06217e-14          0.1 0.0090016266    3.0002439  0.029897288 
number of iterations: 1561 
    5900    28.244443      209           97          112 9.8088477e-14 1.066987e-14          0.1 0.0090016481    3.0742964  0.029897252 
number of iterations: 1551 
    6000    28.450807      210           97          113 9.9388365e-14 1.0719007e-14          0.1 0.0090016699    3.1493242  0.029897215 
number of iterations: 1514 
    6100    28.795157      212           98          114 1.0070548e-13 1.0769116e-14          0.1 0.0090016909    3.2253404   0.02989718 
number of iterations: 1567 
    6200    28.995492      216          100          116 1.0204005e-13 1.0820199e-14          0.1 0.0090017087    3.3023582  0.029897151 
number of iterations: 1573 
    6300    29.181933      217          100          117 1.0339231e-13 1.0872261e-14          0.1 0.0090017313     3.380391  0.029897113 
number of iterations: 1575 
    6400    29.369303      220          102          118 1.0476248e-13 1.092531e-14          0.1 0.0090017531    3.4594525  0.029897077 
number of iterations: 1577 
    6500    29.574246      221          102          119 1.0615082e-13 1.0979348e-14          0.1 0.0090017717    3.5395566  0.029897045 
number of iterations: 1577 
    6600    29.765069      224          104          120 1.0755755e-13 1.1034381e-14          0.1 0.0090017905    3.6207172  0.029897014 
number of iterations: 1722 
    6700    29.954916      226          106          120 1.0898292e-13 1.1090414e-14          0.1 0.0090018173    3.7029486  0.029896969 
number of iterations: 1586 
    6800     30.19441      229          107          122 1.1042719e-13 1.1147452e-14          0.1 0.0090018453    3.7862651  0.029896923 
number of iterations: 1585 
    6900    30.400449      230          108          122 1.1189059e-13 1.1205502e-14          0.1 0.0090018682    3.8706813  0.029896884 
number of iterations: 1609 
    7000     30.60074      235          112          123 1.1337339e-13 1.126457e-14          0.1 0.0090018896    3.9562121  0.029896849 
number of iterations: 1602 
    7100    30.797796      237          113          124 1.1487583e-13 1.132466e-14          0.1 0.0090019146    4.0428722  0.029896807 
number of iterations: 1592 
    7200    30.979154      238          113          125 1.1639819e-13 1.138578e-14          0.1   0.00900194    4.1306768  0.029896765 
number of iterations: 1592 
    7300    31.194447      241          115          126 1.1794072e-13 1.1447934e-14          0.1  0.009001963    4.2196412  0.029896726 
number of iterations: 1629 
    7400    31.377158      242          116          126 1.195037e-13 1.1511131e-14          0.1 0.0090019944     4.309781  0.029896674 
number of iterations: 1547 
    7500     31.57315      245          119          126 1.2108738e-13 1.1575374e-14          0.1 0.0090020164    4.4011115  0.029896637 
number of iterations: 1629 
    7600    31.769706      248          121          127 1.2269206e-13 1.1640672e-14          0.1 0.0090020412    4.4936491  0.029896596 
number of iterations: 1577 
    7700    31.969892      250          122          128  1.24318e-13 1.1707033e-14          0.1 0.0090020682      4.58741  0.029896551 
number of iterations: 1644 
    7800    32.147332      251          123          128 1.2596549e-13 1.1774463e-14          0.1 0.0090020989    4.6824104    0.0298965 
number of iterations: 1685 
    7900    32.353149      255          127          128 1.2763481e-13 1.184297e-14          0.1 0.0090021171    4.7786672  0.029896469 
number of iterations: 1611 
    8000    32.557834      257          129          128 1.2932625e-13 1.1912559e-14          0.1 0.0090021403    4.8761971  0.029896431 
number of iterations: 1649 
    8100    32.777613      262          133          129 1.3104011e-13 1.1983239e-14          0.1 0.0090021725    4.9750169  0.029896377 
number of iterations: 1621 
    8200    32.967195      263          134          129 1.3277668e-13 1.2055016e-14          0.1 0.0090021923     5.075144  0.029896344 
number of iterations: 1638 
    8300    33.179141      266          136          130 1.3453626e-13  1.21279e-14          0.1 0.0090022164    5.1765956  0.029896304 
number of iterations: 1621 
    8400    33.412692      268          137          131 1.3631916e-13 1.2201899e-14          0.1 0.0090022488    5.2793896   0.02989625 
number of iterations: 1666 
    8500    33.682557      269          138          131 1.3812569e-13 1.227702e-14          0.1 0.0090022838    5.3835439  0.029896191 
number of iterations: 1630 
    8600    33.949514      269          138          131 1.3995616e-13 1.2353272e-14          0.1  0.009002314    5.4890769  0.029896141 
number of iterations: 1646 
    8700    34.151682      271          140          131 1.4181089e-13 1.2430665e-14          0.1 0.0090023402    5.5960069  0.029896097 
number of iterations: 1633 
    8800    34.339987      276          142          134 1.4369019e-13 1.2509204e-14          0.1 0.0090023633    5.7043525  0.029896059 
number of iterations: 1638 
    8900     34.52743      277          142          135 1.455944e-13 1.2588899e-14          0.1 0.0090023946    5.8141327  0.029896007 
number of iterations: 1670 
    9000    34.708712      283          147          136 1.4752385e-13 1.2669761e-14          0.1 0.0090024202    5.9253666  0.029895964 
number of iterations: 1636 
    9100    34.889365      284          148          136 1.4947886e-13 1.2751799e-14          0.1 0.0090024482    6.0380739  0.029895917 
number of iterations: 1646 
    9200    35.079867      287          149          138 1.5145979e-13 1.283502e-14          0.1 0.0090024807    6.1522739  0.029895863 
number of iterations: 1588 
    9300    35.270492      290          152          138 1.5346696e-13 1.2919435e-14          0.1 0.0090025054    6.2679865  0.029895822 
number of iterations: 1648 
    9400    35.460645      291          153          138 1.5550074e-13 1.3005053e-14          0.1 0.0090025386    6.3852321  0.029895766 
number of iterations: 1614 
    9500    35.644651      295          156          139 1.5756146e-13 1.3091881e-14          0.1 0.0090025698    6.5040307  0.029895714 
number of iterations: 1663 
    9600    35.843858      298          157          141 1.596495e-13 1.3179932e-14          0.1 0.0090026038    6.6244034  0.029895658 
number of iterations: 1684 
    9700    36.032454      304          163          141 1.6176521e-13 1.3269216e-14          0.1 0.0090026353    6.7463707  0.029895605 
number of iterations: 1658 
    9800    36.241442      307          164          143 1.6390895e-13 1.3359742e-14          0.1 0.0090026666    6.8699543  0.029895553 
number of iterations: 1666 
    9900    36.420983      309          165          144 1.660811e-13 1.3451522e-14          0.1  0.009002702    6.9951757  0.029895494 
number of iterations: 1718 
   10000    36.612712      310          166          144 1.6828204e-13 1.3544564e-14          0.1 0.0090027425     7.122057  0.029895426 
number of iterations: 1604 
   10100    36.809661      312          167          145 1.7051215e-13 1.3638881e-14          0.1 0.0090027743    7.2506201  0.029895373 
number of iterations: 1640 
   10200    36.987775      315          168          147 1.7277181e-13 1.3734481e-14          0.1 0.0090028111     7.380888  0.029895312 
number of iterations: 1693 
   10300      37.1855      319          172          147 1.7506142e-13 1.3831377e-14          0.1 0.0090028525    7.5128829  0.029895243 
number of iterations: 1760 
   10400    37.382399      321          174          147 1.7738136e-13 1.392958e-14          0.1 0.0090028965    7.6466275  0.029895169 
number of iterations: 1677 
   10500    37.593493      325          177          148 1.7973206e-13 1.4029101e-14          0.1 0.0090029388    7.7821451  0.029895099 
number of iterations: 1677 
   10600    37.782736      328          180          148 1.821139e-13 1.4129951e-14          0.1 0.0090029661    7.9194598  0.029895053 
number of iterations: 1648 
   10700    37.988108      330          182          148 1.8452731e-13 1.4232144e-14          0.1 0.0090030021    8.0585959  0.029894993 
number of iterations: 1685 
   10800    38.195418      333          183          150 1.869727e-13 1.4335689e-14          0.1 0.0090030431    8.1995772  0.029894925 
number of iterations: 1699 
   10900      38.4031      337          186          151 1.894505e-13  1.44406e-14          0.1 0.0090030859    8.3424285  0.029894854 
number of iterations: 1748 
   11000    38.595869      342          190          152 1.9196113e-13 1.4546888e-14          0.1  0.009003141    8.4871748  0.029894762 
number of iterations: 1724 
   11100    38.969909      343          191          152 1.9450504e-13 1.4654567e-14          0.1 0.0090031866    8.6338412  0.029894686 
number of iterations: 1734 
   11200    39.174966      348          192          156 1.9708266e-13 1.476365e-14          0.1 0.0090032302    8.7824533  0.029894613 
number of iterations: 1705 
   11300     39.37429      351          194          157 1.9969443e-13 1.4874148e-14          0.1 0.0090032769     8.933037  0.029894535 
number of iterations: 1704 
   11400    39.589935      355          197          158 2.0234082e-13 1.4986075e-14          0.1 0.0090033147    9.0856184  0.029894472 
number of iterations: 1665 
   11500    39.813867      362          200          162 2.0502228e-13 1.5099442e-14          0.1 0.0090033444    9.2402245  0.029894423 
number of iterations: 1705 
   11600    39.990644      369          204          165 2.0773927e-13 1.5214265e-14          0.1 0.0090033856     9.396882  0.029894354 
number of iterations: 1812 
   11700    40.224105      371          206          165 2.1049227e-13 1.5330556e-14          0.1 0.0090034481    9.5556183   0.02989425 
number of iterations: 1838 
   11800    40.433576      376          208          168 2.1328176e-13 1.5448329e-14          0.1 0.0090035024    9.7164609  0.029894159 
number of iterations: 1726 
   11900    40.630218      382          210          172 2.1610821e-13 1.5567598e-14          0.1 0.0090035489     9.879438  0.029894082 
number of iterations: 1675 
   12000    40.827647      389          214          175 2.1897211e-13 1.5688376e-14          0.1 0.0090035891    10.044578  0.029894015 
number of iterations: 1723 
   12100      41.0301      390          215          175 2.2187397e-13 1.5810677e-14          0.1 0.0090036318     10.21191  0.029893943 
number of iterations: 1722 
   12200    41.238453      392          217          175 2.2481429e-13 1.5934517e-14          0.1 0.0090036785    10.381462  0.029893866 
number of iterations: 1831 
   12300    41.429932      400          223          177 2.2779357e-13 1.605991e-14          0.1 0.0090037354    10.553265  0.029893771 
number of iterations: 1735 
   12400    41.633715      403          226          177 2.3081233e-13 1.6186872e-14          0.1  0.009003785    10.727348  0.029893688 
number of iterations: 1776 
   12500     41.81881      406          229          177 2.338711e-13 1.6315415e-14          0.1 0.0090038463    10.903742  0.029893586 
number of iterations: 1718 
   12600     42.00577      411          234          177 2.369704e-13 1.6445556e-14          0.1 0.0090038913    11.082477  0.029893511 
number of iterations: 1743 
   12700    42.198864      415          238          177 2.4011078e-13 1.6577311e-14          0.1 0.0090039486    11.263585  0.029893415 
number of iterations: 1816 
   12800      42.3883      421          244          177 2.4329277e-13 1.6710694e-14          0.1 0.0090040081    11.447097  0.029893316 
number of iterations: 1750 
   12900    42.583698      422          245          177 2.4651693e-13 1.6845721e-14          0.1 0.0090040612    11.633046  0.029893227 
number of iterations: 1722 
   13000    42.777896      426          247          179 2.4978382e-13 1.6982408e-14          0.1 0.0090041089    11.821463  0.029893148 
number of iterations: 1817 
   13100     42.98776      432          253          179  2.53094e-13 1.7120771e-14          0.1 0.0090041726    12.012382  0.029893042 
number of iterations: 1771 
   13200    43.200023      434          255          179 2.5644805e-13 1.7260828e-14          0.1 0.0090042253    12.205835  0.029892954 
number of iterations: 1767 
   13300    43.418108      442          259          183 2.5984654e-13 1.7402593e-14          0.1 0.0090042837    12.401857  0.029892857 
number of iterations: 1771 
   13400    43.642429      444          260          184 2.6329008e-13 1.7546085e-14          0.1 0.0090043284    12.600481  0.029892782 
number of iterations: 1721 
   13500    43.963104      453          264          189 2.6677924e-13 1.769132e-14          0.1 0.0090043775    12.801743    0.0298927 
number of iterations: 1780 
   13600    44.203513      455          266          189 2.7031465e-13 1.7838315e-14          0.1 0.0090044356    13.005677  0.029892603 
number of iterations: 1762 
   13700    44.398557      460          270          190 2.7389691e-13 1.7987088e-14          0.1  0.009004494    13.212319  0.029892506 
number of iterations: 1743 
   13800    44.586129      469          276          193 2.7752664e-13 1.8137655e-14          0.1 0.0090045424    13.421705  0.029892425 
number of iterations: 1782 
   13900    44.790873      474          277          197 2.8120447e-13 1.8290036e-14          0.1  0.009004603    13.633871  0.029892324 
number of iterations: 1781 
   14000    44.986354      477          279          198 2.8493104e-13 1.8444247e-14          0.1 0.0090046594    13.848855   0.02989223 
number of iterations: 1767 
   14100    45.203165      481          282          199  2.88707e-13 1.8600309e-14          0.1 0.0090047186    14.066693  0.029892131 
number of iterations: 1785 
   14200    45.403427      486          285          201  2.92533e-13 1.8758239e-14          0.1 0.0090047812    14.287425  0.029892027 
number of iterations: 1812 
   14300    45.597336      490          288          202 2.964097e-13 1.8918056e-14          0.1 0.0090048491    14.511088  0.029891914 
number of iterations: 1847 
   14400    45.796933      501          297          204 3.0033777e-13 1.9079777e-14          0.1 0.0090049221    14.737721  0.029891792 
number of iterations: 1817 
   14500    46.001776      509          304          205 3.043179e-13 1.9243422e-14          0.1 0.0090049894    14.967364   0.02989168 
number of iterations: 1848 
   14600    46.194109      521          312          209 3.0835077e-13 1.9409012e-14          0.1 0.0090050631    15.200057  0.029891557 
number of iterations: 1804 
   14700    46.406709      522          312          210 3.1243709e-13 1.9576566e-14          0.1 0.0090051354    15.435841  0.029891437 
number of iterations: 1832 
   14800    46.598953      531          319          212 3.1657756e-13 1.9746103e-14          0.1 0.0090052034    15.674757  0.029891323 
number of iterations: 1757 
   14900    46.784703      536          322          214 3.207729e-13 1.9917643e-14          0.1 0.0090052581    15.916846  0.029891232 
number of iterations: 1799 
   15000    46.991369      540          325          215 3.2502384e-13 2.0091208e-14          0.1 0.0090053131    16.162151   0.02989114 
number of iterations: 1817 
   15100    47.213589      543          327          216 3.2933111e-13 2.0266817e-14          0.1  0.009005388    16.410714  0.029891015 
number of iterations: 1816 
   15200    47.413259      550          331          219 3.3369547e-13 2.0444491e-14          0.1 0.0090054555    16.662578  0.029890903 
number of iterations: 1819 
   15300    47.614246      554          333          221 3.3811766e-13 2.0624251e-14          0.1 0.0090055236    16.917788  0.029890789 
number of iterations: 1837 
   15400     47.80747      559          336          223 3.4259845e-13 2.0806119e-14          0.1 0.0090056031    17.176388  0.029890657 
number of iterations: 1795 
   15500    48.010473      565          341          224 3.4713862e-13 2.0990116e-14          0.1  0.009005668    17.438422  0.029890549 
number of iterations: 1854 
   15600    48.233318      570          344          226 3.5173896e-13 2.1176263e-14          0.1  0.009005743    17.703938  0.029890424 
number of iterations: 1829 
   15700    48.433442      578          348          230 3.5640027e-13 2.1364584e-14          0.1 0.0090058185     17.97298  0.029890298 
number of iterations: 1837 
   15800    48.626606      583          352          231 3.6112335e-13 2.1555101e-14          0.1 0.0090058946    18.245597  0.029890171 
number of iterations: 1835 
   15900    48.971849      588          357          231 3.6590901e-13 2.1747835e-14          0.1 0.0090059729    18.521835   0.02989004 
number of iterations: 1883 
   16000    49.210451      595          360          235 3.707581e-13 2.194281e-14          0.1  0.009006049    18.801744  0.029889914 
number of iterations: 1833 
   16100    49.415534      605          370          235 3.7567145e-13 2.2140048e-14          0.1 0.0090061306     19.08537  0.029889778 
number of iterations: 1847 
   16200    49.608376      612          373          239 3.8064991e-13 2.2339574e-14          0.1 0.0090062119    19.372765  0.029889642 
number of iterations: 1888 
   16300    49.844438      620          378          242 3.8569435e-13 2.2541411e-14          0.1 0.0090062911    19.663977   0.02988951 
number of iterations: 1869 
   16400    50.050463      629          385          244 3.9080563e-13 2.2745583e-14          0.1 0.0090063689    19.959058   0.02988938 
number of iterations: 1845 
   16500    50.277256      636          390          246 3.9598465e-13 2.2952114e-14          0.1  0.009006458    20.258059  0.029889232 
number of iterations: 1855 
   16600    50.495323      645          396          249 4.0123231e-13 2.3161028e-14          0.1 0.0090065413    20.561033  0.029889093 
number of iterations: 1861 
   16700    50.699465      650          401          249 4.065495e-13 2.3372351e-14          0.1 0.0090066257    20.868032  0.029888952 
number of iterations: 1858 
   16800    50.897248      660          407          253 4.1193716e-13 2.3586108e-14          0.1 0.0090067034    21.179109  0.029888823 
number of iterations: 1888 
   16900    51.112602      669          414          255 4.1739622e-13 2.3802322e-14          0.1 0.0090068033     21.49432  0.029888656 
number of iterations: 1861 
   17000    51.364046      674          417          257 4.2292762e-13 2.402102e-14          0.1 0.0090068944    21.813718  0.029888504 
number of iterations: 1865 
   17100    51.567398      681          422          259 4.2853233e-13 2.4242229e-14          0.1 0.0090069732     22.13736  0.029888373 
number of iterations: 1845 
   17200    51.771248      692          430          262 4.3421131e-13 2.4465976e-14          0.1 0.0090070585    22.465302  0.029888231 
number of iterations: 1887 
   17300    51.977815      700          437          263 4.3996555e-13 2.4692286e-14          0.1 0.0090071458    22.797601  0.029888085 
number of iterations: 1876 
   17400    52.176554      710          444          266 4.4579604e-13 2.4921185e-14          0.1 0.0090072339    23.134315  0.029887938 
number of iterations: 1881 
   17500    52.393693      718          449          269 4.517038e-13 2.5152701e-14          0.1 0.0090073356    23.475503  0.029887769 
number of iterations: 1813 
   17600    52.600159      726          455          271 4.5768985e-13 2.5386862e-14          0.1 0.0090074214    23.821225  0.029887626 
number of iterations: 1900 
   17700    52.806853      737          466          271 4.6375523e-13 2.5623695e-14          0.1 0.0090075277     24.17154  0.029887448 
number of iterations: 1917 
   17800    53.015807      746          471          275 4.6990099e-13 2.5863228e-14          0.1 0.0090076337    24.526509  0.029887272 
number of iterations: 1865 
   17900    53.220604      748          472          276 4.7612819e-13 2.6105489e-14          0.1 0.0090077314    24.886194  0.029887109 
number of iterations: 1895 
   18000    53.490787      755          477          278 4.8243791e-13 2.6350508e-14          0.1 0.0090078295    25.250658  0.029886945 
number of iterations: 1911 
   18100    53.781899      763          482          281 4.8883126e-13 2.6598314e-14          0.1 0.0090079402    25.619964  0.029886761 
number of iterations: 1901 
   18200    54.010183      770          485          285 4.9530932e-13 2.6848935e-14          0.1 0.0090080499    25.994177  0.029886578 
number of iterations: 1894 
   18300    54.201136      779          490          289 5.0187324e-13 2.7102401e-14          0.1 0.0090081526    26.373361  0.029886407 
number of iterations: 1936 
   18400    54.410861      791          500          291 5.0852414e-13 2.7358742e-14          0.1 0.0090082587    26.757583   0.02988623 
number of iterations: 1930 
   18500    54.619556      804          507          297 5.1526318e-13 2.7617989e-14          0.1  0.009008364     27.14691  0.029886054 
number of iterations: 1941 
   18600    54.840665      812          513          299 5.2209153e-13 2.7880172e-14          0.1 0.0090084776    27.541409  0.029885865 
number of iterations: 1923 
   18700    55.047745      819          517          302 5.2901036e-13 2.8145322e-14          0.1 0.0090085914     27.94115  0.029885675 
number of iterations: 1922 
   18800    55.250862      830          524          306 5.3602088e-13 2.8413472e-14          0.1 0.0090087118    28.346203  0.029885475 
number of iterations: 1947 
   18900    55.508613      843          536          307 5.4312431e-13 2.8684652e-14          0.1   0.00900883    28.756637  0.029885278 
number of iterations: 1868 
   19000    55.731566      848          541          307 5.5032188e-13 2.8958894e-14          0.1 0.0090089309    29.172525  0.029885109 
number of iterations: 1931 
   19100    55.923399      859          550          309 5.5761482e-13 2.9236231e-14          0.1 0.0090090424    29.593938  0.029884923 
number of iterations: 1935 
   19200    56.131322      867          556          311 5.6500442e-13 2.9516696e-14          0.1 0.0090091561     30.02095  0.029884734 
number of iterations: 1951 
   19300     56.33194      875          564          311 5.7249194e-13 2.980032e-14          0.1 0.0090092853    30.453636  0.029884519 
number of iterations: 1940 
   19400     56.53196      884          572          312 5.8007868e-13 3.0087139e-14          0.1 0.0090094175    30.892071  0.029884298 
number of iterations: 1928 
   19500    56.738222      899          580          319 5.8776597e-13 3.0377186e-14          0.1 0.0090095334     31.33633  0.029884105 
number of iterations: 1995 
   19600    56.948578      911          586          325 5.9555513e-13 3.0670497e-14          0.1 0.0090096615    31.786492  0.029883891 
number of iterations: 1867 
   19700    57.158008      921          594          327 6.0344751e-13 3.0967104e-14          0.1 0.0090097717    32.242635  0.029883708 
number of iterations: 1963 
   19800    57.373307      938          605          333 6.1144448e-13 3.1267043e-14          0.1 0.0090099065    32.704838  0.029883483 
number of iterations: 1939 
   19900    57.637105      947          611          336 6.1954743e-13 3.1570349e-14          0.1 0.0090100433    33.173182  0.029883255 
number of iterations: 1912 
   20000    57.845622      959          619          340 6.2775776e-13 3.1877057e-14          0.1 0.0090101684    33.647749  0.029883046 
number of iterations: 1940 
   20100    58.051643      967          624          343 6.3607689e-13 3.2187205e-14          0.1 0.0090102995    34.128621  0.029882828 
number of iterations: 1965 
   20200    58.266751      978          633          345 6.4450627e-13 3.250083e-14          0.1 0.0090104245    34.615882  0.029882619 
number of iterations: 1948 
   20300     58.49111      992          640          352 6.5304736e-13 3.2817967e-14          0.1 0.0090105599    35.109618  0.029882394 
number of iterations: 1965 
   20400    58.719984     1004          651          353 6.6170163e-13 3.3138655e-14          0.1 0.0090106901    35.609915  0.029882177 
number of iterations: 1993 
   20500    59.082902     1017          659          358 6.7047059e-13 3.3462931e-14          0.1 0.0090108236    36.116859  0.029881954 
number of iterations: 1956 
   20600    59.290075     1028          666          362 6.7935575e-13 3.3790834e-14          0.1 0.0090109695    36.630539  0.029881711 
number of iterations: 2014 
   20700    59.511144     1046          682          364 6.8835867e-13 3.4122402e-14          0.1 0.0090111363    37.151045  0.029881433 
number of iterations: 1974 
   20800    59.735155     1061          694          367 6.9748089e-13 3.4457675e-14          0.1 0.0090112812    37.678466  0.029881191 
number of iterations: 1973 
   20900     59.94011     1068          699          369  7.06724e-13 3.4796693e-14          0.1 0.0090114452    38.212896  0.029880918 
number of iterations: 1986 
   21000    60.209879     1080          708          372 7.1608959e-13 3.5139496e-14          0.1 0.0090116055    38.754426  0.029880651 
number of iterations: 1971 
   21100    60.429135     1092          716          376 7.2557931e-13 3.5486123e-14          0.1 0.0090117635    39.303152  0.029880387 
number of iterations: 1972 
   21200    60.664775     1106          723          383 7.3519478e-13 3.5836617e-14          0.1 0.0090119198    39.859168  0.029880127 
number of iterations: 1954 
   21300    60.864897     1122          733          389 7.4493767e-13 3.6191017e-14          0.1 0.0090120629    40.422571  0.029879888 
number of iterations: 1965 
   21400    61.093567     1135          743          392 7.5480968e-13 3.6549367e-14          0.1 0.0090122177    40.993461   0.02987963 
number of iterations: 2007 
   21500    61.324474     1153          757          396 7.6481251e-13 3.6911707e-14          0.1 0.0090123751    41.571935  0.029879368 
number of iterations: 2006 
   21600    61.546411     1173          771          402 7.749479e-13 3.7278081e-14          0.1 0.0090125376    42.158095  0.029879097 
number of iterations: 1992 
   21700    61.803011     1180          777          403 7.852176e-13 3.7648532e-14          0.1 0.0090126979    42.752044   0.02987883 
number of iterations: 1989 
   21800    62.042837     1194          786          408 7.956234e-13 3.8023103e-14          0.1 0.0090128551    43.353883  0.029878568 
number of iterations: 1976 
   21900    62.249488     1208          796          412 8.061671e-13 3.8401839e-14          0.1 0.0090130377    43.963718  0.029878264 
number of iterations: 2065 
   22000    62.481222     1220          805          415 8.1685052e-13 3.8784785e-14          0.1 0.0090131936    44.581656  0.029878004 
number of iterations: 2049 
   22100    62.686427     1233          815          418 8.2767552e-13 3.9171987e-14          0.1 0.0090133766    45.207805  0.029877699 
number of iterations: 1981 
   22200    62.886979     1246          825          421 8.3864397e-13 3.9563488e-14          0.1 0.0090135525    45.842273  0.029877405 
number of iterations: 2027 
   22300    63.115154     1258          833          425 8.4975778e-13 3.9959335e-14          0.1 0.0090137383    46.485172  0.029877096 
number of iterations: 1971 
   22400    63.386108     1280          848          432 8.6101887e-13 4.0359575e-14          0.1 0.0090139014    47.136612  0.029876824 
number of iterations: 2012 
   22500    63.598237     1295          856          439 8.7242919e-13 4.0764256e-14          0.1 0.0090140859    47.796708  0.029876516 
number of iterations: 2045 
   22600    63.930094     1311          869          442 8.8399072e-13 4.1173425e-14          0.1  0.009014283    48.465575  0.029876188 
number of iterations: 2002 
   22700    64.159711     1324          876          448 8.9570546e-13 4.1587128e-14          0.1 0.0090144666    49.143328  0.029875882 
number of iterations: 2015 
   22800    64.401152     1344          890          454 9.0757545e-13 4.2005416e-14          0.1 0.0090146657    49.830086   0.02987555 
number of iterations: 2033 
   22900    64.611825     1356          900          456 9.1960273e-13 4.2428337e-14          0.1 0.0090148605    50.525968  0.029875225 
number of iterations: 2044 
   23000    64.831405     1378          918          460 9.3178941e-13 4.2855942e-14          0.1  0.009015095    51.231096  0.029874834 
number of iterations: 2047 
   23100    65.049705     1394          930          464 9.4413758e-13 4.3288281e-14          0.1 0.0090152954    51.945593    0.0298745 
number of iterations: 2095 
   23200    65.271459     1420          946          474 9.5664939e-13 4.3725406e-14          0.1 0.0090155095    52.669583  0.029874144 
number of iterations: 2045 
   23300     65.48409     1432          957          475  9.69327e-13 4.4167367e-14          0.1 0.0090157031    53.403191  0.029873821 
number of iterations: 2098 
   23400    65.706719     1447          969          478 9.8217262e-13 4.4614217e-14          0.1 0.0090159344    54.146546  0.029873435 
number of iterations: 2039 
   23500    65.935695     1461          978          483 9.9518847e-13 4.5066007e-14          0.1 0.0090161545    54.899778  0.029873068 
number of iterations: 2048 
   23600     66.17329     1477          992          485 1.0083768e-12 4.5522793e-14          0.1 0.0090163834    55.663016  0.029872687 
number of iterations: 2030 
   23700    66.414638     1497         1006          491 1.0217399e-12 4.5984627e-14          0.1 0.0090165866    56.436395  0.029872348 
number of iterations: 2057 
   23800    66.640705     1524         1024          500 1.0352801e-12 4.6451563e-14          0.1 0.0090168156    57.220049  0.029871967 
number of iterations: 2071 
   23900    66.874264     1537         1034          503 1.0489997e-12 4.6923657e-14          0.1 0.0090170343    58.014113  0.029871602 
number of iterations: 2083 
   24000    67.083895     1561         1050          511 1.0629012e-12 4.7400963e-14          0.1 0.0090172717    58.818728  0.029871206 
number of iterations: 2058 
   24100    67.297998     1578         1063          515 1.0769868e-12 4.7883538e-14          0.1 0.0090174937    59.634031  0.029870836 
number of iterations: 2073 
   24200    67.524653     1593         1075          518 1.0912591e-12 4.8371438e-14          0.1 0.0090177186    60.460168  0.029870462 
number of iterations: 2086 
   24300    67.746322     1610         1086          524 1.1057206e-12 4.8864722e-14          0.1 0.0090179452    61.297281  0.029870084 
number of iterations: 2088 
   24400     67.97936     1637         1108          529 1.1203737e-12 4.9363446e-14          0.1 0.0090182001    62.145515  0.029869659 
number of iterations: 2073 
   24500    68.214865     1654         1124          530 1.135221e-12 4.9867671e-14          0.1 0.0090184604    63.005017  0.029869225 
number of iterations: 2052 
   24600    68.423423     1673         1138          535 1.150265e-12 5.0377455e-14          0.1 0.0090186857    63.875938   0.02986885 
number of iterations: 2154 
   24700    68.641631     1693         1152          541 1.1655084e-12 5.0892857e-14          0.1 0.0090189687    64.758432  0.029868378 
number of iterations: 2057 
   24800     69.06124     1712         1168          544 1.1797408e-12 5.1413938e-14          0.1 0.0090192188    65.651718  0.029867961 
number of iterations: 2105 
   24900    69.302612     1738         1186          552 1.1953748e-12 5.1940759e-14          0.1  0.009019475    66.556871  0.029867534 
number of iterations: 2094 
   25000    69.531755     1761         1205          556 1.211216e-12 5.2473382e-14          0.1  0.009019723     67.47405  0.029867121 
number of iterations: 2090 
   25100    69.755623     1782         1219          563 1.2272671e-12 5.301187e-14          0.1 0.0090199492    68.403414  0.029866744 
number of iterations: 2112 
   25200    69.997212     1803         1235          568 1.2435309e-12 5.3556285e-14          0.1 0.0090202382    69.345125  0.029866262 
number of iterations: 2145 
   25300    70.263743     1823         1251          572 1.2600103e-12 5.4106691e-14          0.1  0.009020508    70.299346  0.029865812 
number of iterations: 2100 
   25400    70.514149     1841         1266          575 1.276708e-12 5.4663155e-14          0.1 0.0090208043    71.266244  0.029865319 
number of iterations: 2087 
   25500    70.758843     1866         1284          582 1.293627e-12 5.5225741e-14          0.1 0.0090210633    72.245987  0.029864887 
number of iterations: 2087 
   25600    70.983688     1890         1298          592 1.3107703e-12 5.5794513e-14          0.1 0.0090213415    73.238745  0.029864423 
number of iterations: 2088 
   25700    71.213625     1918         1320          598 1.3281407e-12 5.636954e-14          0.1 0.0090216023    74.244691  0.029863989 
number of iterations: 2134 
   25800    71.435636     1939         1334          605 1.3457413e-12 5.695089e-14          0.1 0.0090219055       75.264  0.029863483 
number of iterations: 2133 
   25900    71.666438     1960         1349          611 1.3635751e-12 5.7538631e-14          0.1 0.0090222053    76.296851  0.029862984 
number of iterations: 2100 
   26000    71.902359     1984         1365          619 1.3816453e-12 5.8132831e-14          0.1 0.0090224954    77.343421    0.0298625 
number of iterations: 2110 
   26100    72.127141     2010         1383          627 1.3999549e-12 5.8733559e-14          0.1 0.0090227965    78.403895  0.029861998 
number of iterations: 2121 
   26200    72.439304     2028         1399          629 1.4185072e-12 5.9340889e-14          0.1 0.0090230987    79.478457  0.029861494 
number of iterations: 2145 
   26300    72.695464     2062         1426          636 1.4373053e-12 5.9954889e-14          0.1 0.0090233734    80.567294  0.029861037 
number of iterations: 2147 
   26400    72.942001     2081         1442          639 1.4563526e-12 6.0575632e-14          0.1 0.0090236829    81.670595  0.029860521 
number of iterations: 2144 
   26500    73.174254     2100         1456          644 1.4756522e-12 6.1203192e-14          0.1 0.0090240037    82.788552  0.029859986 
number of iterations: 2144 
   26600    73.457606     2123         1473          650 1.4952076e-12 6.1837642e-14          0.1 0.0090243444    83.921361  0.029859418 
number of iterations: 2105 
   26700    73.688166     2147         1488          659 1.5150222e-12 6.2479056e-14          0.1 0.0090246574    85.069217  0.029858897 
number of iterations: 2147 
   26800     74.10986     2185         1515          670 1.5350993e-12 6.312751e-14          0.1 0.0090249937     86.23232  0.029858336 
number of iterations: 2116 
   26900    74.374676     2204         1527          677 1.5554425e-12 6.378308e-14          0.1 0.0090253077    87.410877  0.029857813 
number of iterations: 2141 
   27000    74.611569     2236         1546          690 1.5760553e-12 6.4445842e-14          0.1 0.0090256407     88.60509  0.029857258 
number of iterations: 2129 
   27100     74.85208     2264         1565          699 1.5969413e-12 6.5115875e-14          0.1 0.0090260078    89.815167  0.029856646 
number of iterations: 2174 
   27200    75.077536     2294         1587          707 1.618104e-12 6.5793257e-14          0.1 0.0090263707     91.04132  0.029856041 
number of iterations: 2109 
   27300     75.30932     2321         1610          711 1.6395471e-12 6.6478067e-14          0.1 0.0090266977     92.28376  0.029855496 
number of iterations: 2125 
   27400    75.549598     2348         1631          717 1.6612745e-12 6.7170385e-14          0.1 0.0090270301    93.542705  0.029854942 
number of iterations: 2172 
   27500    75.809591     2378         1653          725 1.6832897e-12 6.7870293e-14          0.1 0.0090274065    94.818372  0.029854315 
number of iterations: 2148 
   27600    76.046964     2408         1678          730 1.7055967e-12 6.8577873e-14          0.1 0.0090277608    96.110985  0.029853724 
number of iterations: 2133 
   27700    76.274858     2443         1705          738 1.7270882e-12 6.9293208e-14          0.1 0.0090281181    97.419919  0.029853129 
number of iterations: 2190 
   27800    76.507879     2474         1729          745 1.7487718e-12 7.0016381e-14          0.1 0.0090284626    98.745317  0.029852555 
number of iterations: 2132 
   27900    76.733736     2502         1749          753 1.7719465e-12 7.0747478e-14          0.1 0.0090287975    100.08832  0.029851997 
number of iterations: 2112 
   28000    76.974685     2528         1770          758 1.7934736e-12 7.1486582e-14          0.1 0.0090291107    101.44767  0.029851474 
number of iterations: 2175 
   28100    77.214756     2557         1786          771 1.8172407e-12 7.2233782e-14          0.1 0.0090294794    102.82507   0.02985086 
number of iterations: 2157 
   28200     77.45836     2586         1805          781 1.840275e-12 7.2989164e-14          0.1 0.0090298473    104.21996  0.029850247 
number of iterations: 2187 
   28300     77.69774     2616         1828          788 1.8646624e-12 7.3752818e-14          0.1  0.009030234    105.63339  0.029849602 
number of iterations: 2114 
   28400    77.920776     2649         1853          796 1.888121e-12 7.4524831e-14          0.1 0.0090306015    107.06463   0.02984899 
number of iterations: 2224 
   28500    78.150824     2685         1879          806 1.9131424e-12 7.5305297e-14          0.1  0.009031042    108.51489  0.029848256 
number of iterations: 2162 
   28600    78.393889     2725         1906          819 1.9384953e-12 7.6094306e-14          0.1 0.0090314288     109.9844  0.029847611 
number of iterations: 2168 
   28700    78.647559     2760         1936          824 1.9641843e-12 7.689195e-14          0.1 0.0090318285    111.47344  0.029846945 
number of iterations: 2209 
   28800    78.963007     2795         1961          834 1.9902137e-12 7.7698324e-14          0.1  0.009032257    112.98226  0.029846231 
number of iterations: 2196 
   28900    79.221638     2823         1984          839 2.016588e-12 7.8513521e-14          0.1 0.0090326848    114.51111  0.029845518 
number of iterations: 2205 
   29000    79.462546     2863         2014          849 2.0433118e-12 7.9337637e-14          0.1 0.0090331363    116.06028  0.029844765 
number of iterations: 2201 
   29100    79.705092     2899         2040          859 2.0703898e-12 8.0170769e-14          0.1  0.009033568    117.63002  0.029844046 
number of iterations: 2212 
   29200    79.962739     2941         2070          871 2.0978266e-12 8.1013015e-14          0.1 0.0090340151    119.22062  0.029843301 
number of iterations: 2187 
   29300    80.250642     2978         2098          880 2.1245789e-12 8.1864473e-14          0.1 0.0090344519    120.83154  0.029842573 
number of iterations: 2181 
   29400    80.500596     3015         2128          887 2.1527338e-12 8.2725242e-14          0.1 0.0090348947    122.46386  0.029841835 
number of iterations: 2253 
   29500    80.757119     3050         2155          895 2.1812618e-12 8.3595424e-14          0.1 0.0090353607    124.11786  0.029841058 
number of iterations: 2209 
   29600    81.049546     3089         2184          905 2.2101679e-12 8.4475121e-14          0.1 0.0090358372    125.79383  0.029840264 
number of iterations: 2147 
   29700    81.272708     3126         2211          915 2.2384144e-12 8.5364435e-14          0.1 0.0090362252    127.49126  0.029839617 
number of iterations: 2194 
   29800    81.550652     3155         2238          917 2.2680778e-12 8.6263472e-14          0.1 0.0090367239    129.21124  0.029838786 
number of iterations: 2187 
   29900    81.805985     3189         2264          925 2.297138e-12 8.7172336e-14          0.1 0.0090372191     130.9533  0.029837961 
number of iterations: 2229 
   30000    82.059585     3237         2300          937 2.3275796e-12 8.8091136e-14          0.1 0.0090377141     132.7185  0.029837136 
number of iterations: 2196 
   30100    82.295478     3282         2331          951 2.3558815e-12 8.9019976e-14          0.1 0.0090381454     134.5052  0.029836417 
number of iterations: 2221 
   30200    82.528351     3322         2360          962 2.3871016e-12 8.9958965e-14          0.1 0.0090385984    136.31564  0.029835662 
number of iterations: 2241 
   30300    82.793346     3370         2392          978 2.4187354e-12 9.0908216e-14          0.1  0.009039168    138.15012  0.029834713 
number of iterations: 2223 
   30400    83.044617     3409         2423          986 2.4507884e-12 9.1867838e-14          0.1 0.0090396874    140.00896  0.029833847 
number of iterations: 2239 
   30500     83.32746     3454         2459          995 2.4832661e-12 9.2837943e-14          0.1 0.0090402329     141.8925  0.029832938 
number of iterations: 2231 
   30600    83.609479     3489         2486         1003 2.5161743e-12 9.3818645e-14          0.1 0.0090407133    143.80106  0.029832138 
number of iterations: 2226 
   30700    83.846288     3532         2516         1016 2.5495185e-12 9.481006e-14          0.1 0.0090412647    145.73496  0.029831219 
number of iterations: 2256 
   30800    84.107945     3576         2552         1024 2.5833046e-12 9.5812305e-14          0.1  0.009041826    147.69456  0.029830283 
number of iterations: 2210 
   30900    84.348729     3614         2581         1033 2.6126927e-12 9.6825496e-14          0.1 0.0090423263    149.67647  0.029829449 
number of iterations: 2227 
   31000    84.586934     3668         2616         1052 2.6452958e-12 9.784975e-14          0.1 0.0090428576    151.68315  0.029828564 
number of iterations: 2262 
   31100    84.915632     3711         2647         1064 2.6792481e-12 9.8885188e-14          0.1 0.0090434154    153.71564  0.029827634 
number of iterations: 2242 
   31200    85.180045     3752         2677         1075 2.7147533e-12 9.9931932e-14          0.1  0.009043953    155.77513  0.029826738 
number of iterations: 2268 
   31300    85.461425     3800         2719         1081 2.750729e-12 1.009901e-13          0.1 0.0090445379    157.86196  0.029825764 
number of iterations: 2263 
   31400     85.75045     3854         2763         1091 2.7871815e-12 1.0205983e-13          0.1 0.0090451394    159.97651  0.029824761 
number of iterations: 2246 
   31500    85.993799     3892         2789         1103 2.8209732e-12 1.0314123e-13          0.1 0.0090457057    162.11675  0.029823817 
number of iterations: 2236 
   31600    86.263432     3922         2810         1112 2.8570239e-12 1.0423443e-13          0.1 0.0090463032    164.28438  0.029822822 
number of iterations: 2252 
   31700    86.533252     3975         2854         1121 2.8948849e-12 1.0533957e-13          0.1 0.0090469187    166.48081  0.029821796 
number of iterations: 2264 
   31800     86.79086     4005         2876         1129 2.9332477e-12 1.0645677e-13          0.1 0.0090475539     168.7064  0.029820737 
number of iterations: 2262 
   31900    87.067031     4054         2914         1140 2.9721189e-12 1.0758616e-13          0.1  0.009048156    170.96156  0.029819734 
number of iterations: 2285 
   32000    87.329579     4100         2951         1149 3.0105187e-12 1.0872787e-13          0.1 0.0090488257    173.24592  0.029818618 
number of iterations: 2288 
   32100    87.601107     4154         2989         1165 3.0489762e-12 1.0988204e-13          0.1 0.0090494648    175.55951  0.029817553 
number of iterations: 2288 
   32200    87.851652     4202         3030         1172 3.0885745e-12 1.1104881e-13          0.1 0.0090501307    177.90321  0.029816443 
number of iterations: 2306 
   32300    88.121422     4251         3068         1183 3.129504e-12 1.1222831e-13          0.1 0.0090508258    180.27804  0.029815285 
number of iterations: 2283 
   32400    88.382544     4303         3109         1194 3.1709759e-12 1.1342067e-13          0.1 0.0090514976    182.68441  0.029814165 
number of iterations: 2284 
   32500    88.646033     4350         3145         1205 3.2118296e-12 1.1462605e-13          0.1 0.0090521434    185.12184  0.029813089 
number of iterations: 2296 
   32600    88.924491     4412         3187         1225 3.2534274e-12 1.1584457e-13          0.1 0.0090528158     187.5909  0.029811969 
number of iterations: 2304 
   32700    89.199587     4469         3227         1242 3.2965414e-12 1.1707638e-13          0.1 0.0090535147    190.09276  0.029810804 
number of iterations: 2294 
   32800    89.462919     4528         3269         1259 3.3382484e-12 1.1832163e-13          0.1 0.0090542223    192.62632  0.029809625 
number of iterations: 2312 
   32900    89.732772     4600         3324         1276 3.3824865e-12 1.1958046e-13          0.1 0.0090549483    195.19354  0.029808415 
number of iterations: 2328 
   33000     90.00561     4665         3381         1284 3.4273108e-12 1.2085302e-13          0.1  0.009055749    197.79485  0.029807081 
number of iterations: 2254 
   33100    90.339396     4723         3429         1294 3.470345e-12 1.2213947e-13          0.1 0.0090564129    200.42888  0.029805974 
number of iterations: 2329 
   33200    90.619268     4772         3464         1308 3.5125034e-12 1.2343993e-13          0.1 0.0090571699    203.09496  0.029804713 
number of iterations: 2306 
   33300      90.9334     4832         3510         1322 3.5590506e-12 1.2475459e-13          0.1 0.0090579506    205.79646  0.029803412 
number of iterations: 2325 
   33400    91.212866     4886         3548         1338 3.6062147e-12 1.2608358e-13          0.1 0.0090587485    208.53383  0.029802082 
number of iterations: 2267 
   33500     91.48263     4941         3589         1352 3.6528037e-12 1.2742705e-13          0.1 0.0090594526    211.30663  0.029800909 
number of iterations: 2325 
   33600     91.76444     5012         3642         1370 3.7012101e-12 1.2878518e-13          0.1 0.0090602919    214.11625   0.02979951 
number of iterations: 2282 
   33700    92.060176     5070         3687         1383 3.7465202e-12 1.3015812e-13          0.1 0.0090610294    216.96033  0.029798281 
number of iterations: 2294 
   33800     92.31842     5140         3741         1399 3.7961686e-12 1.3154602e-13          0.1 0.0090617788    219.84218  0.029797032 
number of iterations: 2317 
   33900    92.591016     5204         3789         1415 3.8464748e-12 1.3294906e-13          0.1 0.0090625871    222.76231  0.029795685 
number of iterations: 2299 
   34000    92.884839     5280         3848         1432 3.8964322e-12 1.3436738e-13          0.1 0.0090633702    225.72045   0.02979438 
number of iterations: 2335 
   34100    93.151463     5342         3891         1451 3.9480671e-12 1.3580118e-13          0.1  0.009064225    228.71788  0.029792956 
number of iterations: 2314 
   34200    93.456936     5408         3942         1466 3.9995439e-12 1.372506e-13          0.1 0.0090650518    231.75449  0.029791578 
number of iterations: 2343 
   34300    93.733383     5480         4000         1480 4.0525451e-12 1.3871582e-13          0.1 0.0090659418    234.83142  0.029790095 
number of iterations: 2344 
   34400    94.019875     5544         4050         1494 4.1051982e-12 1.4019702e-13          0.1 0.0090668282    237.94841  0.029788618 
number of iterations: 2355 
   34500    94.322698     5613         4107         1506 4.1584473e-12 1.4169436e-13          0.1 0.0090677672    241.10591  0.029787053 
number of iterations: 2360 
   34600    94.615098     5685         4162         1523 4.2091925e-12 1.4320802e-13          0.1 0.0090685448    244.30202  0.029785757 
number of iterations: 2327 
   34700    94.897494     5754         4211         1543 4.2635459e-12 1.4473818e-13          0.1 0.0090694227    247.53948  0.029784294 
number of iterations: 2356 
   34800    95.182192     5815         4267         1548 4.3191458e-12 1.4628502e-13          0.1 0.0090703582    250.81924  0.029782735 
number of iterations: 2343 
   34900    95.491665     5881         4317         1564 4.3752018e-12 1.4784871e-13          0.1 0.0090713178    254.14166  0.029781136 
number of iterations: 2364 
   35000    95.791868     5952         4364         1588 4.4318363e-12 1.4942945e-13          0.1 0.0090722397    257.50717    0.0297796 
Loop time of 95.7919 on 32 procs for 35000 steps with 5952 atoms

Performance: 315684321.035 tau/day, 365.375 timesteps/s
92.0% CPU use with 32 MPI tasks x no OpenMP threads

MPI task timing breakdown:
Section |  min time  |  avg time  |  max time  |%varavg| %total
---------------------------------------------------------------
Pair    | 0.023187   | 0.083008   | 0.19603    |  15.5 |  0.09
Neigh   | 0.0084237  | 0.025753   | 0.054083   |   7.7 |  0.03
Comm    | 0.039017   | 0.17451    | 0.28842    |  15.4 |  0.18
Output  | 24.415     | 24.415     | 24.422     |   0.0 | 25.49
Modify  | 70.632     | 70.676     | 70.732     |   0.3 | 73.78
Other   |            | 0.4175     |            |       |  0.44

Nlocal:    186 ave 362 max 61 min
Histogram: 6 3 1 7 4 3 3 1 1 3
Nghost:    99.375 ave 194 max 3 min
Histogram: 5 0 4 3 3 5 3 3 1 5
Neighs:    694.938 ave 1453 max 156 min
Histogram: 6 2 3 6 5 1 4 1 2 2

Total # of neighbors = 22238
Ave neighs/atom = 3.73622
Neighbor list builds = 691
Dangerous builds = 0
Total wall time: 0:01:36
