 NUFEB Simulation

     100 atoms 
     2 atom types 
     4 nutrients 

  0.0e-4   1.00e-04  xlo xhi 
  0.0e-4   1.00e-04  ylo yhi 
  0.0e-4   1.00e-05  zlo zhi 

 Atoms 

     1 1 1.69e-06  370 5.97e-05 1.06e-05 4.77e-06 1.69e-06 
     2 1 1.42e-06  370 6.24e-05 9.35e-05 6.55e-06 1.42e-06 
     3 1 1.92e-06  370 5.72e-06 4.20e-05 5.01e-06 1.92e-06 
     4 1 1.40e-06  370 4.45e-05 1.19e-05 5.60e-06 1.40e-06 
     5 1 1.86e-06  370 6.59e-05 5.10e-05 6.50e-06 1.86e-06 
     6 1 1.76e-06  370 4.28e-05 8.58e-05 4.73e-06 1.76e-06 
     7 1 1.52e-06  370 4.57e-05 2.68e-05 4.73e-06 1.52e-06 
     8 1 1.43e-06  370 8.60e-06 5.50e-05 1.82e-06 1.43e-06 
     9 1 1.93e-06  370 8.87e-06 8.48e-05 3.73e-06 1.93e-06 
     10 1 1.44e-06  370 9.49e-05 1.66e-05 1.57e-06 1.44e-06 
     11 1 1.53e-06  370 4.61e-05 8.44e-05 6.36e-06 1.53e-06 
     12 1 1.58e-06  370 2.24e-05 8.09e-05 6.04e-06 1.58e-06 
     13 1 1.62e-06  370 3.50e-05 7.36e-05 7.03e-06 1.62e-06 
     14 1 1.84e-06  370 1.58e-05 2.89e-05 5.66e-06 1.84e-06 
     15 1 1.48e-06  370 9.52e-05 5.02e-05 3.69e-06 1.48e-06 
     16 1 1.64e-06  370 1.53e-05 7.51e-05 3.77e-06 1.64e-06 
     17 1 1.93e-06  370 3.23e-05 1.89e-05 5.57e-06 1.93e-06 
     18 1 1.67e-06  370 1.08e-05 8.00e-05 2.87e-06 1.67e-06 
     19 1 1.90e-06  370 2.63e-05 5.66e-05 5.15e-06 1.90e-06 
     20 1 1.86e-06  370 9.21e-05 1.49e-05 5.22e-06 1.86e-06 
     21 1 1.69e-06  370 2.90e-05 4.59e-05 3.52e-06 1.69e-06 
     22 1 1.55e-06  370 7.59e-05 3.18e-05 4.82e-06 1.55e-06 
     23 1 1.51e-06  370 9.89e-06 3.14e-05 7.16e-06 1.51e-06 
     24 1 1.69e-06  370 5.76e-05 9.88e-06 7.63e-06 1.69e-06 
     25 1 1.54e-06  370 2.81e-05 7.43e-05 2.31e-06 1.54e-06 
     26 1 1.55e-06  370 3.69e-05 2.62e-05 4.18e-06 1.55e-06 
     27 1 1.50e-06  370 1.11e-05 1.32e-05 5.56e-06 1.50e-06 
     28 1 1.93e-06  370 7.46e-06 4.27e-05 6.79e-06 1.93e-06 
     29 1 1.73e-06  370 3.33e-05 4.60e-05 7.88e-06 1.73e-06 
     30 1 1.56e-06  370 5.92e-05 9.65e-05 8.28e-06 1.56e-06 
     31 1 1.50e-06  370 5.27e-05 1.99e-05 3.39e-06 1.50e-06 
     32 1 1.38e-06  370 5.93e-05 3.39e-05 6.30e-06 1.38e-06 
     33 1 1.86e-06  370 7.41e-05 1.71e-05 4.27e-06 1.86e-06 
     34 1 1.60e-06  370 6.73e-05 2.53e-05 3.93e-06 1.60e-06 
     35 1 1.62e-06  370 2.57e-05 3.26e-06 7.56e-06 1.62e-06 
     36 1 1.42e-06  370 9.66e-05 9.39e-05 7.74e-06 1.42e-06 
     37 1 1.85e-06  370 3.46e-05 7.57e-05 7.38e-06 1.85e-06 
     38 1 1.76e-06  370 8.10e-05 9.58e-05 2.56e-06 1.76e-06 
     39 1 1.67e-06  370 7.65e-05 5.77e-05 3.74e-06 1.67e-06 
     40 1 1.84e-06  370 3.17e-05 1.22e-05 3.42e-06 1.84e-06 
     41 1 1.84e-06  370 2.49e-05 3.16e-05 6.25e-06 1.84e-06 
     42 1 1.66e-06  370 6.85e-05 4.58e-05 6.28e-06 1.66e-06 
     43 1 1.42e-06  370 7.65e-05 9.25e-05 6.16e-06 1.42e-06 
     44 1 1.81e-06  370 5.58e-06 6.39e-05 2.09e-06 1.81e-06 
     45 1 1.42e-06  370 1.40e-05 9.07e-05 2.74e-06 1.42e-06 
     46 1 1.48e-06  370 9.77e-06 1.68e-05 4.42e-06 1.48e-06 
     47 1 1.65e-06  370 4.52e-05 2.89e-05 5.38e-06 1.65e-06 
     48 1 1.69e-06  370 2.86e-05 8.56e-05 1.75e-06 1.69e-06 
     49 1 1.93e-06  370 7.67e-06 3.99e-05 5.53e-06 1.93e-06 
     50 1 1.64e-06  370 2.62e-05 4.48e-05 5.24e-06 1.64e-06 
     51 2 9.24e-07  230 5.85e-05 6.42e-05 5.90e-06 9.24e-07 
     52 2 1.37e-06  230 5.96e-05 1.27e-05 3.71e-06 1.37e-06 
     53 2 1.36e-06  230 6.45e-05 1.52e-05 3.26e-06 1.36e-06 
     54 2 9.79e-07  230 6.76e-05 8.70e-05 2.62e-06 9.79e-07 
     55 2 1.09e-06  230 1.65e-06 7.66e-05 3.15e-06 1.09e-06 
     56 2 1.35e-06  230 8.93e-05 1.78e-05 6.13e-06 1.35e-06 
     57 2 1.26e-06  230 3.94e-05 9.62e-05 1.69e-06 1.26e-06 
     58 2 1.38e-06  230 2.73e-05 7.52e-05 5.00e-06 1.38e-06 
     59 2 1.32e-06  230 3.75e-05 4.41e-05 6.89e-06 1.32e-06 
     60 2 9.39e-07  230 5.27e-05 5.36e-05 6.15e-06 9.39e-07 
     61 2 1.33e-06  230 1.32e-05 3.83e-05 1.89e-06 1.33e-06 
     62 2 1.26e-06  230 3.71e-05 9.65e-05 6.07e-06 1.26e-06 
     63 2 1.01e-06  230 5.42e-05 5.20e-05 2.72e-06 1.01e-06 
     64 2 1.18e-06  230 8.55e-05 9.58e-05 3.09e-06 1.18e-06 
     65 2 8.90e-07  230 8.11e-05 7.70e-05 7.34e-06 8.90e-07 
     66 2 8.92e-07  230 6.01e-05 3.22e-05 4.75e-06 8.92e-07 
     67 2 1.12e-06  230 2.39e-05 7.79e-06 4.07e-06 1.12e-06 
     68 2 1.26e-06  230 1.48e-05 7.91e-06 6.52e-06 1.26e-06 
     69 2 1.32e-06  230 6.17e-05 8.08e-05 7.70e-06 1.32e-06 
     70 2 9.28e-07  230 6.48e-05 9.08e-05 6.67e-06 9.28e-07 
     71 2 1.20e-06  230 2.07e-05 5.26e-05 7.12e-06 1.20e-06 
     72 2 1.21e-06  230 8.65e-05 9.01e-05 6.32e-06 1.21e-06 
     73 2 1.18e-06  230 3.41e-06 8.89e-05 7.64e-06 1.18e-06 
     74 2 1.33e-06  230 8.48e-05 5.84e-05 4.35e-06 1.33e-06 
     75 2 1.07e-06  230 6.71e-05 3.28e-05 6.67e-06 1.07e-06 
     76 2 1.14e-06  230 4.25e-05 4.71e-05 2.23e-06 1.14e-06 
     77 2 1.25e-06  230 8.30e-05 1.85e-05 6.68e-06 1.25e-06 
     78 2 1.10e-06  230 3.44e-05 8.35e-05 2.82e-06 1.10e-06 
     79 2 1.23e-06  230 8.45e-05 6.42e-05 7.91e-06 1.23e-06 
     80 2 1.32e-06  230 3.87e-05 8.99e-05 3.22e-06 1.32e-06 
     81 2 1.15e-06  230 8.68e-05 8.62e-05 4.28e-06 1.15e-06 
     82 2 1.25e-06  230 4.64e-06 9.75e-05 1.75e-06 1.25e-06 
     83 2 1.03e-06  230 4.54e-05 4.33e-05 3.36e-06 1.03e-06 
     84 2 1.13e-06  230 4.83e-05 5.61e-05 6.80e-06 1.13e-06 
     85 2 9.07e-07  230 5.74e-05 6.75e-05 5.11e-06 9.07e-07 
     86 2 1.17e-06  230 3.71e-05 1.32e-05 6.21e-06 1.17e-06 
     87 2 1.06e-06  230 7.07e-05 1.07e-05 4.52e-06 1.06e-06 
     88 2 1.17e-06  230 3.15e-05 7.02e-05 4.49e-06 1.17e-06 
     89 2 1.03e-06  230 3.79e-05 6.14e-05 7.56e-06 1.03e-06 
     90 2 1.35e-06  230 9.47e-05 6.13e-06 5.73e-06 1.35e-06 
     91 2 9.69e-07  230 4.70e-05 4.79e-05 1.99e-06 9.69e-07 
     92 2 9.68e-07  230 9.89e-05 7.93e-05 3.58e-06 9.68e-07 
     93 2 1.18e-06  230 1.16e-05 8.40e-05 2.75e-06 1.18e-06 
     94 2 1.27e-06  230 8.93e-05 9.77e-05 6.52e-06 1.27e-06 
     95 2 9.81e-07  230 6.45e-05 9.09e-05 5.85e-06 9.81e-07 
     96 2 8.85e-07  230 2.05e-05 4.49e-05 1.71e-06 8.85e-07 
     97 2 1.34e-06  230 5.23e-05 6.01e-05 6.74e-06 1.34e-06 
     98 2 1.01e-06  230 2.69e-05 2.63e-05 4.55e-06 1.01e-06 
     99 2 1.07e-06  230 8.27e-05 4.01e-05 7.26e-06 1.07e-06 
     100 2 1.09e-06  230 9.65e-05 2.43e-06 4.57e-06 1.09e-06 

 Nutrients 

     1 sub g nn nn nn 1.00e-01 1.00e-01 
     2 o2 l nn nn nd 9.00e-03 9.00e-03 
     3 suc l nn nn nn 3.42e-20 3.42e-20 
     4 co2 l nn nn nd 2.99e-02 2.99e-02 

 Type Name 

     1 cyano  
     2 ecw  

 Diffusion Coeffs 

     sub 0 
     o2 2.3e-09 
     suc 5.2e-10 
     co2 1.9e-09 

 Growth Rate 

     cyano 1.67e-05 
     ecw 2e-05 

 Ks 

     cyano 0.00035 0.0002 0.01 0.000138 
     ecw 0 0.001 3.6 0.05 

 Yield 

     cyano 0.55 
     ecw 0.43 

 Maintenance 

     cyano 0 
     ecw 9.5e-07 

 Decay 

     cyano 0 
     ecw 0 



