LAMMPS (20 Nov 2019)
Reading data file ...
  orthogonal box = (0 0 0) to (0.0001 0.0001 1e-05)
  8 by 4 by 1 MPI processor grid
  reading atoms ...
  100 atoms
  4 nutrients
Lattice spacing in x,y,z = 100 100 100
50 atoms in group CYANO
50 atoms in group ECW
Model is defined as a closed system. 
Neighbor list info ...
  update every 1 steps, delay 0 steps, check yes
  max neighbors/atom: 5000, page size: 100000
  master list distance cutoff = 2.43e-06
  ghost atom cutoff = 2.43e-06
  binsize = 1.215e-06, bins = 83 83 9
  1 neighbor lists, perpetual/occasional/extra = 1 0 0
  (1) pair gran/hooke/history, perpetual
      attributes: half, newton off, size, history
      pair build: half/size/bin/newtoff
      stencil: half/bin/3d/newtoff
      bin: standard
Setting up Verlet run ...
  Unit style    : lj
  Current step  : 0
  Time step     : 10
Per MPI rank memory allocation (min/avg/max) = 5.797 | 10.18 | 12.11 Mbytes
Step CPU Atoms c_myNtypes[1] c_myNtypes[2] c_myMass[1] c_myMass[2] c_myCon[1] c_myCon[2] c_myCon[3] c_myCon[4] 
       0            0      100           50           50 4.5233301e-14 9.4804515e-15          0.1        0.009     3.42e-20       0.0299 
number of iterations: 329555 
     100    15.853629      135           50           85 4.5832742e-14 9.4740519e-15          0.1 0.0090007854  0.036360692  0.029898692 
number of iterations: 4445 
     200    16.209684      154           50          104 4.6440128e-14 9.4692282e-15          0.1 0.0090007957  0.072005637  0.029898674 
number of iterations: 2946 
     300    16.477887      154           50          104 4.7055562e-14 9.4660232e-15          0.1 0.0090008061   0.10808057  0.029898657 
number of iterations: 2355 
     400    16.719632      154           50          104 4.7679153e-14 9.4644282e-15          0.1 0.0090008167   0.14459523  0.029898639 
number of iterations: 2016 
     500    16.969649      158           54          104 4.8311007e-14 9.464432e-15          0.1 0.0090008197   0.18155707  0.029898634 
number of iterations: 1748 
     600    17.186027      159           55          104 4.8951235e-14 9.4660235e-15          0.1 0.0090008304    0.2189731  0.029898616 
number of iterations: 1585 
     700    17.419047      159           55          104 4.9599947e-14 9.4691916e-15          0.1 0.0090008413   0.25685033  0.029898598 
number of iterations: 1460 
     800     17.61973      159           55          104 5.0257256e-14 9.473926e-15          0.1 0.0090008524   0.29519568  0.029898579 
number of iterations: 1446 
     900    17.811552      160           56          104 5.0923276e-14 9.4802172e-15          0.1 0.0090008636   0.33401613  0.029898561 
number of iterations: 1448 
    1000    18.067789      160           56          104 5.1598123e-14 9.4880564e-15          0.1  0.009000875   0.37331868  0.029898542 
number of iterations: 1451 
    1100    18.277545      160           56          104 5.2281912e-14 9.4974357e-15          0.1 0.0090008865    0.4131104  0.029898522 
number of iterations: 1454 
    1200    18.479389      160           56          104 5.2974763e-14 9.5083479e-15          0.1 0.0090008982   0.45339841  0.029898503 
number of iterations: 1540 
    1300    18.710439      163           59          104 5.3676796e-14 9.5207836e-15          0.1 0.0090009159   0.49419005  0.029898473 
number of iterations: 1460 
    1400     18.89403      164           59          105 5.4388132e-14 9.5347401e-15          0.1  0.009000928   0.53549246  0.029898453 
number of iterations: 1420 
    1500    19.103665      165           60          105 5.5108895e-14 9.5502121e-15          0.1 0.0090009338     0.577313  0.029898443 
number of iterations: 1433 
    1600    19.283488      168           63          105 5.583921e-14 9.5671959e-15          0.1 0.0090009426    0.6196592  0.029898428 
number of iterations: 1465 
    1700    19.455558      168           63          105 5.6579204e-14 9.5856873e-15          0.1  0.009000955   0.66253846  0.029898408 
number of iterations: 1614 
    1800    19.644753      168           63          105 5.7329003e-14 9.6056834e-15          0.1 0.0090009625   0.70595836  0.029898395 
number of iterations: 1471 
    1900    19.833799      168           63          105 5.8088739e-14 9.6271819e-15          0.1 0.0090009752   0.74992657  0.029898374 
number of iterations: 1561 
    2000    20.055859      169           64          105 5.8858544e-14 9.6501823e-15          0.1 0.0090009892   0.79445084   0.02989835 
number of iterations: 1477 
    2100    20.258786      170           64          106 5.963855e-14 9.6746815e-15          0.1 0.0090010023     0.839539  0.029898329 
number of iterations: 1480 
    2200    20.434414      170           64          106 6.0428893e-14  9.70068e-15          0.1 0.0090010155     0.885199  0.029898306 
number of iterations: 1483 
    2300    20.637098      170           64          106 6.1229709e-14 9.7281781e-15          0.1 0.0090010289   0.93143884  0.029898284 
number of iterations: 1486 
    2400    20.843268      170           64          106 6.2041138e-14 9.7571767e-15          0.1 0.0090010424   0.97826665  0.029898261 
number of iterations: 1488 
    2500    21.038532      170           64          106 6.286332e-14 9.7876772e-15          0.1 0.0090010562    1.0256906  0.029898238 
number of iterations: 1491 
    2600     21.21936      174           66          108 6.3696399e-14 9.8196802e-15          0.1 0.0090010713     1.073719  0.029898213 
number of iterations: 1494 
    2700     21.41366      175           66          109 6.4540517e-14 9.8531897e-15          0.1 0.0090010855    1.1223603  0.029898189 
number of iterations: 1497 
    2800    21.598405      175           66          109 6.5395821e-14 9.8882091e-15          0.1 0.0090010998     1.171623  0.029898165 
number of iterations: 1500 
    2900    21.811296      175           66          109 6.626246e-14 9.9247423e-15          0.1 0.0090011143    1.2215156  0.029898141 
number of iterations: 1467 
    3000    22.002614      176           67          109 6.7140584e-14 9.962794e-15          0.1 0.0090011245    1.2720468  0.029898124 
number of iterations: 1504 
    3100      22.1823      176           67          109 6.8030346e-14 1.0002369e-14          0.1 0.0090011394    1.3232255  0.029898099 
number of iterations: 1507 
    3200    22.380949      176           67          109 6.8931898e-14 1.0043472e-14          0.1 0.0090011544    1.3750606  0.029898074 
number of iterations: 1510 
    3300    22.582586      176           67          109 6.9845398e-14 1.0086111e-14          0.1 0.0090011697     1.427561  0.029898049 
number of iterations: 1512 
    3400    22.774957      176           67          109 7.0771004e-14 1.0130291e-14          0.1 0.0090011851    1.4807359  0.029898023 
number of iterations: 1385 
    3500    22.943618      180           71          109 7.1708876e-14 1.0176019e-14          0.1 0.0090011884    1.5345945  0.029898017 
number of iterations: 1558 
    3600    23.153534      182           71          111 7.2659177e-14 1.0223305e-14          0.1 0.0090012068    1.5891461  0.029897986 
number of iterations: 1518 
    3700    23.333834      182           71          111 7.3622072e-14 1.0272155e-14          0.1 0.0090012227    1.6444003   0.02989796 
number of iterations: 1555 
    3800    23.510301      184           73          111 7.4597727e-14 1.032258e-14          0.1 0.0090012357    1.7003665  0.029897938 
number of iterations: 1526 
    3900     23.70029      187           74          113 7.5586311e-14 1.0374589e-14          0.1 0.0090012555    1.7570545  0.029897905 
number of iterations: 1497 
    4000    23.886026      187           74          113 7.6587997e-14 1.042819e-14          0.1 0.0090012697     1.814474  0.029897881 
number of iterations: 1512 
    4100    24.088439      189           75          114 7.7602957e-14 1.0483394e-14          0.1 0.0090012816    1.8726351  0.029897861 
number of iterations: 1506 
    4200    24.303533      191           77          114 7.8631368e-14 1.0540212e-14          0.1 0.0090012954    1.9315477  0.029897838 
number of iterations: 1533 
    4300    24.476768      191           77          114 7.9673407e-14 1.0598657e-14          0.1 0.0090013125    1.9912221   0.02989781 
number of iterations: 1495 
    4400     24.65655      195           78          117 8.0729255e-14 1.065874e-14          0.1 0.0090013264    2.0516684  0.029897786 
number of iterations: 1526 
    4500    24.861976      197           80          117 8.1799096e-14 1.0720472e-14          0.1 0.0090013393    2.1128972  0.029897765 
number of iterations: 1539 
    4600    25.064284      197           80          117 8.2883115e-14 1.0783868e-14          0.1  0.009001357     2.174919  0.029897735 
number of iterations: 1747 
    4700    25.260437      202           84          118 8.3981499e-14 1.0848939e-14          0.1 0.0090013865    2.2377447  0.029897686 
number of iterations: 1625 
    4800    25.444091      203           85          118 8.5094439e-14 1.0915704e-14          0.1 0.0090014004    2.3013851  0.029897663 
number of iterations: 1550 
    4900    25.621525      203           85          118 8.6222128e-14 1.0984175e-14          0.1 0.0090014189     2.365851  0.029897632 
number of iterations: 1553 
    5000     25.86496      203           85          118 8.7364762e-14 1.1054368e-14          0.1 0.0090014376    2.4311536    0.0298976 
number of iterations: 1719 
    5100    26.066002      205           87          118 8.8522538e-14 1.1126299e-14          0.1 0.0090014666    2.4973039  0.029897552 
number of iterations: 1561 
    5200    26.257242      207           87          120 8.9695657e-14 1.1199983e-14          0.1  0.009001486    2.5643135   0.02989752 
number of iterations: 1564 
    5300    26.527681      207           87          120 9.0884322e-14 1.1275438e-14          0.1 0.0090015057    2.6321938  0.029897487 
number of iterations: 1616 
    5400    26.712155      208           88          120 9.208874e-14 1.1352682e-14          0.1 0.0090015304    2.7009564  0.029897446 
number of iterations: 1644 
    5500     26.91533      214           91          123 9.3309118e-14 1.1431731e-14          0.1 0.0090015552    2.7706131  0.029897404 
number of iterations: 1715 
    5600    27.118348      219           95          124 9.454567e-14 1.1512604e-14          0.1  0.009001578     2.841176  0.029897366 
number of iterations: 1647 
    5700    27.333318      221           96          125 9.5798608e-14 1.1595321e-14          0.1  0.009001602    2.9126571  0.029897326 
number of iterations: 1685 
    5800    27.512256      224           99          125 9.7068151e-14 1.1679903e-14          0.1 0.0090016333    2.9850688  0.029897274 
number of iterations: 1577 
    5900    27.691817      225          100          125 9.8354518e-14 1.1766368e-14          0.1 0.0090016549    3.0584235  0.029897238 
number of iterations: 1586 
    6000    27.867128      226          100          126 9.9657932e-14 1.1854738e-14          0.1 0.0090016768    3.1327337  0.029897201 
number of iterations: 1621 
    6100    28.059099      230          101          129 1.0097862e-13 1.1945033e-14          0.1  0.009001699    3.2080122  0.029897164 
number of iterations: 1624 
    6200    28.230627      234          104          130 1.0231681e-13 1.203728e-14          0.1   0.00900172    3.2842719  0.029897129 
number of iterations: 1580 
    6300    28.421477      234          104          130 1.0367273e-13 1.2131496e-14          0.1 0.0090017428    3.3615261  0.029897091 
number of iterations: 1597 
    6400    28.650448      234          104          130 1.0504662e-13 1.2227707e-14          0.1 0.0090017659    3.4397878  0.029897052 
number of iterations: 1600 
    6500     28.92856      234          104          130 1.0643872e-13 1.2325934e-14          0.1 0.0090017892    3.5190705  0.029897013 
number of iterations: 1737 
    6600    29.138239      236          106          130 1.0784927e-13 1.2426203e-14          0.1  0.009001813    3.5993877  0.029896973 
number of iterations: 1605 
    6700     29.36664      236          106          130 1.0927851e-13 1.2528538e-14          0.1  0.009001837     3.680753  0.029896933 
number of iterations: 1599 
    6800    29.539324      239          108          131 1.1072669e-13 1.2632964e-14          0.1 0.0090018556    3.7631806  0.029896902 
number of iterations: 1614 
    6900    29.717564      241          109          132 1.1219406e-13 1.2739509e-14          0.1 0.0090018802    3.8466844  0.029896861 
number of iterations: 1686 
    7000     29.91125      245          112          133 1.1368088e-13 1.2848196e-14          0.1 0.0090019078    3.9312788  0.029896815 
number of iterations: 1618 
    7100    30.164004      248          112          136 1.151874e-13 1.2959057e-14          0.1 0.0090019331    4.0169782  0.029896773 
number of iterations: 1620 
    7200    30.352582      251          113          138 1.1671389e-13 1.3072117e-14          0.1 0.0090019575    4.1037973  0.029896732 
number of iterations: 1581 
    7300    30.549296      255          116          139 1.1826061e-13 1.3187406e-14          0.1 0.0090019814    4.1917507  0.029896692 
number of iterations: 1669 
    7400    30.735838      258          119          139 1.1982782e-13 1.3304953e-14          0.1 0.0090020024    4.2808538  0.029896657 
number of iterations: 1672 
    7500     30.93744      264          123          141 1.214158e-13 1.3424785e-14          0.1  0.009002031    4.3711221  0.029896609 
number of iterations: 1627 
    7600    31.115742      266          124          142 1.2302483e-13 1.3546935e-14          0.1 0.0090020579    4.4625705  0.029896564 
number of iterations: 1589 
    7700    31.306662      269          126          143 1.2465518e-13 1.3671433e-14          0.1  0.009002079    4.5552147  0.029896529 
number of iterations: 1682 
    7800    32.075127      275          130          145 1.2630713e-13 1.379831e-14          0.1  0.009002105    4.6490706  0.029896485 
number of iterations: 1698 
    7900    32.290197      280          131          149 1.2798098e-13 1.3927602e-14          0.1 0.0090021369    4.7441541  0.029896432 
number of iterations: 1639 
    8000    32.470045      281          132          149 1.2967701e-13 1.4059341e-14          0.1 0.0090021685    4.8404814  0.029896379 
number of iterations: 1627 
    8100    32.662638      285          135          150 1.3139551e-13 1.4193561e-14          0.1 0.0090021931    4.9380689  0.029896338 
number of iterations: 1634 
    8200    32.846655      289          137          152 1.3313679e-13 1.4330296e-14          0.1  0.009002218    5.0369334  0.029896296 
number of iterations: 1664 
    8300    33.043403      291          138          153 1.3490115e-13 1.4469582e-14          0.1 0.0090022523    5.1370919  0.029896239 
number of iterations: 1754 
    8400    33.235194      298          142          156 1.3668889e-13 1.4611454e-14          0.1 0.0090022892    5.2385608  0.029896177 
number of iterations: 1651 
    8500     33.42049      301          144          157 1.3850031e-13 1.4755948e-14          0.1 0.0090023133     5.341358  0.029896137 
number of iterations: 1655 
    8600    33.600181      303          144          159 1.4033575e-13 1.4903104e-14          0.1 0.0090023439    5.4455009  0.029896086 
number of iterations: 1646 
    8700    33.777992      307          146          161 1.421955e-13 1.5052958e-14          0.1 0.0090023707    5.5510073  0.029896041 
number of iterations: 1747 
    8800    34.069948      311          147          164 1.4407991e-13 1.5205548e-14          0.1 0.0090024048    5.6578947  0.029895984 
number of iterations: 1673 
    8900    34.277969      312          147          165 1.4598928e-13 1.5360918e-14          0.1 0.0090024367    5.7661816  0.029895931 
number of iterations: 1681 
    9000    34.469395      316          148          168 1.4792396e-13 1.5519106e-14          0.1 0.0090024689    5.8758865  0.029895877 
number of iterations: 1699 
    9100    34.674732      322          151          171 1.4988428e-13 1.5680153e-14          0.1 0.0090024894    5.9870279  0.029895843 
number of iterations: 1667 
    9200    34.865622      326          152          174 1.5187057e-13 1.5844103e-14          0.1 0.0090025262    6.0996253  0.029895781 
number of iterations: 1665 
    9300    35.055758      328          152          176 1.5388319e-13 1.6010998e-14          0.1 0.0090025597     6.213698  0.029895725 
number of iterations: 1673 
    9400    35.245523      331          153          178 1.5592248e-13 1.6180884e-14          0.1 0.0090025976    6.3292649  0.029895662 
number of iterations: 1667 
    9500    35.433013      334          156          178 1.579888e-13 1.6353804e-14          0.1  0.009002637    6.4463458  0.029895596 
number of iterations: 1682 
    9600    35.652832      336          157          179 1.6008249e-13 1.6529805e-14          0.1 0.0090026752    6.5649605  0.029895532 
number of iterations: 1647 
    9700    35.837002      344          162          182 1.6220394e-13 1.6708933e-14          0.1 0.0090027036    6.6851294  0.029895485 
number of iterations: 1697 
    9800    36.030243      346          163          183 1.643535e-13 1.6891235e-14          0.1 0.0090027394    6.8068727  0.029895425 
number of iterations: 1774 
    9900    36.231524      349          164          185 1.6653154e-13 1.7076761e-14          0.1 0.0090027781    6.9302112   0.02989536 
number of iterations: 1718 
   10000    36.467002      354          167          187 1.6873845e-13 1.7265557e-14          0.1 0.0090028203    7.0551659   0.02989529 
number of iterations: 1737 
   10100    36.945673      358          168          190 1.709746e-13 1.7457676e-14          0.1 0.0090028589    7.1817575  0.029895225 
number of iterations: 1758 
   10200    37.138338      361          170          191 1.7324039e-13 1.7653166e-14          0.1 0.0090029001    7.3100082  0.029895156 
number of iterations: 1709 
   10300    37.326708      366          173          193 1.755362e-13 1.7852079e-14          0.1 0.0090029356    7.4399395  0.029895097 
number of iterations: 1694 
   10400    37.530567      368          175          193 1.7786244e-13 1.8054468e-14          0.1 0.0090029691    7.5715741  0.029895041 
number of iterations: 1800 
   10500    37.744505      375          178          197 1.8021951e-13 1.8260392e-14          0.1 0.0090030134     7.704934  0.029894967 
number of iterations: 1757 
   10600    37.958302      377          179          198 1.8260781e-13 1.8469901e-14          0.1 0.0090030618    7.8400416  0.029894886 
number of iterations: 1689 
   10700    38.142279      384          182          202 1.8502777e-13 1.8683054e-14          0.1 0.0090030997      7.97692  0.029894823 
number of iterations: 1739 
   10800    38.333867      386          184          202 1.8747979e-13 1.8899905e-14          0.1 0.0090031441    8.1155921  0.029894749 
number of iterations: 1714 
   10900    38.529598      388          185          203 1.8996431e-13 1.9120511e-14          0.1 0.0090031845    8.2560817  0.029894681 
number of iterations: 1774 
   11000    38.751469      395          188          207 1.9248175e-13 1.9344934e-14          0.1 0.0090032299     8.398413  0.029894605 
number of iterations: 1776 
   11100    38.973881      396          188          208 1.9503256e-13 1.9573233e-14          0.1 0.0090032808    8.5426096   0.02989452 
number of iterations: 1823 
   11200    39.161353      400          191          209 1.9761716e-13 1.980547e-14          0.1 0.0090033345    8.6886969   0.02989443 
number of iterations: 1677 
   11300    39.348582      404          192          212 2.0023602e-13 2.0041709e-14          0.1 0.0090033655    8.8366985  0.029894378 
number of iterations: 1790 
   11400    39.541791      409          196          213 2.0288959e-13 2.028201e-14          0.1 0.0090034112    8.9866403  0.029894302 
number of iterations: 1782 
   11500    39.745047      415          199          216 2.0557832e-13 2.0526442e-14          0.1 0.0090034535    9.1385478  0.029894231 
number of iterations: 1739 
   11600     39.94611      417          200          217 2.0830268e-13 2.0775068e-14          0.1 0.0090034992    9.2924467  0.029894155 
number of iterations: 1759 
   11700    40.154713      423          203          220 2.1106315e-13 2.1027954e-14          0.1 0.0090035477    9.4483629  0.029894074 
number of iterations: 1876 
   11800    40.390441      429          208          221 2.138602e-13 2.128517e-14          0.1 0.0090036085    9.6063229  0.029893972 
number of iterations: 1730 
   11900    40.568541      438          212          226 2.1669431e-13 2.1546786e-14          0.1   0.00900365    9.7663537  0.029893903 
number of iterations: 1760 
   12000    40.824519      446          217          229 2.1956598e-13 2.1812869e-14          0.1 0.0090036972    9.9284822  0.029893824 
number of iterations: 1736 
   12100    41.033203      453          220          233 2.2247571e-13 2.2083494e-14          0.1 0.0090037452    10.092736  0.029893744 
number of iterations: 1779 
   12200    41.214208      458          223          235  2.25424e-13 2.2358734e-14          0.1 0.0090038054    10.259143  0.029893643 
number of iterations: 1820 
   12300    41.401982      465          226          239 2.2841136e-13 2.263866e-14          0.1 0.0090038592    10.427731  0.029893553 
number of iterations: 1785 
   12400    41.801233      476          233          243 2.3143831e-13 2.2923352e-14          0.1 0.0090039107    10.598529  0.029893467 
number of iterations: 1745 
   12500    42.043261      483          238          245 2.3450537e-13 2.3212886e-14          0.1 0.0090039529    10.771566  0.029893396 
number of iterations: 1748 
   12600     42.25256      491          241          250 2.3761308e-13 2.3507339e-14          0.1 0.0090039987    10.946871   0.02989332 
number of iterations: 1737 
   12700    42.445651      501          245          256 2.4076197e-13 2.380679e-14          0.1 0.0090040406    11.124474   0.02989325 
number of iterations: 1810 
   12800    42.660826      505          245          260 2.439526e-13 2.4111323e-14          0.1 0.0090040929    11.304405  0.029893162 
number of iterations: 1799 
   12900    42.841691      511          246          265 2.471855e-13 2.4421017e-14          0.1 0.0090041518    11.486694  0.029893064 
number of iterations: 1777 
   13000    43.038473      518          249          269 2.5046125e-13 2.4735961e-14          0.1 0.0090042062    11.671372  0.029892973 
number of iterations: 1817 
   13100    43.259612      523          252          271 2.537804e-13 2.5056242e-14          0.1 0.0090042646     11.85847  0.029892875 
number of iterations: 1828 
   13200    43.462586      525          254          271 2.5714355e-13 2.5381944e-14          0.1 0.0090043273    12.048021   0.02989277 
number of iterations: 1783 
   13300    43.655755      533          254          279 2.6055126e-13 2.5713157e-14          0.1 0.0090043846    12.240056  0.029892675 
number of iterations: 1799 
   13400    43.852331      542          259          283 2.6400413e-13 2.6049971e-14          0.1 0.0090044348    12.434607  0.029892591 
number of iterations: 1791 
   13500     44.06953      551          266          285 2.6750276e-13 2.6392476e-14          0.1 0.0090044845    12.631708  0.029892507 
number of iterations: 1837 
   13600    44.266089      553          267          286 2.7104775e-13 2.6740762e-14          0.1 0.0090045523    12.831393  0.029892394 
number of iterations: 1795 
   13700    44.465029      560          270          290 2.7463973e-13 2.709493e-14          0.1 0.0090046061    13.033694  0.029892304 
number of iterations: 1836 
   13800     44.67457      568          273          295 2.782793e-13 2.7455076e-14          0.1 0.0090046715    13.238646  0.029892195 
number of iterations: 1798 
   13900    44.871708      579          278          301 2.8196711e-13 2.7821295e-14          0.1 0.0090047266    13.446283  0.029892103 
number of iterations: 1807 
   14000    45.070347      588          285          303 2.8570378e-13 2.8193694e-14          0.1 0.0090047876    13.656643  0.029892001 
number of iterations: 1810 
   14100    45.266898      592          285          307 2.8948998e-13 2.857237e-14          0.1  0.009004851    13.869758  0.029891895 
number of iterations: 1759 
   14200    45.454791      602          294          308 2.9332635e-13 2.8957429e-14          0.1 0.0090049054    14.085666  0.029891804 
number of iterations: 1819 
   14300    45.658327      609          298          311 2.9721356e-13 2.9348976e-14          0.1 0.0090049726    14.304403  0.029891691 
number of iterations: 1823 
   14400    45.861867      617          300          317 3.0115229e-13 2.974712e-14          0.1 0.0090050378    14.526006  0.029891582 
number of iterations: 1857 
   14500    46.061875      625          304          321 3.0514321e-13 3.0151967e-14          0.1  0.009005113    14.750513  0.029891457 
number of iterations: 1834 
   14600    46.260497      631          309          322 3.0918702e-13 3.0563629e-14          0.1 0.0090051887    14.977961   0.02989133 
number of iterations: 1827 
   14700    46.462476      635          310          325 3.1328442e-13 3.0982218e-14          0.1 0.0090052586    15.208388  0.029891213 
number of iterations: 1808 
   14800    46.881628      647          313          334 3.1743612e-13 3.140785e-14          0.1 0.0090053239    15.441834  0.029891104 
number of iterations: 1832 
   14900    47.079891      655          316          339 3.2164284e-13 3.1840642e-14          0.1 0.0090053852    15.678338  0.029891001 
number of iterations: 1846 
   15000    47.282268      661          319          342 3.259053e-13 3.2280714e-14          0.1 0.0090054614    15.917941  0.029890874 
number of iterations: 1832 
   15100     47.57116      669          325          344 3.3022425e-13 3.272819e-14          0.1 0.0090055307    16.160682  0.029890758 
number of iterations: 1843 
   15200    47.773473      673          327          346 3.3460044e-13 3.3183193e-14          0.1 0.0090056027    16.406602  0.029890637 
number of iterations: 1827 
   15300    47.984523      684          330          354 3.3903462e-13 3.3645845e-14          0.1 0.0090056678    16.655742  0.029890529 
number of iterations: 1852 
   15400    48.172043      695          335          360 3.4352756e-13 3.411627e-14          0.1 0.0090057373    16.908145  0.029890412 
number of iterations: 1873 
   15500    48.361165      704          338          366 3.4808005e-13 3.4594605e-14          0.1 0.0090058298    17.163852  0.029890258 
number of iterations: 1851 
   15600    48.561281      713          343          370 3.5269286e-13 3.5080978e-14          0.1 0.0090058964    17.422909  0.029890146 
number of iterations: 1862 
   15700    48.841074      722          347          375 3.5736681e-13 3.5575524e-14          0.1 0.0090059826    17.685357  0.029890002 
number of iterations: 1856 
   15800    49.052249      732          350          382 3.6210269e-13 3.6078381e-14          0.1 0.0090060507    17.951242  0.029889888 
number of iterations: 1859 
   15900    49.250584      743          356          387 3.6690134e-13 3.6589684e-14          0.1 0.0090061309    18.220608  0.029889754 
number of iterations: 1855 
   16000    49.463176      756          360          396 3.7176357e-13 3.7109582e-14          0.1 0.0090062049    18.493501   0.02988963 
number of iterations: 1903 
   16100    49.689647      767          364          403 3.7669024e-13 3.7638212e-14          0.1 0.0090062959    18.769967  0.029889478 
number of iterations: 1876 
   16200    49.911724      780          371          409 3.816822e-13 3.8175724e-14          0.1 0.0090063795    19.050053  0.029889338 
number of iterations: 1881 
   16300    50.124445      794          381          413 3.8674032e-13 3.8722265e-14          0.1  0.009006464    19.333806  0.029889197 
number of iterations: 1891 
   16400     50.32978      803          385          418 3.9186546e-13 3.9277984e-14          0.1 0.0090065525    19.621273  0.029889048 
number of iterations: 1875 
   16500    50.549052      811          390          421 3.9705853e-13 3.9843038e-14          0.1   0.00900664    19.912503  0.029888902 
number of iterations: 1865 
   16600    50.808289      824          398          426 4.0232041e-13 4.0417587e-14          0.1 0.0090067315    20.207545  0.029888749 
number of iterations: 1946 
   16700    51.029881      840          408          432 4.0765202e-13 4.1001785e-14          0.1 0.0090068348    20.506449  0.029888576 
number of iterations: 1895 
   16800    51.225198      856          413          443 4.1305429e-13 4.1595797e-14          0.1 0.0090069269    20.809264  0.029888422 
number of iterations: 1861 
   16900    51.471777      863          415          448 4.1852815e-13 4.2199789e-14          0.1 0.0090070106    21.116042  0.029888282 
number of iterations: 1943 
   17000    51.862168      879          421          458 4.2407455e-13 4.2813927e-14          0.1 0.0090071123    21.426835  0.029888112 
number of iterations: 1878 
   17100    52.064702      890          427          463 4.2969446e-13 4.3438382e-14          0.1 0.0090071949    21.741696  0.029887974 
number of iterations: 1893 
   17200    52.263555      900          431          469 4.3538883e-13 4.4073327e-14          0.1 0.0090072793    22.060677  0.029887833 
number of iterations: 1896 
   17300    52.479958      913          438          475 4.4115867e-13 4.4718941e-14          0.1 0.0090073601     22.38383  0.029887697 
number of iterations: 1916 
   17400    52.704483      924          442          482 4.4700498e-13 4.5375401e-14          0.1 0.0090074683    22.711212  0.029887516 
number of iterations: 1907 
   17500    52.913237      932          444          488 4.5292875e-13 4.6042892e-14          0.1 0.0090075645    23.042876  0.029887355 
number of iterations: 1911 
   17600    53.122743      943          448          495 4.5893103e-13 4.6721602e-14          0.1 0.0090076722    23.378878  0.029887175 
number of iterations: 1866 
   17700    53.320476      958          459          499 4.6501286e-13 4.7411717e-14          0.1 0.0090077616    23.719275  0.029887026 
number of iterations: 1969 
   17800    53.522724      975          467          508 4.7117528e-13 4.811343e-14          0.1 0.0090078687    24.064125  0.029886846 
number of iterations: 1919 
   17900    53.779581      993          474          519 4.7741936e-13 4.8826935e-14          0.1  0.009007965    24.413486  0.029886685 
number of iterations: 1936 
   18000    53.985548     1009          482          527 4.8374619e-13 4.9552432e-14          0.1 0.0090080761    24.767415  0.029886499 
number of iterations: 1937 
   18100    54.190448     1020          486          534 4.9015687e-13 5.0290125e-14          0.1 0.0090081881    25.125974  0.029886312 
number of iterations: 1916 
   18200    54.413153     1033          491          542 4.966525e-13 5.1040217e-14          0.1 0.0090082789    25.489222   0.02988616 
number of iterations: 1901 
   18300    54.670798     1043          494          549 5.0323421e-13 5.180292e-14          0.1 0.0090083836    25.857221  0.029885985 
number of iterations: 1942 
   18400    54.896862     1058          502          556 5.0990314e-13 5.2578448e-14          0.1 0.0090084908    26.230033  0.029885805 
number of iterations: 1916 
   18500    55.101088     1076          510          566 5.1666045e-13 5.3367017e-14          0.1 0.0090086057     26.60772  0.029885613 
number of iterations: 1944 
   18600    55.325481     1104          523          581 5.2350731e-13 5.4168846e-14          0.1  0.009008719    26.990345  0.029885423 
number of iterations: 1914 
   18700    55.525255     1121          530          591 5.304449e-13 5.498416e-14          0.1 0.0090088388    27.377972  0.029885223 
number of iterations: 1926 
   18800    55.744828     1138          537          601 5.3747444e-13 5.5813186e-14          0.1 0.0090089478    27.770666  0.029885041 
number of iterations: 1941 
   18900    55.965128     1154          545          609 5.4459712e-13 5.665616e-14          0.1 0.0090090751    28.168493  0.029884828 
number of iterations: 1944 
   19000    56.192246     1169          552          617 5.518142e-13 5.7513318e-14          0.1 0.0090091839     28.57152  0.029884645 
number of iterations: 1944 
   19100    56.406739     1182          559          623 5.5912692e-13 5.8384897e-14          0.1 0.0090093037    28.979815  0.029884445 
number of iterations: 1943 
   19200    56.752285     1192          566          626 5.6653654e-13 5.9271142e-14          0.1 0.0090094208    29.393445  0.029884249 
number of iterations: 1994 
   19300    57.020491     1211          574          637 5.7404436e-13 6.0172303e-14          0.1 0.0090095587    29.812481  0.029884018 
number of iterations: 1964 
   19400    57.232533     1225          578          647 5.8165168e-13 6.1088635e-14          0.1 0.0090096837    30.236993  0.029883809 
number of iterations: 1969 
   19500    57.477045     1237          583          654 5.8935981e-13 6.2020391e-14          0.1 0.0090098062    30.667053  0.029883604 
number of iterations: 1962 
   19600    57.679231     1253          587          666 5.9717008e-13 6.2967833e-14          0.1 0.0090099446    31.102732  0.029883372 
number of iterations: 1963 
   19700    57.919619     1277          596          681 6.0508386e-13 6.3931231e-14          0.1 0.0090100747    31.544104  0.029883155 
number of iterations: 1977 
   19800    58.123795     1290          601          689 6.1310251e-13 6.4910852e-14          0.1 0.0090102019    31.991242  0.029882942 
number of iterations: 2003 
   19900    58.328602     1310          612          698 6.2122742e-13 6.5906973e-14          0.1 0.0090103448    32.444221  0.029882703 
number of iterations: 1964 
   20000    58.547486     1323          617          706 6.2946001e-13 6.6919872e-14          0.1 0.0090104762    32.903117  0.029882482 
number of iterations: 1985 
   20100    58.807117     1344          627          717 6.3780169e-13 6.7949837e-14          0.1 0.0090106152    33.368008   0.02988225 
number of iterations: 1997 
   20200    59.025042     1362          634          728 6.4625392e-13 6.8997155e-14          0.1  0.009010748     33.83897  0.029882027 
number of iterations: 1985 
   20300    59.221525     1377          640          737 6.5481816e-13 7.0062121e-14          0.1 0.0090108901    34.316084   0.02988179 
number of iterations: 2014 
   20400    59.425722     1401          651          750 6.6349589e-13 7.1145035e-14          0.1  0.009011048    34.799428  0.029881525 
number of iterations: 2023 
   20500    59.649654     1426          662          764 6.7228862e-13 7.2246203e-14          0.1 0.0090112024    35.289084  0.029881267 
number of iterations: 1969 
   20600     59.88529     1443          671          772 6.8119788e-13 7.3365937e-14          0.1 0.0090113533    35.785133  0.029881014 
number of iterations: 1982 
   20700    60.136595     1468          681          787 6.9022519e-13 7.4504549e-14          0.1 0.0090114909     36.28766  0.029880784 
number of iterations: 1979 
   20800    60.339132     1491          689          802 6.9937214e-13 7.566236e-14          0.1 0.0090116332    36.796748  0.029880546 
number of iterations: 2001 
   20900    60.552226     1516          700          816 7.0864031e-13 7.6839693e-14          0.1 0.0090117704    37.312481  0.029880316 
number of iterations: 2005 
   21000    60.760794     1535          708          827 7.1803129e-13 7.8036884e-14          0.1 0.0090119231    37.834948   0.02988006 
number of iterations: 1965 
   21100    60.970098     1557          717          840 7.2754673e-13 7.9254271e-14          0.1 0.0090120584    38.364234  0.029879833 
number of iterations: 2018 
   21200    61.184398     1570          722          848 7.3718826e-13  8.04922e-14          0.1 0.0090122051    38.900428  0.029879588 
number of iterations: 2022 
   21300    61.418553     1593          733          860 7.4695757e-13 8.1751018e-14          0.1 0.0090123592     39.44362   0.02987933 
number of iterations: 2015 
   21400    61.852289     1613          741          872 7.5685634e-13 8.3031081e-14          0.1 0.0090125162    39.993903  0.029879067 
number of iterations: 2002 
   21500    62.088277     1647          762          885 7.6688628e-13 8.4332751e-14          0.1  0.009012679    40.551365  0.029878794 
number of iterations: 1969 
   21600    62.337597     1669          770          899 7.7704915e-13 8.5656395e-14          0.1 0.0090127891    41.116103  0.029878609 
number of iterations: 2036 
   21700    62.555243     1696          777          919 7.8734669e-13 8.7002386e-14          0.1 0.0090129629    41.688209  0.029878318 
number of iterations: 2043 
   21800    62.781657     1718          783          935 7.977807e-13 8.8371109e-14          0.1 0.0090131451     42.26778  0.029878013 
number of iterations: 2065 
   21900    63.011856     1743          792          951 8.0835298e-13 8.9762947e-14          0.1 0.0090133363    42.854912  0.029877693 
number of iterations: 2035 
   22000     63.25046     1767          800          967 8.1906536e-13 9.1178291e-14          0.1  0.009013517    43.449703  0.029877391 
number of iterations: 2034 
   22100    63.476735     1793          815          978 8.2991971e-13 9.2617546e-14          0.1 0.0090137007    44.052252  0.029877083 
number of iterations: 2029 
   22200    63.693677     1820          825          995 8.4091789e-13 9.4081121e-14          0.1 0.0090138839    44.662659  0.029876776 
number of iterations: 2034 
   22300    63.921196     1849          831         1018 8.5206182e-13 9.5569428e-14          0.1 0.0090140763    45.281028  0.029876454 
number of iterations: 2052 
   22400    64.153074     1875          840         1035 8.6335344e-13 9.7082888e-14          0.1 0.0090142749    45.907462  0.029876122 
number of iterations: 2000 
   22500    64.371094     1911          857         1054 8.7479469e-13 9.8621928e-14          0.1 0.0090144364    46.542066  0.029875851 
number of iterations: 2052 
   22600    64.605329     1939          872         1067 8.8638756e-13 1.0018699e-13          0.1 0.0090146418    47.184947  0.029875507 
number of iterations: 2067 
   22700    64.828115     1972          887         1085 8.9813405e-13 1.0177851e-13          0.1 0.0090148395     47.83621  0.029875176 
number of iterations: 2058 
   22800     65.03572     2004          900         1104 9.1003622e-13 1.0339694e-13          0.1 0.0090150243    48.495961  0.029874866 
number of iterations: 2057 
   22900     65.27179     2038          920         1118 9.2209611e-13 1.0504273e-13          0.1 0.0090151911    49.164313  0.029874587 
number of iterations: 2097 
   23000    65.511924     2064          929         1135 9.3431581e-13 1.0671637e-13          0.1  0.009015416    49.841377   0.02987421 
number of iterations: 2072 
   23100    65.730682     2092          940         1152 9.4669746e-13 1.0841832e-13          0.1 0.0090156321    50.527264  0.029873848 
number of iterations: 2081 
   23200    65.964897     2126          956         1170 9.5924318e-13 1.1014907e-13          0.1 0.0090158313    51.222091  0.029873515 
number of iterations: 2062 
   23300    66.211472     2152          964         1188 9.7195516e-13 1.119091e-13          0.1 0.0090160339    51.925972  0.029873175 
number of iterations: 2073 
   23400    66.424785     2180          973         1207 9.848356e-13 1.1369892e-13          0.1 0.0090162515    52.639025  0.029872811 
number of iterations: 2090 
   23500    66.951065     2218          992         1226 9.9788673e-13 1.1551903e-13          0.1 0.0090164841    53.361369  0.029872421 
number of iterations: 2052 
   23600    67.184467     2247         1003         1244 1.0111108e-12 1.1736995e-13          0.1 0.0090166916    54.093124  0.029872074 
number of iterations: 2089 
   23700    67.417716     2277         1014         1263 1.0245101e-12 1.1925221e-13          0.1 0.0090169205    54.834412   0.02987169 
number of iterations: 2099 
   23800    67.653408     2314         1028         1286 1.038087e-12 1.2116634e-13          0.1 0.0090171537    55.585356    0.0298713 
number of iterations: 2092 
   23900    67.890756     2349         1042         1307 1.0518438e-12 1.2311288e-13          0.1 0.0090173734    56.346084  0.029870932 
number of iterations: 2078 
   24000    68.119014     2383         1058         1325 1.065783e-12 1.2509239e-13          0.1 0.0090176093    57.116721  0.029870537 
number of iterations: 2099 
   24100    68.344081     2422         1075         1347 1.0799068e-12 1.2710544e-13          0.1 0.0090178324    57.897395  0.029870163 
number of iterations: 2101 
   24200     68.60435     2448         1087         1361 1.0942178e-12 1.2915259e-13          0.1 0.0090180724    58.688234  0.029869761 
number of iterations: 2103 
   24300    68.857748     2484         1099         1385 1.1087185e-12 1.3123442e-13          0.1 0.0090182913    59.489371  0.029869394 
number of iterations: 2129 
   24400    69.086419     2523         1113         1410 1.1234113e-12 1.3335152e-13          0.1 0.0090185464     60.30094  0.029868967 
number of iterations: 2118 
   24500    69.319465     2557         1126         1431 1.1382988e-12 1.3550451e-13          0.1 0.0090187963    61.123076  0.029868548 
number of iterations: 2141 
   24600    69.561142     2596         1139         1457 1.1533837e-12 1.3769399e-13          0.1 0.0090190745    61.955917  0.029868082 
number of iterations: 2112 
   24700    69.786965     2629         1154         1475 1.1686684e-12 1.3992058e-13          0.1 0.0090193251    62.799601  0.029867663 
number of iterations: 2088 
   24800    70.023979     2675         1175         1500 1.1841557e-12 1.4218492e-13          0.1 0.0090195522    63.654265  0.029867282 
number of iterations: 2111 
   24900    70.250976     2715         1187         1528 1.1998482e-12 1.4448766e-13          0.1  0.009019814    64.520053  0.029866843 
number of iterations: 2124 
   25000    70.493957     2756         1199         1557 1.2157486e-12 1.4682946e-13          0.1 0.0090200997     65.39711  0.029866365 
number of iterations: 2093 
   25100    70.726003     2789         1214         1575 1.2318598e-12 1.4921097e-13          0.1  0.009020351    66.285578  0.029865943 
number of iterations: 2140 
   25200    70.970439     2829         1234         1595 1.2481845e-12 1.5163287e-13          0.1 0.0090206233    67.185607  0.029865487 
number of iterations: 2126 
   25300    71.228077     2870         1248         1622 1.2647255e-12 1.5409586e-13          0.1 0.0090208933    68.097346  0.029865035 
number of iterations: 2143 
   25400    71.467604     2923         1267         1656 1.2814857e-12 1.5660064e-13          0.1   0.00902119    69.020947  0.029864537 
number of iterations: 2129 
   25500    71.975226     2963         1283         1680 1.298468e-12 1.5914792e-13          0.1  0.009021469    69.956563   0.02986407 
number of iterations: 2161 
   25600    72.221621     3003         1297         1706 1.3156754e-12 1.6173842e-13          0.1 0.0090217462    70.904351  0.029863605 
number of iterations: 2124 
   25700    72.450112     3052         1315         1737 1.3331108e-12 1.6437289e-13          0.1 0.0090220176    71.864467   0.02986315 
number of iterations: 2141 
   25800    72.718106     3084         1328         1756 1.3507773e-12 1.6705208e-13          0.1 0.0090223047    72.837068  0.029862669 
number of iterations: 2162 
   25900    72.966435     3120         1345         1775 1.3686778e-12 1.6977675e-13          0.1  0.009022598    73.822316  0.029862178 
number of iterations: 2153 
   26000    73.219716     3178         1365         1813 1.3868156e-12 1.7254769e-13          0.1 0.0090228961    74.820376  0.029861678 
number of iterations: 2116 
   26100    73.457179     3243         1386         1857 1.4051938e-12 1.7536567e-13          0.1 0.0090231737    75.831415  0.029861212 
number of iterations: 2164 
   26200    73.715452     3311         1415         1896 1.4238155e-12 1.7823151e-13          0.1 0.0090234973    76.855598   0.02986067 
number of iterations: 2174 
   26300    73.943842     3354         1432         1922 1.4426839e-12 1.8114603e-13          0.1 0.0090238433    77.893096   0.02986009 
number of iterations: 2148 
   26400    74.187149     3398         1443         1955 1.4618024e-12 1.8411005e-13          0.1 0.0090241568    78.944079  0.029859565 
number of iterations: 2177 
   26500     74.40961     3447         1461         1986 1.4811743e-12 1.8712442e-13          0.1 0.0090244702    80.008724   0.02985904 
number of iterations: 2138 
   26600    74.671165     3498         1475         2023 1.5008029e-12   1.9019e-13          0.1 0.0090247811    81.087203  0.029858518 
number of iterations: 2171 
   26700    74.933706     3548         1497         2051 1.5206916e-12 1.9330768e-13          0.1 0.0090251146    82.179699   0.02985796 
number of iterations: 2169 
   26800    75.189634     3600         1515         2085 1.5408438e-12 1.9647833e-13          0.1 0.0090253917     83.28639  0.029857494 
number of iterations: 2160 
   26900     75.43728     3649         1532         2117 1.5612631e-12 1.9970286e-13          0.1 0.0090256963    84.407461  0.029856983 
number of iterations: 2165 
   27000    75.678285     3711         1555         2156 1.581953e-12 2.0298221e-13          0.1 0.0090260453    85.543096  0.029856398 
number of iterations: 2165 
   27100    75.940204     3768         1575         2193 1.6029171e-12 2.0631729e-13          0.1 0.0090263606    86.693487  0.029855869 
number of iterations: 2198 
   27200    76.178867     3827         1599         2228 1.624159e-12 2.0970908e-13          0.1  0.009026702    87.858824  0.029855296 
number of iterations: 2166 
   27300    76.440062     3885         1621         2264 1.6456824e-12 2.1315854e-13          0.1 0.0090270499    89.039297  0.029854713 
number of iterations: 2181 
   27400    76.842788     3946         1642         2304 1.667491e-12 2.1666664e-13          0.1 0.0090274188    90.235103  0.029854095 
number of iterations: 2185 
   27500    77.094441     4000         1662         2338 1.6895886e-12 2.2023441e-13          0.1  0.009027759    91.446437  0.029853524 
number of iterations: 2169 
   27600    77.343148     4057         1689         2368 1.7119791e-12 2.2386286e-13          0.1 0.0090280921    92.673498  0.029852965 
number of iterations: 2212 
   27700    77.618925     4117         1715         2402 1.7346663e-12 2.2755303e-13          0.1 0.0090284926    93.916488  0.029852294 
number of iterations: 2199 
   27800    77.884251     4190         1742         2448 1.7576541e-12 2.3130597e-13          0.1 0.0090288743    95.175615  0.029851654 
number of iterations: 2180 
   27900    78.134813     4248         1757         2491 1.7809465e-12 2.3512276e-13          0.1 0.0090292592    96.451089  0.029851008 
number of iterations: 2201 
   28000    78.402011     4314         1784         2530 1.8045477e-12 2.3900449e-13          0.1 0.0090296452    97.743119  0.029850361 
number of iterations: 2186 
   28100    78.752329     4376         1808         2568 1.8284615e-12 2.4295227e-13          0.1 0.0090299941    99.051918  0.029849776 
number of iterations: 2203 
   28200    79.016767     4433         1826         2607 1.8526923e-12 2.4696723e-13          0.1 0.0090303876     100.3777  0.029849116 
number of iterations: 2197 
   28300    79.280566     4490         1845         2645 1.8772442e-12 2.5105052e-13          0.1 0.0090307933    101.72068  0.029848436 
number of iterations: 2191 
   28400    79.538439     4562         1873         2689 1.9021214e-12 2.5520331e-13          0.1 0.0090311639    103.08109  0.029847813 
number of iterations: 2217 
   28500    79.805956     4633         1895         2738 1.9273283e-12 2.594268e-13          0.1 0.0090315722    104.45914  0.029847129 
number of iterations: 2240 
   28600    80.065152     4716         1915         2801 1.9528693e-12 2.6372218e-13          0.1   0.00903201    105.85508  0.029846394 
number of iterations: 2199 
   28700    80.316077     4788         1948         2840 1.9787487e-12 2.680907e-13          0.1 0.0090324447    107.26913  0.029845666 
number of iterations: 2225 
   28800    80.592603     4881         1979         2902 2.0049711e-12 2.7242368e-13          0.1 0.0090328773    108.70156   0.02984494 
number of iterations: 2246 
   28900    80.853583     4947         2004         2943 2.0315409e-12 2.7694041e-13          0.1 0.0090333198    110.15257  0.029844198 
number of iterations: 2213 
   29000    81.106978     5022         2028         2994 2.0584629e-12 2.8153406e-13          0.1 0.0090337474    111.62239   0.02984348 
number of iterations: 2234 
   29100    81.360104     5094         2055         3039 2.0857416e-12 2.8620595e-13          0.1 0.0090342124    113.11127  0.029842701 
number of iterations: 2223 
   29200    81.623381     5180         2089         3091 2.1133818e-12 2.9082186e-13          0.1 0.0090346601    114.61951   0.02984195 
number of iterations: 2250 
   29300    82.154179     5254         2113         3141 2.1413883e-12 2.9565202e-13          0.1  0.009035139     116.1473  0.029841147 
number of iterations: 2233 
   29400    82.431291     5354         2154         3200 2.1697659e-12 3.0056447e-13          0.1 0.0090355786     117.6949  0.029840409 
number of iterations: 2250 
   29500    82.740516     5435         2180         3255 2.1985195e-12 3.0556063e-13          0.1 0.0090360714    119.26255  0.029839582 
number of iterations: 2242 
   29600    83.017948     5511         2211         3300 2.2276543e-12 3.1064191e-13          0.1 0.0090365508    120.85053  0.029838778 
number of iterations: 2242 
   29700    83.279954     5597         2241         3356 2.2571751e-12 3.1580978e-13          0.1 0.0090370409    122.45907  0.029837956 
number of iterations: 2252 
   29800    83.555215     5667         2266         3401 2.2870871e-12 3.2106573e-13          0.1 0.0090375209    124.08846   0.02983715 
number of iterations: 2232 
   29900    83.812312     5756         2299         3457 2.3173954e-12 3.2641126e-13          0.1 0.0090379678    125.73896    0.0298364 
number of iterations: 2266 
   30000    84.081269     5836         2331         3505 2.3481055e-12 3.3184791e-13          0.1 0.0090384861    127.41084  0.029835531 
number of iterations: 2273 
   30100    84.367213     5904         2349         3555 2.3792225e-12 3.3737724e-13          0.1 0.0090390189    129.10438  0.029834637 
number of iterations: 2267 
   30200    84.626038     5983         2384         3599 2.4107518e-12 3.4300083e-13          0.1 0.0090395174    130.81985    0.0298338 
number of iterations: 2268 
   30300    84.918959     6071         2417         3654 2.442699e-12 3.4862469e-13          0.1 0.0090400698    132.55758  0.029832874 
number of iterations: 2271 
   30400    85.180739     6163         2450         3713 2.4750695e-12 3.5444009e-13          0.1 0.0090406009     134.3178  0.029831983 
number of iterations: 2255 
   30500     85.45919     6265         2481         3784 2.5078689e-12 3.6035466e-13          0.1 0.0090411052    136.10083  0.029831136 
number of iterations: 2290 
   30600    85.741268     6362         2514         3848 2.5411031e-12 3.6637009e-13          0.1 0.0090416554    137.90693  0.029830213 
number of iterations: 2277 
   30700    86.019646     6458         2543         3915 2.5734884e-12 3.724881e-13          0.1 0.0090422126    139.73543  0.029829278 
number of iterations: 2284 
   30800    86.318162     6542         2569         3973 2.6075921e-12 3.7871047e-13          0.1 0.0090427704    141.58761  0.029828342 
number of iterations: 2290 
   30900    86.616015     6658         2600         4058 2.6421477e-12 3.8481131e-13          0.1 0.0090433189    143.46384  0.029827422 
number of iterations: 2286 
   31000    87.192652     6767         2640         4127 2.6771612e-12 3.9124398e-13          0.1 0.0090439232    145.36436  0.029826407 
number of iterations: 2275 
   31100    87.481528     6888         2679         4209 2.7126388e-12 3.9778639e-13          0.1 0.0090444796    147.28947  0.029825473 
number of iterations: 2327 
   31200    87.762538     7019         2712         4307 2.7485865e-12 4.0444043e-13          0.1 0.0090450956    149.23949   0.02982444 
number of iterations: 2281 
   31300    88.033225     7124         2743         4381 2.7850105e-12 4.1110532e-13          0.1 0.0090456704    151.21478  0.029823475 
number of iterations: 2302 
   31400    88.325011     7229         2783         4446 2.8219172e-12 4.1789183e-13          0.1 0.0090462857    153.21566  0.029822442 
number of iterations: 2317 
   31500    88.674801     7345         2828         4517 2.859313e-12 4.2488902e-13          0.1 0.0090469153    155.24242  0.029821386 
number of iterations: 2268 
   31600    88.961742     7451         2864         4587 2.8958309e-12 4.3200562e-13          0.1 0.0090474717    157.29434  0.029820451 
number of iterations: 2271 
   31700    89.239352     7562         2903         4659 2.9342062e-12 4.3924367e-13          0.1 0.0090480583    159.37279  0.029819466 
number of iterations: 2313 
   31800    89.537102     7658         2936         4722  2.97309e-12 4.4660529e-13          0.1 0.0090486956    161.47811  0.029818396 
number of iterations: 2303 
   31900    89.831574     7770         2971         4799 3.0124891e-12 4.5409256e-13          0.1  0.009049307    163.61064  0.029817369 
number of iterations: 2313 
   32000    90.137771     7902         3013         4889 3.0524103e-12 4.6170765e-13          0.1 0.0090499619    165.77076   0.02981627 
number of iterations: 2335 
   32100    90.420427     8013         3053         4960 3.0928605e-12 4.6945273e-13          0.1 0.0090506222     167.9588  0.029815161 
number of iterations: 2320 
   32200    90.718003     8142         3092         5050 3.1338468e-12 4.7733004e-13          0.1 0.0090512859    170.17512  0.029814047 
number of iterations: 2306 
   32300    90.999385     8255         3124         5131 3.1753762e-12 4.8525503e-13          0.1 0.0090519481    172.42012  0.029812935 
number of iterations: 2312 
   32400    91.291758     8382         3170         5212 3.2174559e-12 4.9329967e-13          0.1  0.009052607    174.69416  0.029811828 
number of iterations: 2336 
   32500     91.60801     8508         3202         5306 3.2600932e-12 5.015129e-13          0.1 0.0090532974    176.99762  0.029810669 
number of iterations: 2323 
   32600    92.054002     8632         3244         5388 3.3019129e-12 5.0980012e-13          0.1 0.0090539943    179.32982  0.029809499 
number of iterations: 2344 
   32700    92.352176     8771         3288         5483 3.3445616e-12 5.1836657e-13          0.1  0.009054714     181.6913   0.02980829 
number of iterations: 2325 
   32800     92.66889     8912         3334         5578 3.3888833e-12 5.2697796e-13          0.1 0.0090553987    184.08331   0.02980714 
number of iterations: 2326 
   32900     92.96275     9054         3370         5684 3.4337923e-12 5.3583784e-13          0.1 0.0090560979    186.50622  0.029805965 
number of iterations: 2324 
   33000    93.262342     9186         3421         5765 3.4792964e-12 5.4484906e-13          0.1 0.0090567869    188.96042  0.029804807 
number of iterations: 2329 
   33100    93.570192     9336         3469         5867 3.5242429e-12 5.5391526e-13          0.1 0.0090575635    191.44545  0.029803504 
number of iterations: 2325 
   33200    93.867087     9484         3512         5972 3.5699137e-12 5.6323537e-13          0.1 0.0090583005    193.96178  0.029802266 
number of iterations: 2373 
   33300     94.17735     9639         3560         6079 3.6158105e-12 5.7258396e-13          0.1 0.0090590663    196.50955   0.02980098 
number of iterations: 2359 
   33400    94.481241     9776         3607         6169 3.6637267e-12 5.8209763e-13          0.1 0.0090598504    199.09025  0.029799664 
number of iterations: 2357 
   33500    94.789661     9923         3645         6278 3.7122778e-12 5.9179624e-13          0.1 0.0090606329    201.70431   0.02979835 
number of iterations: 2360 
   33600    95.173852    10081         3686         6395 3.7605727e-12 6.0169635e-13          0.1 0.0090614736    204.35143  0.029796938 
number of iterations: 2345 
   33700    95.468242    10235         3731         6504 3.8092561e-12 6.1183305e-13          0.1 0.0090622511    207.03183  0.029795631 
number of iterations: 2375 
   33800    95.794217    10387         3773         6614 3.8597357e-12 6.2193256e-13          0.1 0.0090630857    209.74689   0.02979423 
number of iterations: 2314 
   33900    96.100143    10573         3842         6731 3.909406e-12 6.3241521e-13          0.1 0.0090638372    212.49584  0.029792966 
number of iterations: 2383 
   34000    96.406401    10729         3887         6842 3.9612128e-12 6.4307704e-13          0.1 0.0090647477    215.28025  0.029791438 
number of iterations: 2342 
   34100    96.731812    10882         3938         6944 4.013706e-12 6.5359169e-13          0.1 0.0090655737     218.1007   0.02979005 
number of iterations: 2354 
   34200    97.193296    11051         4001         7050 4.0650255e-12 6.6434596e-13          0.1 0.0090663892    220.95619   0.02978868 
number of iterations: 2368 
   34300    97.504268    11222         4058         7164 4.1168308e-12 6.7533461e-13          0.1 0.0090672015      223.847  0.029787314 
number of iterations: 2337 
   34400    97.864728    11372         4110         7262 4.1704936e-12 6.8654903e-13          0.1 0.0090679382    226.77446  0.029786074 
number of iterations: 2352 
   34500    98.163652    11558         4172         7386 4.2233081e-12 6.9787896e-13          0.1  0.009068735    229.73787  0.029784734 
number of iterations: 2394 
   34600    98.512012    11719         4226         7493 4.2767615e-12 7.0944615e-13          0.1 0.0090696436    232.73763  0.029783207 
number of iterations: 2377 
   34700    98.890667    11889         4293         7596 4.3334363e-12 7.2129374e-13          0.1 0.0090705673     235.7761  0.029781655 
number of iterations: 2366 
   34800    99.220802    12054         4341         7713 4.3866103e-12 7.331255e-13          0.1 0.0090714522     238.8506  0.029780169 
number of iterations: 2405 
   34900    99.530635    12251         4399         7852 4.4447407e-12 7.4550974e-13          0.1 0.0090724068     241.9647  0.029778565 
number of iterations: 2399 
   35000    99.873435    12426         4449         7977 4.502818e-12 7.5810578e-13          0.1 0.0090733676    245.11827   0.02977695 
Loop time of 99.8735 on 32 procs for 35000 steps with 12426 atoms

Performance: 302783086.907 tau/day, 350.443 timesteps/s
92.3% CPU use with 32 MPI tasks x no OpenMP threads

MPI task timing breakdown:
Section |  min time  |  avg time  |  max time  |%varavg| %total
---------------------------------------------------------------
Pair    | 0.013621   | 0.17185    | 0.36361    |  24.2 |  0.17
Neigh   | 0.0063446  | 0.069712   | 0.16238    |  16.5 |  0.07
Comm    | 0.079858   | 0.24005    | 0.45478    |  16.8 |  0.24
Output  | 27.099     | 27.1       | 27.111     |   0.1 | 27.13
Modify  | 71.498     | 71.592     | 71.687     |   0.6 | 71.68
Other   |            | 0.6993     |            |       |  0.70

Nlocal:    388.312 ave 816 max 28 min
Histogram: 3 4 3 5 3 5 3 2 2 2
Nghost:    211.25 ave 494 max 32 min
Histogram: 3 3 6 6 6 3 2 2 0 1
Neighs:    1990.09 ave 4481 max 94 min
Histogram: 4 3 5 4 5 4 1 2 2 2

Total # of neighbors = 63683
Ave neighs/atom = 5.12498
Neighbor list builds = 703
Dangerous builds = 0
Total wall time: 0:01:40
