LAMMPS (20 Nov 2019)
Reading data file ...
  orthogonal box = (0 0 0) to (0.0001 0.0001 1e-05)
  8 by 4 by 1 MPI processor grid
  reading atoms ...
  100 atoms
  4 nutrients
Lattice spacing in x,y,z = 100 100 100
50 atoms in group CYANO
50 atoms in group ECW
Model is defined as a closed system. 
Neighbor list info ...
  update every 1 steps, delay 0 steps, check yes
  max neighbors/atom: 5000, page size: 100000
  master list distance cutoff = 2.43e-06
  ghost atom cutoff = 2.43e-06
  binsize = 1.215e-06, bins = 83 83 9
  1 neighbor lists, perpetual/occasional/extra = 1 0 0
  (1) pair gran/hooke/history, perpetual
      attributes: half, newton off, size, history
      pair build: half/size/bin/newtoff
      stencil: half/bin/3d/newtoff
      bin: standard
Setting up Verlet run ...
  Unit style    : lj
  Current step  : 0
  Time step     : 10
Per MPI rank memory allocation (min/avg/max) = 5.796 | 10.9 | 12.11 Mbytes
Step CPU Atoms c_myNtypes[1] c_myNtypes[2] c_myMass[1] c_myMass[2] c_myCon[1] c_myCon[2] c_myCon[3] c_myCon[4] 
       0            0      100           50           50 4.354189e-14 9.231745e-15          0.1        0.009     3.42e-20       0.0299 
number of iterations: 323456 
     100    15.586735      134           50           84 4.4118917e-14 9.2286488e-15          0.1 0.0090007597  0.034978068  0.029898735 
number of iterations: 4589 
     200    15.954329      151           50          101 4.470359e-14 9.2301331e-15          0.1 0.0090007695  0.069216721  0.029898718 
number of iterations: 2978 
     300    16.281893      151           50          101 4.5296012e-14 9.2361625e-15          0.1 0.0090007794   0.10379839  0.029898701 
number of iterations: 2382 
     400    16.524361      151           50          101 4.5896285e-14 9.2467025e-15          0.1 0.0090007895   0.13873347  0.029898684 
number of iterations: 2053 
     500    16.794074      153           52          101 4.6504512e-14 9.2617328e-15          0.1 0.0090008024   0.17402949  0.029898662 
number of iterations: 1837 
     600    17.013795      156           54          102  4.71208e-14 9.281234e-15          0.1 0.0090008099   0.20969353   0.02989865 
number of iterations: 1680 
     700    17.222446      157           55          102 4.7745255e-14 9.3051928e-15          0.1 0.0090008203   0.24573222  0.029898632 
number of iterations: 1559 
     800    17.441186      157           55          102 4.8377986e-14 9.3336108e-15          0.1  0.009000831    0.2821521  0.029898614 
number of iterations: 1462 
     900    17.669295      158           56          102 4.9019101e-14 9.3664914e-15          0.1 0.0090008417   0.31895962  0.029898596 
number of iterations: 1396 
    1000    17.890462      158           56          102 4.9668713e-14 9.403844e-15          0.1 0.0090008496   0.35616111  0.029898582 
number of iterations: 1431 
    1100    18.116041      159           57          102 5.0326934e-14 9.4456844e-15          0.1 0.0090008606   0.39376284  0.029898564 
number of iterations: 1434 
    1200    18.309209      159           57          102 5.0993877e-14 9.4920342e-15          0.1 0.0090008718   0.43177102  0.029898545 
number of iterations: 1437 
    1300     18.50281      162           57          105 5.1669659e-14 9.5429213e-15          0.1 0.0090008831   0.47019177  0.029898526 
number of iterations: 1439 
    1400    18.700852      163           57          106 5.2354396e-14 9.5983808e-15          0.1 0.0090008946   0.50903119  0.029898506 
number of iterations: 1442 
    1500    18.890909      164           58          106 5.3048208e-14 9.6584516e-15          0.1 0.0090009062   0.54829529  0.029898487 
number of iterations: 1445 
    1600    19.094983      164           58          106 5.3751214e-14 9.7231798e-15          0.1  0.009000918   0.58799004  0.029898467 
number of iterations: 1503 
    1700    19.292638      165           59          106 5.4463537e-14 9.7926134e-15          0.1 0.0090009299   0.62812138  0.029898446 
number of iterations: 1425 
    1800    19.481435      167           61          106 5.5185299e-14 9.8668151e-15          0.1 0.0090009377   0.66869513  0.029898433 
number of iterations: 1453 
    1900    19.662758      169           61          108 5.5916627e-14 9.9458487e-15          0.1 0.0090009499   0.70971714  0.029898413 
number of iterations: 1456 
    2000    19.902255      169           61          108 5.6657646e-14 1.0029785e-14          0.1 0.0090009622   0.75119319  0.029898392 
number of iterations: 1459 
    2100    20.088353      169           61          108 5.7408485e-14  1.01187e-14          0.1 0.0090009748   0.79312898   0.02989837 
number of iterations: 1655 
    2200    20.305614      171           62          109 5.8169275e-14 1.0212679e-14          0.1 0.0090009915    0.8355302  0.029898342 
number of iterations: 1494 
    2300    20.479517      175           63          112 5.8940146e-14 1.0311802e-14          0.1 0.0090010044   0.87840244   0.02989832 
number of iterations: 1468 
    2400    20.657003      175           63          112 5.9721234e-14 1.0416173e-14          0.1 0.0090010175   0.92175129  0.029898298 
number of iterations: 1552 
    2500    20.884176      179           64          115 6.0512672e-14 1.0525887e-14          0.1 0.0090010323   0.96558214  0.029898273 
number of iterations: 1475 
    2600    21.089324      180           64          116 6.1314599e-14 1.064106e-14          0.1 0.0090010458    1.0099006  0.029898251 
number of iterations: 1613 
    2700    21.290802      181           65          116 6.2127153e-14 1.0761807e-14          0.1 0.0090010647    1.0547121  0.029898219 
number of iterations: 1481 
    2800    21.491394      182           65          117 6.2950476e-14 1.0888252e-14          0.1 0.0090010786    1.1000219  0.029898195 
number of iterations: 1483 
    2900    21.687883      184           66          118 6.3784709e-14 1.1020522e-14          0.1 0.0090010883    1.1458354  0.029898179 
number of iterations: 1486 
    3000    21.905889      187           67          120 6.4629997e-14 1.1158757e-14          0.1 0.0090011025     1.192158  0.029898155 
number of iterations: 1468 
    3100    22.086801      189           68          121 6.5486488e-14 1.1303101e-14          0.1 0.0090011125    1.2389946  0.029898138 
number of iterations: 1491 
    3200    22.279764      190           68          122 6.6354329e-14 1.1453707e-14          0.1  0.009001127    1.2863504  0.029898113 
number of iterations: 1630 
    3300    22.467535      192           70          122 6.723367e-14 1.161074e-14          0.1  0.009001143    1.3342302  0.029898086 
number of iterations: 1497 
    3400    22.653645      194           70          124 6.8124665e-14 1.1774371e-14          0.1 0.0090011579    1.3826392  0.029898061 
number of iterations: 1518 
    3500    22.849667      196           71          125 6.9027468e-14 1.1944767e-14          0.1 0.0090011729    1.4315822  0.029898035 
number of iterations: 1502 
    3600    23.035715      198           71          127 6.9942234e-14 1.2122119e-14          0.1 0.0090011882     1.481064  0.029898009 
number of iterations: 1433 
    3700    23.219535      202           72          130 7.0869124e-14 1.230662e-14          0.1 0.0090011992    1.5310893   0.02989799 
number of iterations: 1793 
    3800    23.413674      203           72          131 7.1808296e-14 1.2498474e-14          0.1 0.0090012218    1.5816628  0.029897952 
number of iterations: 1557 
    3900    23.612014      205           73          132 7.2759915e-14 1.2697896e-14          0.1  0.009001239    1.6327889  0.029897923 
number of iterations: 1513 
    4000    23.807347      208           73          135 7.3724144e-14 1.2905103e-14          0.1 0.0090012551     1.684472  0.029897896 
number of iterations: 1515 
    4100    23.997239      209           73          136 7.4701152e-14 1.3120332e-14          0.1 0.0090012714    1.7367165  0.029897868 
number of iterations: 1455 
    4200    24.231603      213           74          139 7.5691108e-14 1.3343822e-14          0.1 0.0090012856    1.7895266  0.029897844 
number of iterations: 1519 
    4300    24.417174      216           74          142 7.6694182e-14 1.3575834e-14          0.1 0.0090013023    1.8429063  0.029897816 
number of iterations: 1522 
    4400     24.64336      217           74          143 7.7710549e-14 1.3816635e-14          0.1 0.0090013192    1.8968596  0.029897787 
number of iterations: 1524 
    4500    24.832204      220           74          146 7.8740386e-14 1.4066501e-14          0.1 0.0090013363    1.9513901  0.029897758 
number of iterations: 1532 
    4600    25.021259      226           75          151 7.978387e-14 1.4325717e-14          0.1 0.0090013536    2.0065014  0.029897728 
number of iterations: 1530 
    4700    25.198819      232           75          157 8.0841182e-14 1.4594594e-14          0.1 0.0090013712    2.0621972  0.029897698 
number of iterations: 1564 
    4800    25.371823      236           78          158 8.1912506e-14 1.4873442e-14          0.1 0.0090013846    2.1184804  0.029897675 
number of iterations: 1536 
    4900    25.556778      239           78          161 8.2998028e-14 1.5162594e-14          0.1 0.0090014026    2.1753544  0.029897645 
number of iterations: 1538 
    5000    25.754638      241           78          163 8.4097935e-14 1.5462386e-14          0.1 0.0090014207    2.2328222  0.029897614 
number of iterations: 1541 
    5100    25.942862      243           78          165 8.5212418e-14 1.577318e-14          0.1 0.0090014391    2.2908865  0.029897583 
number of iterations: 1544 
    5200    26.125676      248           78          170 8.6341671e-14 1.6095345e-14          0.1 0.0090014577    2.3495499  0.029897551 
number of iterations: 1547 
    5300    26.325308      255           79          176 8.7485889e-14 1.6429276e-14          0.1 0.0090014766    2.4088149  0.029897519 
number of iterations: 1528 
    5400    26.493945      258           80          178 8.864527e-14 1.6775374e-14          0.1 0.0090014928    2.4686834  0.029897491 
number of iterations: 1625 
    5500    26.678692      263           82          181 8.9820015e-14 1.7134056e-14          0.1 0.0090015148    2.5291573  0.029897453 
number of iterations: 1568 
    5600     26.88131      272           87          185 9.1010328e-14 1.7505769e-14          0.1 0.0090015359    2.5902381  0.029897417 
number of iterations: 1671 
    5700    27.112023      278           88          190 9.2216416e-14 1.7890965e-14          0.1  0.009001561    2.6519273  0.029897375 
number of iterations: 1656 
    5800    27.318718      282           89          193 9.3438487e-14 1.8290107e-14          0.1   0.00900159    2.7142258  0.029897326 
number of iterations: 1560 
    5900    27.512849      290           91          199 9.4676753e-14 1.8703711e-14          0.1 0.0090016105    2.7771343   0.02989729 
number of iterations: 1603 
    6000    27.767364      294           93          201 9.5931429e-14 1.9132296e-14          0.1 0.0090016289    2.8406533  0.029897259 
number of iterations: 1687 
    6100    27.977475      307           97          210 9.7202732e-14 1.957639e-14          0.1 0.0090016628    2.9047826  0.029897202 
number of iterations: 1592 
    6200    28.177853      312           99          213 9.8490882e-14 2.0036555e-14          0.1 0.0090016829    2.9695222  0.029897167 
number of iterations: 1613 
    6300     28.37838      314          100          214 9.9796103e-14 2.0513368e-14          0.1 0.0090017093    3.0348714  0.029897122 
number of iterations: 1602 
    6400     28.57264      319          101          218 1.0111862e-13 2.1007429e-14          0.1 0.0090017293    3.1008292  0.029897088 
number of iterations: 1512 
    6500    28.758731      324          101          223 1.0245867e-13 2.1519375e-14          0.1 0.0090017415    3.1673941  0.029897066 
number of iterations: 1581 
    6600    28.946695      331          101          230 1.0381647e-13 2.2049869e-14          0.1 0.0090017639    3.2345643  0.029897028 
number of iterations: 1585 
    6700    29.119575      338          101          237 1.0519227e-13 2.2599591e-14          0.1 0.0090017865    3.3023373  0.029896989 
number of iterations: 1581 
    6800    29.302516      348          104          244 1.065863e-13 2.3169255e-14          0.1 0.0090018095    3.3707105  0.029896949 
number of iterations: 1590 
    6900    29.498635      357          105          252 1.079988e-13 2.3759597e-14          0.1 0.0090018326    3.4396804  0.029896909 
number of iterations: 1565 
    7000    29.698281      365          107          258 1.0943002e-13 2.4371387e-14          0.1 0.0090018545    3.5092432  0.029896871 
number of iterations: 1595 
    7100    29.899337      371          107          264 1.1088021e-13 2.5005431e-14          0.1 0.0090018782    3.5793945   0.02989683 
number of iterations: 1592 
    7200    30.089813      382          110          272 1.1234962e-13 2.5662553e-14          0.1 0.0090018991    3.6501294  0.029896794 
number of iterations: 1632 
    7300    30.277591      389          112          277 1.138385e-13 2.6343638e-14          0.1 0.0090019277    3.7214422  0.029896745 
number of iterations: 1619 
    7400    30.515024      395          116          279 1.1534711e-13 2.7049587e-14          0.1 0.0090019508    3.7933268  0.029896705 
number of iterations: 1798 
    7500    30.725338      401          118          283 1.1687571e-13 2.7781327e-14          0.1 0.0090019822    3.8657762  0.029896651 
number of iterations: 1628 
    7600    30.952984      413          118          295 1.1842457e-13 2.8539854e-14          0.1 0.0090020075    3.9387827  0.029896607 
number of iterations: 1630 
    7700    31.135721      430          123          307 1.1999396e-13 2.9326189e-14          0.1 0.0090020315     4.012338  0.029896565 
number of iterations: 1620 
    7800     31.34127      438          123          315 1.2158414e-13 3.0141394e-14          0.1 0.0090020571    4.0864327   0.02989652 
number of iterations: 1617 
    7900    31.551495      447          125          322 1.231954e-13 3.0986566e-14          0.1 0.0090020832    4.1610571  0.029896475 
number of iterations: 1610 
    8000    31.754432      458          128          330 1.2482801e-13 3.1862855e-14          0.1 0.0090021082    4.2362003  0.029896431 
number of iterations: 1635 
    8100    31.927261      474          130          344 1.2648226e-13 3.2771496e-14          0.1 0.0090021395    4.3118505  0.029896377 
number of iterations: 1625 
    8200    32.114986      481          130          351 1.2815842e-13 3.3713698e-14          0.1 0.0090021665    4.3879953   0.02989633 
number of iterations: 1623 
    8300    32.329602      498          134          364 1.2985681e-13 3.4690776e-14          0.1  0.009002189    4.4646211   0.02989629 
number of iterations: 1650 
    8400    32.534172      511          136          375 1.3157769e-13 3.5704081e-14          0.1 0.0090022166    4.5417131  0.029896242 
number of iterations: 1604 
    8500     32.73105      522          137          385 1.3332139e-13 3.6755005e-14          0.1 0.0090022415    4.6192558  0.029896198 
number of iterations: 1634 
    8600    32.917403      532          137          395 1.3508819e-13 3.7844998e-14          0.1 0.0090022695    4.6972323  0.029896148 
number of iterations: 1633 
    8700    33.124716      548          139          409 1.368784e-13 3.8975585e-14          0.1 0.0090022979    4.7756249  0.029896098 
number of iterations: 1670 
    8800    33.313439      560          142          418 1.3869234e-13 4.0148356e-14          0.1 0.0090023266    4.8544141  0.029896048 
number of iterations: 1652 
    8900    33.508139      576          144          432 1.4053032e-13 4.1364937e-14          0.1 0.0090023556    4.9335794  0.029895996 
number of iterations: 1658 
    9000    33.700584      595          144          451 1.4239266e-13 4.2627067e-14          0.1 0.0090023797    5.0130993  0.029895953 
number of iterations: 1684 
    9100    33.895822      608          145          463 1.4427967e-13  4.39365e-14          0.1 0.0090024105    5.0929503  0.029895899 
number of iterations: 1649 
    9200    34.140375      625          146          479 1.461917e-13 4.5295105e-14          0.1 0.0090024405    5.1731082  0.029895846 
number of iterations: 1654 
    9300    34.353445      638          146          492 1.4812906e-13 4.670481e-14          0.1 0.0090024709    5.2535466  0.029895792 
number of iterations: 1727 
    9400    34.559677      645          146          499 1.5009209e-13 4.8167611e-14          0.1 0.0090025063    5.3342377  0.029895729 
number of iterations: 1751 
    9500    34.757604      663          148          515 1.5208114e-13 4.9685584e-14          0.1 0.0090025429    5.4151522  0.029895665 
number of iterations: 1663 
    9600    34.948959      679          149          530 1.5409655e-13 5.1260897e-14          0.1  0.009002572     5.496259  0.029895612 
number of iterations: 1666 
    9700    35.146677      695          150          545 1.5613867e-13 5.2895805e-14          0.1 0.0090026037    5.5775254  0.029895556 
number of iterations: 1842 
    9800     35.36181      716          154          562 1.5820785e-13 5.4592528e-14          0.1 0.0090026423     5.658917  0.029895487 
number of iterations: 1673 
    9900    35.548135      736          155          581 1.6030445e-13 5.6353639e-14          0.1  0.009002669    5.7403968  0.029895439 
number of iterations: 1674 
   10000    35.764352      761          157          604 1.6242883e-13 5.8181656e-14          0.1 0.0090027017    5.8219264   0.02989538 
number of iterations: 1678 
   10100    35.959447      783          157          626 1.6458137e-13 6.0079203e-14          0.1 0.0090027296    5.9034643  0.029895329 
number of iterations: 1682 
   10200    36.144453      800          157          643 1.6676244e-13 6.204901e-14          0.1 0.0090027629     5.984968  0.029895269 
number of iterations: 1683 
   10300    36.339855      828          159          669 1.689724e-13 6.4093932e-14          0.1 0.0090027903    6.0663922  0.029895218 
number of iterations: 1761 
   10400    36.541356      856          162          694 1.7121166e-13 6.6216919e-14          0.1 0.0090028309    6.1476891  0.029895145 
number of iterations: 1693 
   10500    36.739047      879          162          717 1.7348059e-13 6.842099e-14          0.1 0.0090028653     6.228809  0.029895083 
number of iterations: 1694 
   10600    36.929757      902          164          738 1.7577959e-13 7.0709365e-14          0.1    0.0090029    6.3096991   0.02989502 
number of iterations: 1698 
   10700    37.141332      929          169          760 1.7810905e-13 7.3085544e-14          0.1 0.0090029252    6.3903044  0.029894972 
number of iterations: 1746 
   10800    37.351449      959          172          787 1.8046939e-13 7.5552776e-14          0.1 0.0090029668    6.4705666  0.029894896 
number of iterations: 1728 
   10900    37.569821      986          173          813  1.82861e-13 7.8114653e-14          0.1 0.0090029987     6.550425  0.029894837 
number of iterations: 1700 
   11000    37.768441     1017          177          840 1.8528431e-13 8.0774888e-14          0.1 0.0090030308    6.6298155  0.029894777 
number of iterations: 1705 
   11100    37.977397     1054          181          873 1.8773973e-13 8.3537349e-14          0.1 0.0090030669    6.7086714  0.029894711 
number of iterations: 1696 
   11200    38.183473     1085          186          899 1.9022769e-13 8.6406025e-14          0.1 0.0090030952    6.7869226  0.029894656 
number of iterations: 1726 
   11300     38.39646     1124          192          932 1.9274863e-13 8.9385057e-14          0.1 0.0090031368     6.864496   0.02989458 
number of iterations: 1727 
   11400    38.612753     1158          194          964 1.9530297e-13 9.2478772e-14          0.1   0.00900318    6.9413152  0.029894501 
number of iterations: 1704 
   11500    38.828088     1181          196          985 1.9789116e-13 9.5691607e-14          0.1 0.0090032131    7.0172999  0.029894438 
number of iterations: 1707 
   11600    39.020072     1225          200         1025 2.0051365e-13 9.9028181e-14          0.1 0.0090032349    7.0923657  0.029894393 
number of iterations: 1730 
   11700    39.232514     1268          204         1064 2.031709e-13 1.0249331e-13          0.1 0.0090032685    7.1664251  0.029894329 
number of iterations: 1717 
   11800    39.437173     1300          206         1094 2.0586335e-13 1.0609215e-13          0.1 0.0090033061    7.2393872  0.029894257 
number of iterations: 1716 
   11900    39.647646     1335          208         1127 2.0859149e-13 1.0982968e-13          0.1 0.0090033296    7.3111562  0.029894209 
number of iterations: 1740 
   12000    39.846839     1392          211         1181 2.1135579e-13 1.1371125e-13          0.1 0.0090033714    7.3816329   0.02989413 
number of iterations: 1726 
   12100    40.051198     1438          215         1223 2.1415671e-13 1.1774238e-13          0.1 0.0090034028    7.4507138  0.029894068 
number of iterations: 1735 
   12200    40.248505     1476          216         1260 2.1699476e-13 1.2192878e-13          0.1 0.0090034414    7.5182907  0.029893993 
number of iterations: 1741 
   12300    40.452297     1524          218         1306 2.1987041e-13 1.2627638e-13          0.1 0.0090034827    7.5842515  0.029893914 
number of iterations: 1705 
   12400    40.647089     1570          222         1348 2.2278418e-13 1.3079127e-13          0.1 0.0090035085    7.6484794   0.02989386 
number of iterations: 1793 
   12500    40.889983     1627          226         1401 2.2573655e-13 1.3547975e-13          0.1  0.009003542    7.7108527  0.029893793 
number of iterations: 1796 
   12600    41.112624     1686          228         1458 2.2872806e-13 1.4034818e-13          0.1 0.0090035849    7.7712455  0.029893709 
number of iterations: 1713 
   12700    41.332579     1752          233         1519 2.317592e-13 1.4540353e-13          0.1 0.0090036229    7.8295272  0.029893634 
number of iterations: 1695 
   12800    41.577766     1818          235         1583 2.3483052e-13 1.5065272e-13          0.1 0.0090036556    7.8855616  0.029893567 
number of iterations: 1791 
   12900    41.800496     1870          236         1634 2.3794253e-13 1.5610284e-13          0.1 0.0090036966    7.9392086  0.029893484 
number of iterations: 1770 
   13000    42.028379     1922          240         1682 2.4109579e-13 1.6176165e-13          0.1 0.0090037406    7.9903222  0.029893398 
number of iterations: 1753 
   13100    42.227113     1976          242         1734 2.4429084e-13 1.676365e-13          0.1 0.0090037792    8.0387517  0.029893318 
number of iterations: 1737 
   13200    42.442367     2037          243         1794 2.4752822e-13 1.7373514e-13          0.1 0.0090038181    8.0843416  0.029893238 
number of iterations: 1757 
   13300    42.647877     2112          246         1866 2.5080851e-13 1.8006499e-13          0.1 0.0090038584    8.1269314  0.029893156 
number of iterations: 1761 
   13400    42.864251     2169          249         1920 2.5413227e-13 1.8663492e-13          0.1 0.0090039021    8.1663556  0.029893067 
number of iterations: 1898 
   13500    43.108522     2247          253         1994 2.5750008e-13 1.934531e-13          0.1 0.0090039411    8.2024434  0.029892986 
number of iterations: 1818 
   13600     43.34954     2339          255         2084 2.6091252e-13 2.005284e-13          0.1 0.0090039875    8.2350196  0.029892892 
number of iterations: 1719 
   13700     43.56618     2416          260         2156 2.6437018e-13 2.078699e-13          0.1 0.0090040265    8.2639027  0.029892809 
number of iterations: 1828 
   13800    43.795586     2505          265         2240 2.6787366e-13 2.1548663e-13          0.1 0.0090040708    8.2889075  0.029892717 
number of iterations: 1776 
   13900     44.03741     2588          269         2319 2.7142357e-13 2.233879e-13          0.1 0.0090041163     8.309844  0.029892622 
number of iterations: 1842 
   14000    44.276669     2679          274         2405 2.7502052e-13 2.3158314e-13          0.1 0.0090041574    8.3265182  0.029892534 
number of iterations: 1848 
   14100     44.52234     2756          279         2477 2.7866514e-13 2.4008223e-13          0.1 0.0090042157    8.3387313  0.029892418 
number of iterations: 1774 
   14200    44.734657     2855          283         2572 2.8235806e-13 2.488947e-13          0.1 0.0090042566    8.3462813  0.029892328 
number of iterations: 1728 
   14300    44.931548     2947          284         2663 2.8609992e-13 2.5803059e-13          0.1 0.0090042901    8.3489623  0.029892251 
number of iterations: 1807 
   14400    45.160117     3058          289         2769 2.8989136e-13 2.6749986e-13          0.1 0.0090043386    8.3465657  0.029892149 
number of iterations: 1773 
   14500    45.401641     3151          292         2859 2.9373306e-13 2.773128e-13          0.1  0.009004378    8.3388804   0.02989206 
number of iterations: 1748 
   14600    45.652327     3283          298         2985 2.9762566e-13 2.8747948e-13          0.1 0.0090044186    8.3256932  0.029891968 
number of iterations: 1791 
   14700    45.863913     3401          301         3100 3.0156985e-13 2.9800995e-13          0.1 0.0090044482    8.3067911  0.029891895 
number of iterations: 1818 
   14800    46.071574     3521          304         3217 3.055663e-13 3.0891456e-13          0.1 0.0090044915    8.2819599  0.029891797 
number of iterations: 1801 
   14900    46.334242     3651          305         3346 3.0961572e-13 3.201069e-13          0.1  0.009004536    8.2510671  0.029891698 
number of iterations: 1799 
   15000     46.57207     3759          310         3449 3.137188e-13 3.3178833e-13          0.1  0.009004587    8.2138212  0.029891586 
number of iterations: 1817 
   15100    46.796695     3873          313         3560 3.1787626e-13 3.4387494e-13          0.1 0.0090046322    8.1700128  0.029891483 
number of iterations: 1810 
   15200    47.094492     4007          314         3693 3.2208881e-13 3.5637653e-13          0.1  0.009004668    8.1194362  0.029891396 
number of iterations: 1851 
   15300    47.342714     4158          319         3839 3.2635718e-13 3.6930248e-13          0.1   0.00900472    8.0618925   0.02989128 
number of iterations: 1836 
   15400    47.578379     4296          324         3972 3.3068213e-13 3.8266201e-13          0.1 0.0090047726    7.9971899  0.029891164 
number of iterations: 1826 
   15500    47.831786     4444          330         4114 3.3506438e-13 3.9634142e-13          0.1 0.0090048173     7.925248  0.029891059 
number of iterations: 1820 
   15600    48.073611     4607          334         4273 3.3950471e-13 4.1058858e-13          0.1 0.0090048612    7.8457981  0.029890955 
number of iterations: 1818 
   15700    48.325987     4773          337         4436 3.4400388e-13 4.252928e-13          0.1 0.0090049069    7.7586852  0.029890848 
number of iterations: 1829 
   15800    48.577441     4891          340         4551 3.4856268e-13 4.4023028e-13          0.1 0.0090049597    7.6639614  0.029890729 
number of iterations: 1784 
   15900     48.83179     5050          344         4706 3.5318189e-13 4.5550815e-13          0.1  0.009004998    7.5616107  0.029890635 
number of iterations: 1847 
   16000    49.070743     5233          350         4883 3.5786232e-13 4.7159879e-13          0.1 0.0090050478    7.4512562  0.029890519 
number of iterations: 1830 
   16100    49.296878     5404          354         5050 3.6260477e-13 4.8808904e-13          0.1 0.0090050901    7.3328943  0.029890416 
number of iterations: 1815 
   16200    49.545752     5596          358         5238 3.6741007e-13 5.050328e-13          0.1 0.0090051265    7.2065097  0.029890323 
number of iterations: 1866 
   16300    49.803851     5796          365         5431 3.7227905e-13 5.2246493e-13          0.1 0.0090051773     7.072094  0.029890205 
number of iterations: 1769 
   16400    50.049353     6005          369         5636 3.7721255e-13 5.4034149e-13          0.1 0.0090052217    6.9297144  0.029890097 
number of iterations: 1844 
   16500    50.298452     6191          372         5819 3.8221144e-13 5.5860017e-13          0.1 0.0090052651      6.77953  0.029889993 
number of iterations: 1890 
   16600    50.600709     6395          378         6017 3.8727657e-13 5.7727494e-13          0.1 0.0090053431     6.621717  0.029889831 
number of iterations: 1995 
   16700    50.914159     6619          384         6235 3.9240882e-13 5.9663973e-13          0.1 0.0090054224    6.4562866  0.029889667 
number of iterations: 1887 
   16800    51.196976     6818          390         6428 3.9760908e-13 6.1631851e-13          0.1 0.0090054856    6.2836063   0.02988953 
number of iterations: 1842 
   16900    51.468879     7017          393         6624 4.0287826e-13 6.3642334e-13          0.1 0.0090055468    6.1040101  0.029889398 
number of iterations: 1860 
   17000     51.74828     7224          397         6827 4.0821727e-13 6.5692774e-13          0.1 0.0090056104    5.9179177  0.029889262 
number of iterations: 1944 
   17100    52.034413     7470          405         7065 4.1362703e-13 6.7782543e-13          0.1  0.009005688    5.7258184  0.029889103 
number of iterations: 1867 
   17200    52.342164     7704          413         7291 4.1910849e-13 6.9899126e-13          0.1 0.0090057532    5.5283654  0.029888967 
number of iterations: 1866 
   17300    52.605047     7931          421         7510 4.2466258e-13 7.2059294e-13          0.1 0.0090058237    5.3261574  0.029888824 
number of iterations: 1898 
   17400    52.918254     8178          427         7751 4.3029028e-13 7.4247449e-13          0.1 0.0090058955    5.1199842  0.029888681 
number of iterations: 1913 
   17500     53.21152     8433          434         7999 4.3599255e-13 7.6446511e-13          0.1 0.0090059793     4.910831  0.029888519 
number of iterations: 1890 
   17600     53.53736     8660          439         8221 4.4177039e-13 7.8669717e-13          0.1 0.0090060498    4.6996515  0.029888384 
number of iterations: 1891 
   17700    53.849265     8914          445         8469 4.476248e-13 8.0931533e-13          0.1 0.0090061394     4.487368  0.029888218 
number of iterations: 1854 
   17800    54.185763     9169          451         8718 4.535568e-13 8.3168735e-13          0.1 0.0090062242    4.2754055  0.029888064 
number of iterations: 1949 
   17900    54.495312     9398          457         8941 4.595674e-13 8.5391362e-13          0.1 0.0090063334    4.0651342  0.029887873 
number of iterations: 1896 
   18000    54.823394     9638          465         9173 4.6565766e-13 8.7655749e-13          0.1 0.0090064353    3.8575699  0.029887698 
number of iterations: 1906 
   18100    55.181117     9882          476         9406 4.7182863e-13 8.9921846e-13          0.1 0.0090065429    3.6540209  0.029887515 
number of iterations: 1910 
   18200    55.520144    10145          478         9667 4.7808137e-13 9.2153104e-13          0.1 0.0090066505    3.4560044  0.029887337 
number of iterations: 1930 
   18300    55.883624    10373          485         9888 4.8441698e-13 9.4376245e-13          0.1 0.0090067516    3.2648014  0.029887172 
number of iterations: 2006 
   18400    56.223822    10635          490        10145 4.9083655e-13 9.6597824e-13          0.1 0.0090068667    3.0815728  0.029886988 
number of iterations: 2077 
   18500    56.565257    10885          500        10385 4.9734119e-13 9.8776636e-13          0.1 0.0090069911    2.9076045  0.029886792 
number of iterations: 2164 
   18600    56.891466    11146          510        10636 5.0393203e-13 1.0095468e-12          0.1 0.0090071148    2.7437729  0.029886599 
number of iterations: 2238 
   18700    57.269097    11375          514        10861 5.1061021e-13 1.0309717e-12          0.1 0.0090072347    2.5909669  0.029886413 
number of iterations: 2313 
   18800    57.678183    11596          519        11077 5.1737689e-13 1.0520431e-12          0.1  0.009007367    2.4498458   0.02988621 
number of iterations: 2384 
   18900     58.06248    11844          522        11322 5.2423325e-13 1.0726808e-12          0.1 0.0090074973    2.3208612   0.02988601 
number of iterations: 2456 
   19000    58.444961    12077          528        11549 5.3118047e-13 1.093178e-12          0.1 0.0090076379    2.2040615  0.029885793 
number of iterations: 2532 
   19100    58.849516    12278          534        11744 5.3821975e-13 1.1135171e-12          0.1 0.0090077756    2.0992823  0.029885581 
number of iterations: 2601 
   19200    59.237337    12491          540        11951 5.4535231e-13 1.1334836e-12          0.1 0.0090079203    2.0062487  0.029885356 
number of iterations: 2666 
   19300    59.629989    12724          546        12178 5.525794e-13 1.1533221e-12          0.1 0.0090080615    1.9243775  0.029885134 
number of iterations: 2725 
   19400    60.016785    12961          554        12407 5.5990226e-13 1.1729453e-12          0.1  0.009008212    1.8529861  0.029884896 
number of iterations: 2784 
   19500    60.413258    13183          555        12628 5.6732216e-13 1.1924314e-12          0.1 0.0090083447    1.7912531  0.029884685 
number of iterations: 2836 
   19600    60.807804    13404          563        12841 5.748404e-13 1.2116884e-12          0.1 0.0090084915    1.7383355  0.029884448 
number of iterations: 2888 
   19700    61.279314    13618          569        13049 5.8245826e-13 1.2311306e-12          0.1 0.0090086287     1.693197  0.029884224 
number of iterations: 2937 
   19800    61.697279    13815          575        13240 5.9017708e-13 1.2504367e-12          0.1 0.0090087677    1.6549721  0.029883995 
number of iterations: 2982 
   19900    62.094485    14043          586        13457 5.9799819e-13 1.269844e-12          0.1 0.0090088923    1.6227379  0.029883786 
number of iterations: 3023 
   20000    62.520136    14269          592        13677 6.0592294e-13 1.2893086e-12          0.1 0.0090090162     1.595665  0.029883576 
number of iterations: 3064 
   20100    62.977652    14495          602        13893 6.1395271e-13 1.3088788e-12          0.1  0.009009128    1.5729864  0.029883384 
number of iterations: 3101 
   20200     63.40866    14717          608        14109 6.220889e-13 1.3284908e-12          0.1 0.0090092501    1.5540472  0.029883173 
number of iterations: 3135 
   20300    63.863073    14933          614        14319 6.303329e-13 1.3481251e-12          0.1 0.0090093786    1.5382818  0.029882949 
number of iterations: 3171 
   20400    64.321804    15143          626        14517 6.3868616e-13 1.3678315e-12          0.1 0.0090095065    1.5251834  0.029882725 
number of iterations: 3209 
   20500    64.769139    15381          635        14746 6.4715011e-13 1.3875143e-12          0.1 0.0090096263    1.5143554  0.029882513 
number of iterations: 3241 
   20600    65.219852    15587          641        14946 6.5572623e-13 1.4075109e-12          0.1 0.0090097514    1.5053364  0.029882291 
number of iterations: 3268 
   20700    65.681332    15817          658        15159  6.64416e-13 1.4279824e-12          0.1 0.0090098785    1.4976915  0.029882063 
number of iterations: 3295 
   20800    66.141808    16049          668        15381 6.7322093e-13 1.4488254e-12          0.1 0.0090100208    1.4911085  0.029881809 
number of iterations: 3321 
   20900    66.611468    16282          677        15605 6.8214254e-13 1.4694149e-12          0.1 0.0090101659    1.4855649  0.029881551 
number of iterations: 3351 
   21000    67.080073    16526          687        15839 6.9118238e-13 1.4902274e-12          0.1 0.0090102909    1.4808601  0.029881325 
number of iterations: 3380 
   21100    67.539646    16739          694        16045 7.0034202e-13 1.5109775e-12          0.1 0.0090104458    1.4769357  0.029881048 
number of iterations: 3406 
   21200    68.044004    16948          698        16250 7.0962304e-13 1.5327733e-12          0.1  0.009010596    1.4733421  0.029880778 
number of iterations: 3435 
   21300    68.518229    17194          708        16486 7.1902705e-13 1.5546352e-12          0.1 0.0090107316    1.4700943  0.029880532 
number of iterations: 3460 
   21400    68.994158    17438          715        16723 7.2855569e-13 1.5768907e-12          0.1 0.0090108532    1.4670817  0.029880309 
number of iterations: 3486 
   21500    69.486407    17651          725        16926 7.3821059e-13 1.5994129e-12          0.1 0.0090110019    1.4642683   0.02988004 
number of iterations: 3515 
   21600    69.971384    17884          731        17153 7.4799345e-13 1.6221896e-12          0.1 0.0090111455     1.461631  0.029879779 
number of iterations: 3540 
   21700    70.461993    18134          741        17393 7.5790595e-13 1.6447432e-12          0.1 0.0090112921    1.4593224  0.029879514 
number of iterations: 3568 
   21800    70.974298    18401          748        17653 7.6794981e-13 1.6679295e-12          0.1 0.0090114435    1.4571461   0.02987924 
number of iterations: 3593 
   21900    71.478244    18703          761        17942 7.7812677e-13 1.6916996e-12          0.1 0.0090115892    1.4549769  0.029878974 
number of iterations: 3617 
   22000    71.996929    18979          774        18205 7.884386e-13 1.7154739e-12          0.1 0.0090117406     1.452933    0.0298787 
number of iterations: 3642 
   22100    72.544854    19263          782        18481 7.9888708e-13 1.7393275e-12          0.1 0.0090118939     1.451073  0.029878422 
number of iterations: 3667 
   22200    73.077503    19532          794        18738 8.0947402e-13 1.7639456e-12          0.1 0.0090120428    1.4491941  0.029878151 
number of iterations: 3687 
   22300    73.579272    19801          809        18992 8.2020126e-13 1.7885569e-12          0.1 0.0090121994    1.4474289  0.029877866 
number of iterations: 3714 
   22400    74.254408    20091          817        19274 8.3107066e-13 1.8141764e-12          0.1 0.0090123471    1.4455108  0.029877595 
number of iterations: 3739 
   22500     74.76949    20361          824        19537 8.420841e-13 1.839753e-12          0.1 0.0090124969    1.4436303  0.029877321 
number of iterations: 3768 
   22600    75.290404    20626          832        19794 8.5324349e-13 1.8656793e-12          0.1 0.0090126739    1.4417815  0.029877002 
number of iterations: 3793 
   22700     75.82087    20911          846        20065 8.6455077e-13 1.8920839e-12          0.1 0.0090128077    1.4399166  0.029876754 
number of iterations: 3819 
   22800    76.361214    21202          855        20347 8.7600789e-13 1.9183542e-12          0.1 0.0090129894    1.4382215  0.029876426 
number of iterations: 3842 
   22900    76.910786    21455          863        20592 8.8761684e-13 1.9450309e-12          0.1 0.0090131554    1.4366301  0.029876125 
number of iterations: 3870 
   23000    77.463954    21787          891        20896 8.9937963e-13 1.9724161e-12          0.1 0.0090133074    1.4349923  0.029875845 
number of iterations: 3893 
   23100    78.137507    22105          908        21197 9.1129831e-13 2.0002745e-12          0.1 0.0090134589    1.4332922  0.029875565 
number of iterations: 3921 
   23200    78.701841    22405          918        21487 9.2337493e-13 2.0276028e-12          0.1 0.0090136372    1.4318772  0.029875243 
number of iterations: 4012 
   23300     79.30323    22736          938        21798 9.3561158e-13 2.0558515e-12          0.1 0.0090138118    1.4304612  0.029874924 
number of iterations: 4042 
   23400    79.953735    23052          954        22098 9.4801041e-13 2.0838919e-12          0.1 0.0090139914     1.429257  0.029874597 
number of iterations: 4073 
   23500    80.591972    23354          967        22387 9.6057353e-13 2.1124564e-12          0.1 0.0090141576    1.4281433  0.029874293 
number of iterations: 4101 
   23600    81.267364    23686          976        22710 9.7330315e-13 2.1417394e-12          0.1 0.0090143527    1.4269756   0.02987394 
number of iterations: 4131 
   23700    81.950727    23995          990        23005 9.8620146e-13 2.1712346e-12          0.1 0.0090145462    1.4258412  0.029873588 
number of iterations: 4160 
   23800    82.597259    24343          995        23348 9.992707e-13 2.2012604e-12          0.1 0.0090147339    1.4246848  0.029873247 
number of iterations: 4185 
   23900     83.25698    24700         1008        23692 1.0125131e-12 2.2317726e-12          0.1 0.0090149106     1.423491  0.029872923 
number of iterations: 4172 
   24000    83.955261    25017         1014        24003 1.0246743e-12 2.2627234e-12          0.1 0.0090150876    1.4212945  0.029872598 
number of iterations: 4204 
   24100    84.646651    25362         1030        24332 1.0373023e-12   2.2942e-12          0.1 0.0090152732    1.4186883   0.02987226 
number of iterations: 4236 
   24200    85.315788    25721         1043        24678 1.0510487e-12 2.326293e-12          0.1 0.0090154924    1.4165111  0.029871865 
number of iterations: 4271 
   24300    86.014466    26073         1058        25015 1.0649773e-12 2.3584155e-12          0.1 0.0090157055     1.414748   0.02987148 
number of iterations: 4298 
   24400    86.681394    26448         1068        25380 1.0790905e-12 2.3908532e-12          0.1 0.0090158962    1.4132829  0.029871132 
number of iterations: 4333 
   24500    87.363185    26846         1082        25764 1.0933907e-12 2.4237085e-12          0.1 0.0090161108    1.4120103  0.029870744 
number of iterations: 4368 
   24600     88.05337    27214         1097        26117 1.1078804e-12 2.4570728e-12          0.1 0.0090163034    1.4108334   0.02987039 
number of iterations: 4404 
   24700     88.76949    27573         1115        26458 1.1225621e-12 2.4901026e-12          0.1 0.0090165304    1.4099901   0.02986998 
number of iterations: 4430 
   24800    89.488253    27916         1127        26789 1.1374384e-12 2.5247593e-12          0.1 0.0090167479    1.4089302  0.029869584 
number of iterations: 4459 
   24900    90.232044    28283         1142        27141 1.1525118e-12 2.5595249e-12          0.1   0.00901697    1.4078754  0.029869181 
number of iterations: 4487 
   25000    90.996256    28657         1157        27500 1.167785e-12 2.594815e-12          0.1 0.0090171722    1.4068078   0.02986881 
number of iterations: 4517 
   25100    91.705512    29037         1174        27863 1.1832606e-12 2.629917e-12          0.1 0.0090173823    1.4059689  0.029868426 
number of iterations: 4547 
   25200    92.442485    29420         1182        28238 1.1977103e-12 2.6656011e-12          0.1 0.0090175596    1.4042685  0.029868096 
number of iterations: 4582 
   25300    93.208408    29836         1196        28640 1.2135824e-12 2.7017247e-12          0.1  0.009017783    1.4030744  0.029867691 
number of iterations: 4614 
   25400    93.963024    30253         1204        29049 1.2296649e-12 2.7389816e-12          0.1 0.0090180195     1.401934   0.02986726 
number of iterations: 4651 
   25500    94.739154    30677         1224        29453 1.2459605e-12 2.7758845e-12          0.1 0.0090182486    1.4011236  0.029866844 
number of iterations: 4681 
   25600    95.528227    31052         1235        29817 1.262472e-12 2.8131213e-12          0.1 0.0090185004    1.4005462  0.029866387 
number of iterations: 4676 
   25700    96.300888    31472         1247        30225 1.2771584e-12 2.8516431e-12          0.1 0.0090187352    1.3982348  0.029865959 
number of iterations: 4711 
   25800     97.11012    31886         1265        30621 1.2940834e-12 2.8906961e-12          0.1 0.0090189794    1.3966304  0.029865515 
number of iterations: 4746 
   25900    97.910898    32309         1285        31024 1.3102677e-12 2.9294993e-12          0.1 0.0090191819    1.3949135  0.029865142 
number of iterations: 4781 
   26000    98.729419    32739         1297        31442 1.3276314e-12 2.9687952e-12          0.1 0.0090194131    1.3939091   0.02986472 
number of iterations: 4809 
   26100    99.536341    33212         1307        31905 1.3441007e-12 3.009077e-12          0.1 0.0090196574    1.3922283  0.029864275 
number of iterations: 4838 
   26200    100.34571    33676         1321        32355 1.3619128e-12 3.0497123e-12          0.1 0.0090199143    1.3911676  0.029863809 
number of iterations: 4867 
   26300    101.19047    34103         1342        32761 1.379961e-12 3.0905181e-12          0.1 0.0090201536    1.3905361  0.029863371 
number of iterations: 4901 
   26400    102.02804    34537         1363        33174 1.3972815e-12 3.1318951e-12          0.1 0.0090204456    1.3893507  0.029862844 
number of iterations: 4903 
   26500    102.84404    35032         1379        33653 1.4148659e-12 3.1745822e-12          0.1 0.0090206655    1.3876828  0.029862438 
number of iterations: 4935 
   26600    103.72689    35562         1398        34164 1.4336158e-12 3.2173697e-12          0.1 0.0090209559    1.3866953  0.029861915 
number of iterations: 4963 
   26700    104.60416    36035         1409        34626 1.4526142e-12 3.2606979e-12          0.1 0.0090212329    1.3860254  0.029861413 
number of iterations: 4964 
   26800    105.43824    36529         1435        35094 1.4708682e-12 3.3045305e-12          0.1 0.0090215292    1.3847491  0.029860876 
number of iterations: 4995 
   26900    106.31093    37026         1458        35568 1.4894918e-12 3.3487813e-12          0.1 0.0090217576    1.3833815  0.029860454 
number of iterations: 5023 
   27000    107.17308    37514         1481        36033 1.5092306e-12 3.3938963e-12          0.1 0.0090220176    1.3825648  0.029859979 
number of iterations: 5033 
   27100    108.12503    38022         1504        36518 1.5282408e-12 3.4392743e-12          0.1 0.0090222826    1.3813264  0.029859493 
number of iterations: 5067 
   27200    109.00169    38526         1526        37000 1.5484931e-12 3.4846785e-12          0.1 0.0090225416    1.3808979   0.02985902 
number of iterations: 5096 
   27300    109.89792    39062         1549        37513 1.5680124e-12 3.5305393e-12          0.1 0.0090227981     1.380064  0.029858549 
number of iterations: 5130 
   27400    110.78286    39536         1573        37963 1.5887918e-12 3.5764036e-12          0.1 0.0090230858    1.3800672  0.029858026 
number of iterations: 5156 
   27500    111.74431    40068         1604        38464 1.6098465e-12 3.6243048e-12          0.1 0.0090233852    1.3798917  0.029857481 
number of iterations: 5194 
   27600    112.67112    40595         1630        38965 1.6311802e-12 3.6718912e-12          0.1 0.0090236846    1.3799806  0.029856936 
number of iterations: 5230 
   27700    113.62811    41118         1643        39475 1.6492487e-12 3.719852e-12          0.1 0.0090239603    1.3774982  0.029856429 
number of iterations: 5266 
   27800     114.6226    41654         1664        39990 1.6711046e-12 3.768792e-12          0.1 0.0090242693    1.3767694  0.029855872 
number of iterations: 5299 
   27900     115.5806    42205         1684        40521 1.6932502e-12 3.8187288e-12          0.1 0.0090245964    1.3765265  0.029855279 
number of iterations: 5335 
   28000    116.55048    42802         1702        41100 1.714592e-12 3.8693487e-12          0.1 0.0090248537    1.3755916  0.029854801 
number of iterations: 5362 
   28100    117.52292    43331         1719        41612 1.7373138e-12 3.9199852e-12          0.1 0.0090251888    1.3755165  0.029854194 
number of iterations: 5386 
   28200     118.4846    43927         1743        42184 1.7603368e-12 3.9707622e-12          0.1 0.0090254952    1.3758938  0.029853634 
number of iterations: 5422 
   28300    119.51889    44479         1761        42718 1.782672e-12 4.0224647e-12          0.1 0.0090258075    1.3755479  0.029853063 
number of iterations: 5451 
   28400    120.48836    45033         1784        43249 1.8054146e-12 4.075552e-12          0.1 0.0090260983    1.3748386  0.029852528 
number of iterations: 5476 
   28500    121.52345    45633         1802        43831  1.82934e-12 4.1291569e-12          0.1 0.0090264323    1.3747791  0.029851921 
number of iterations: 5506 
   28600    122.53107    46211         1833        44378 1.8535824e-12 4.1825948e-12          0.1 0.0090267693    1.3752018  0.029851308 
number of iterations: 5523 
   28700    123.54267    46825         1853        44972 1.8772391e-12 4.2377312e-12          0.1 0.0090270977    1.3747041  0.029850706 
number of iterations: 5556 
   28800    124.58639    47467         1885        45582 1.9021163e-12 4.2928747e-12          0.1  0.009027392    1.3749293  0.029850164 
number of iterations: 5593 
   28900    125.59478    48083         1914        46169 1.9273232e-12 4.3492923e-12          0.1 0.0090277265    1.3751437   0.02984955 
number of iterations: 5589 
   29000    126.62088    48724         1935        46789 1.9502376e-12 4.4055531e-12          0.1 0.0090280281    1.3736197  0.029848991 
number of iterations: 5634 
   29100    127.64444    49365         1953        47412 1.9746497e-12 4.4630156e-12          0.1  0.009028344    1.3724924  0.029848413 
number of iterations: 5671 
   29200    128.72745    49947         1978        47969 2.0008177e-12 4.5192758e-12          0.1 0.0090287516    1.3732467  0.029847682 
number of iterations: 5712 
   29300    129.77201    50594         1999        48595 2.0273326e-12 4.5780485e-12          0.1 0.0090291084    1.3737752  0.029847029 
number of iterations: 5741 
   29400    130.85917    51237         2036        49201 2.0541988e-12 4.6377835e-12          0.1 0.0090294737    1.3741897  0.029846361 
number of iterations: 5777 
   29500    131.92774    51893         2055        49838 2.081421e-12 4.6976622e-12          0.1 0.0090298583    1.3748032  0.029845663 
number of iterations: 5812 
   29600    133.00249    52572         2088        50484 2.109004e-12 4.7594851e-12          0.1 0.0090302719    1.3750491  0.029844911 
number of iterations: 5818 
   29700      134.135    53257         2120        51137 2.1340665e-12 4.8220964e-12          0.1 0.0090306036    1.3729979  0.029844296 
number of iterations: 5853 
   29800    135.23731    53934         2148        51786 2.1611108e-12 4.8848319e-12          0.1 0.0090309252    1.3721509  0.029843704 
number of iterations: 5857 
   29900    136.34071    54597         2162        52435 2.1885399e-12 4.9467517e-12          0.1 0.0090313643    1.3720614  0.029842914 
number of iterations: 5896 
   30000    137.45347    55282         2182        53100 2.2154301e-12 5.0102915e-12          0.1 0.0090317166    1.3710972  0.029842266 
number of iterations: 5929 
   30100    138.57759    56023         2213        53810 2.244789e-12 5.0747677e-12          0.1 0.0090321025    1.3716534  0.029841563 
number of iterations: 5960 
   30200    139.72573    56738         2251        54487 2.2745369e-12 5.1407967e-12          0.1 0.0090325317    1.3721223  0.029840782 
number of iterations: 5994 
   30300    140.87197    57456         2274        55182 2.304679e-12 5.2065688e-12          0.1 0.0090329757    1.3729652  0.029839977 
number of iterations: 6029 
   30400    142.03451    58202         2301        55901 2.3352205e-12 5.2743985e-12          0.1 0.0090333795    1.3734249  0.029839237 
number of iterations: 6060 
   30500    143.22645    58937         2322        56615 2.3661668e-12 5.3426845e-12          0.1 0.0090338241    1.3740016  0.029838429 
number of iterations: 6099 
   30600    144.43778    59687         2351        57336 2.3975232e-12 5.4108066e-12          0.1   0.00903427    1.3749439  0.029837618 
number of iterations: 6106 
   30700    145.62173    60471         2369        58102 2.4273872e-12 5.4818674e-12          0.1 0.0090347221    1.3737005  0.029836793 
number of iterations: 6149 
   30800    146.85293    61196         2391        58805 2.4595548e-12 5.5525825e-12          0.1 0.0090351401    1.3743436  0.029836031 
number of iterations: 6184 
   30900    148.04654    61996         2418        59578 2.4921488e-12 5.6245893e-12          0.1 0.0090355603    1.3748906  0.029835259 
number of iterations: 6214 
   31000    149.26079    62814         2457        60357 2.5251746e-12 5.6973314e-12          0.1  0.009036013    1.3755007  0.029834433 
number of iterations: 6248 
   31100    150.51438    63611         2492        61119 2.5572255e-12 5.7697406e-12          0.1 0.0090364366    1.3754478  0.029833656 
number of iterations: 6287 
   31200    151.79803    64436         2521        61915 2.5911138e-12 5.8449128e-12          0.1 0.0090368823     1.375894   0.02983284 
number of iterations: 6306 
   31300    153.03683    65289         2555        62734 2.6230672e-12 5.9203765e-12          0.1 0.0090373372    1.3746941  0.029832007 
number of iterations: 6302 
   31400    154.30011    66148         2585        63563 2.6554355e-12 5.9963867e-12          0.1 0.0090377749    1.3737369  0.029831207 
number of iterations: 6341 
   31500     155.5741    67029         2627        64402 2.6885498e-12 6.0727923e-12          0.1 0.0090382078    1.3732434  0.029830413 
number of iterations: 6375 
   31600    156.85232    67921         2668        65253 2.7232454e-12 6.1500981e-12          0.1 0.0090387307    1.3736473  0.029829468 
number of iterations: 6400 
   31700    158.12718    68823         2705        66118 2.7565881e-12 6.2311673e-12          0.1 0.0090392347    1.3716043  0.029828548 
number of iterations: 6460 
   31800    159.43232    69677         2755        66922 2.7931182e-12 6.3099056e-12          0.1 0.0090397635    1.3731722  0.029827599 
number of iterations: 6493 
   31900    160.90768    70624         2792        67832 2.8289731e-12 6.3913413e-12          0.1 0.0090402257    1.3728026  0.029826747 
number of iterations: 6536 
   32000    162.36221    71516         2818        68698 2.8646171e-12 6.474302e-12          0.1 0.0090407207    1.3720124  0.029825843 
number of iterations: 6555 
   32100    163.82008    72383         2857        69526 2.900232e-12 6.5563713e-12          0.1 0.0090412066    1.3715873  0.029824956 
number of iterations: 6604 
   32200     165.3017    73290         2898        70392 2.9371999e-12 6.6400434e-12          0.1 0.0090417242    1.3716256  0.029824015 
number of iterations: 6640 
   32300    166.75692    74216         2937        71279 2.9761235e-12 6.7248346e-12          0.1 0.0090422648    1.3727174  0.029823032 
number of iterations: 6668 
   32400    168.30798    75161         2985        72176 3.0155628e-12 6.8117107e-12          0.1 0.0090427591    1.3732577  0.029822121 
number of iterations: 6707 
   32500    169.81189    76158         3022        73136 3.0546951e-12 6.8982119e-12          0.1 0.0090433709    1.3737771  0.029821016 
number of iterations: 6752 
   32600    171.34161    77127         3064        74063 3.0951757e-12 6.985477e-12          0.1  0.009043929    1.3750827      0.02982 
number of iterations: 6699 
   32700    172.86774    78174         3087        75087 3.1289931e-12 7.0745404e-12          0.1 0.0090444258     1.370301  0.029819081 
number of iterations: 6756 
   32800    174.41056    79185         3136        76049 3.1704582e-12 7.1635236e-12          0.1 0.0090449722    1.3732714  0.029818102 
number of iterations: 6790 
   32900    175.98201    80184         3177        77007 3.2113715e-12 7.2548223e-12          0.1 0.0090455479    1.3727841  0.029817044 
number of iterations: 6833 
   33000    177.56563    81181         3216        77965 3.2539283e-12 7.3459153e-12          0.1 0.0090461362    1.3746785  0.029815976 
number of iterations: 6872 
   33100     179.1677    82312         3260        79052 3.297049e-12 7.4390239e-12          0.1 0.0090467272    1.3755181  0.029814893 
number of iterations: 6929 
   33200    180.77143    83344         3303        80041 3.3396291e-12 7.5327693e-12          0.1  0.009047242    1.3760284  0.029813942 
number of iterations: 6966 
   33300    182.38629    84385         3341        81044 3.3838855e-12 7.6296556e-12          0.1 0.0090477728    1.3768555   0.02981296 
number of iterations: 6975 
   33400    184.00382    85400         3381        82019 3.4256934e-12  7.72624e-12          0.1 0.0090483418    1.3757202  0.029811914 
number of iterations: 7018 
   33500    185.67427    86498         3427        83071 3.4710903e-12 7.8239978e-12          0.1  0.009048991    1.3777664  0.029810744 
number of iterations: 7031 
   33600    187.31854    87611         3476        84135 3.5161808e-12 7.9221895e-12          0.1  0.009049539    1.3780997  0.029809729 
number of iterations: 7068 
   33700    188.99555    88727         3515        85212 3.5617843e-12 8.0217978e-12          0.1 0.0090500901    1.3790371  0.029808712 
number of iterations: 7112 
   33800      190.673    89856         3558        86298 3.6080081e-12 8.1229886e-12          0.1 0.0090506705    1.3796171  0.029807643 
number of iterations: 7161 
   33900    192.39807    90998         3613        87385 3.6538517e-12 8.2244408e-12          0.1 0.0090513535    1.3799412  0.029806404 
number of iterations: 7166 
   34000    194.12251    92103         3662        88441 3.6993859e-12 8.3281129e-12          0.1 0.0090519071    1.3793546  0.029805381 
number of iterations: 7220 
   34100    195.83799    93222         3696        89526 3.7455174e-12 8.4321948e-12          0.1 0.0090524313     1.379563  0.029804407 
number of iterations: 7270 
   34200    197.57042    94401         3747        90654 3.7915754e-12 8.5355522e-12          0.1 0.0090531191    1.3795485  0.029803158 
number of iterations: 7323 
   34300    199.33796    95535         3796        91739 3.8397603e-12 8.6433416e-12          0.1 0.0090537173    1.3797885   0.02980206 
number of iterations: 7364 
   34400    201.13124    96714         3841        92873 3.8874313e-12 8.7513225e-12          0.1 0.0090544005    1.3793932  0.029800816 
number of iterations: 7417 
   34500      202.922    97840         3881        93959 3.9357763e-12 8.8589488e-12          0.1 0.0090549158     1.380036  0.029799855 
number of iterations: 7439 
   34600    204.76202    99076         3920        95156 3.982324e-12 8.9684324e-12          0.1 0.0090555887    1.3779829  0.029798624 
number of iterations: 7468 
   34700     206.5971   100302         3966        96336 4.0324334e-12 9.0786014e-12          0.1  0.009056299    1.3801752  0.029797339 
number of iterations: 7485 
   34800    208.42592   101587         4029        97558 4.0814035e-12 9.1911375e-12          0.1 0.0090569934    1.3779339  0.029796063 
number of iterations: 7554 
   34900     210.2886   102771         4062        98709  4.13207e-12 9.3050596e-12          0.1 0.0090576767    1.3794788  0.029794825 
number of iterations: 7606 
   35000    212.21105   103990         4118        99872 4.1828026e-12 9.4168905e-12          0.1 0.0090582557    1.3792427  0.029793743 
Loop time of 212.211 on 32 procs for 35000 steps with 103990 atoms

Performance: 142499619.013 tau/day, 164.930 timesteps/s
93.8% CPU use with 32 MPI tasks x no OpenMP threads

MPI task timing breakdown:
Section |  min time  |  avg time  |  max time  |%varavg| %total
---------------------------------------------------------------
Pair    | 0.21458    | 5.3615     | 15.265     | 162.2 |  2.53
Neigh   | 0.095785   | 1.7452     | 4.0147     |  76.2 |  0.82
Comm    | 1.1395     | 1.8501     | 2.55       |  26.0 |  0.87
Output  | 54.254     | 54.254     | 54.264     |   0.0 | 25.57
Modify  | 134.53     | 135.17     | 135.89     |   2.9 | 63.70
Other   |            | 13.83      |            |       |  6.52

Nlocal:    3249.69 ave 5545 max 460 min
Histogram: 1 2 3 3 4 5 4 6 2 2
Nghost:    1878.47 ave 3048 max 548 min
Histogram: 3 1 1 6 3 3 4 5 4 2
Neighs:    27389.2 ave 51715 max 3436 min
Histogram: 2 4 2 5 4 3 3 5 3 1

Total # of neighbors = 876454
Ave neighs/atom = 8.42825
Neighbor list builds = 841
Dangerous builds = 0
Total wall time: 0:03:32
