 NUFEB Simulation

     100 atoms 
     2 atom types 
     4 nutrients 

  0.0e-4   1.00e-04  xlo xhi 
  0.0e-4   1.00e-04  ylo yhi 
  0.0e-4   1.00e-05  zlo zhi 

 Atoms 

     1 1 1.83e-06  370 4.31e-05 4.81e-05 6.65e-06 1.83e-06 
     2 1 1.79e-06  370 3.33e-05 1.53e-05 6.00e-06 1.79e-06 
     3 1 1.82e-06  370 5.17e-05 9.20e-05 3.11e-06 1.82e-06 
     4 1 1.86e-06  370 9.17e-05 6.26e-05 5.28e-06 1.86e-06 
     5 1 1.74e-06  370 9.16e-05 1.75e-05 2.31e-06 1.74e-06 
     6 1 1.93e-06  370 5.55e-05 8.90e-05 3.98e-06 1.93e-06 
     7 1 1.70e-06  370 7.95e-05 1.82e-05 7.55e-06 1.70e-06 
     8 1 1.64e-06  370 9.43e-05 5.35e-05 6.17e-06 1.64e-06 
     9 1 1.76e-06  370 2.25e-05 1.60e-05 7.73e-06 1.76e-06 
     10 1 1.38e-06  370 7.88e-05 1.66e-05 3.36e-06 1.38e-06 
     11 1 1.55e-06  370 7.70e-05 1.70e-05 5.46e-06 1.55e-06 
     12 1 1.92e-06  370 1.99e-05 9.51e-05 3.28e-06 1.92e-06 
     13 1 1.92e-06  370 7.45e-05 7.26e-05 7.22e-06 1.92e-06 
     14 1 1.53e-06  370 5.22e-05 2.85e-05 7.95e-06 1.53e-06 
     15 1 1.65e-06  370 4.34e-05 7.52e-05 5.77e-06 1.65e-06 
     16 1 1.44e-06  370 8.31e-05 1.99e-05 8.26e-06 1.44e-06 
     17 1 1.53e-06  370 2.79e-05 5.20e-05 2.24e-06 1.53e-06 
     18 1 1.77e-06  370 7.25e-05 8.54e-05 2.69e-06 1.77e-06 
     19 1 1.52e-06  370 7.69e-05 8.63e-05 7.72e-06 1.52e-06 
     20 1 1.54e-06  370 8.32e-05 6.23e-05 2.71e-06 1.54e-06 
     21 1 1.74e-06  370 3.55e-06 7.29e-05 2.22e-06 1.74e-06 
     22 1 1.83e-06  370 1.49e-05 4.87e-05 3.47e-06 1.83e-06 
     23 1 1.54e-06  370 8.70e-05 3.65e-05 3.93e-06 1.54e-06 
     24 1 1.93e-06  370 9.00e-05 8.04e-05 6.51e-06 1.93e-06 
     25 1 1.46e-06  370 1.67e-05 9.05e-05 5.00e-06 1.46e-06 
     26 1 1.53e-06  370 7.55e-05 6.04e-05 4.21e-06 1.53e-06 
     27 1 1.47e-06  370 4.55e-05 5.48e-05 7.58e-06 1.47e-06 
     28 1 1.73e-06  370 5.77e-05 3.96e-05 2.91e-06 1.73e-06 
     29 1 1.52e-06  370 5.77e-05 4.14e-06 2.24e-06 1.52e-06 
     30 1 1.68e-06  370 4.32e-05 2.20e-05 1.83e-06 1.68e-06 
     31 1 1.94e-06  370 5.00e-06 2.02e-05 4.95e-06 1.94e-06 
     32 1 1.39e-06  370 5.06e-05 6.92e-06 4.94e-06 1.39e-06 
     33 1 1.61e-06  370 7.05e-05 8.72e-05 5.30e-06 1.61e-06 
     34 1 1.81e-06  370 8.45e-05 9.67e-05 3.34e-06 1.81e-06 
     35 1 1.60e-06  370 7.94e-05 3.92e-05 5.47e-06 1.60e-06 
     36 1 1.82e-06  370 1.59e-05 5.15e-05 5.94e-06 1.82e-06 
     37 1 1.56e-06  370 2.80e-05 4.93e-05 3.44e-06 1.56e-06 
     38 1 1.48e-06  370 1.68e-05 1.73e-05 5.66e-06 1.48e-06 
     39 1 1.64e-06  370 5.03e-05 6.64e-05 5.09e-06 1.64e-06 
     40 1 1.49e-06  370 8.55e-05 1.50e-05 6.97e-06 1.49e-06 
     41 1 1.62e-06  370 1.48e-05 6.90e-05 4.62e-06 1.62e-06 
     42 1 1.87e-06  370 9.43e-06 3.41e-05 5.27e-06 1.87e-06 
     43 1 1.50e-06  370 4.13e-05 3.18e-05 6.73e-06 1.50e-06 
     44 1 1.42e-06  370 1.07e-05 5.72e-05 3.88e-06 1.42e-06 
     45 1 1.65e-06  370 9.26e-05 2.15e-05 5.31e-06 1.65e-06 
     46 1 1.92e-06  370 4.31e-05 2.29e-05 3.81e-06 1.92e-06 
     47 1 1.62e-06  370 3.42e-05 5.05e-05 8.34e-06 1.62e-06 
     48 1 1.56e-06  370 4.62e-05 1.86e-05 7.26e-06 1.56e-06 
     49 1 1.89e-06  370 4.25e-05 4.51e-05 6.83e-06 1.89e-06 
     50 1 1.65e-06  370 7.62e-05 6.12e-05 1.75e-06 1.65e-06 
     51 2 9.39e-07  230 2.91e-05 9.96e-06 7.08e-06 9.39e-07 
     52 2 1.06e-06  230 8.96e-05 2.02e-05 3.63e-06 1.06e-06 
     53 2 8.90e-07  230 4.87e-05 6.46e-05 5.62e-06 8.90e-07 
     54 2 1.05e-06  230 5.11e-05 3.42e-05 7.98e-06 1.05e-06 
     55 2 1.28e-06  230 5.72e-05 8.09e-05 2.62e-06 1.28e-06 
     56 2 8.96e-07  230 8.36e-05 5.37e-05 4.96e-06 8.96e-07 
     57 2 9.33e-07  230 3.62e-05 8.38e-05 3.11e-06 9.33e-07 
     58 2 1.23e-06  230 7.63e-05 9.40e-05 6.82e-06 1.23e-06 
     59 2 1.32e-06  230 1.16e-05 8.80e-05 8.10e-06 1.32e-06 
     60 2 1.06e-06  230 5.60e-05 8.18e-05 1.07e-06 1.06e-06 
     61 2 1.03e-06  230 4.73e-05 5.95e-05 2.26e-06 1.03e-06 
     62 2 1.35e-06  230 1.30e-05 3.42e-05 5.93e-06 1.35e-06 
     63 2 1.13e-06  230 1.19e-05 6.75e-05 8.06e-06 1.13e-06 
     64 2 9.45e-07  230 9.31e-05 2.87e-05 7.19e-06 9.45e-07 
     65 2 1.20e-06  230 8.67e-05 8.50e-05 5.48e-06 1.20e-06 
     66 2 1.10e-06  230 6.85e-05 3.91e-05 7.64e-06 1.10e-06 
     67 2 9.18e-07  230 8.68e-05 2.15e-05 1.32e-06 9.18e-07 
     68 2 9.78e-07  230 4.17e-06 9.48e-05 2.56e-06 9.78e-07 
     69 2 1.27e-06  230 5.72e-05 1.00e-05 1.54e-06 1.27e-06 
     70 2 1.27e-06  230 5.15e-05 6.77e-05 3.46e-06 1.27e-06 
     71 2 1.11e-06  230 6.84e-05 8.32e-05 3.86e-06 1.11e-06 
     72 2 1.03e-06  230 9.61e-05 6.50e-05 4.94e-06 1.03e-06 
     73 2 1.31e-06  230 6.49e-05 3.12e-05 7.29e-06 1.31e-06 
     74 2 9.36e-07  230 9.81e-05 3.25e-05 4.28e-06 9.36e-07 
     75 2 1.12e-06  230 1.72e-05 4.55e-05 6.84e-06 1.12e-06 
     76 2 1.06e-06  230 5.81e-05 2.24e-05 6.19e-06 1.06e-06 
     77 2 1.28e-06  230 9.39e-05 9.44e-06 8.55e-06 1.28e-06 
     78 2 1.29e-06  230 6.02e-05 8.48e-06 5.33e-06 1.29e-06 
     79 2 8.84e-07  230 5.98e-05 7.74e-05 2.05e-06 8.84e-07 
     80 2 9.75e-07  230 8.07e-05 6.19e-05 8.97e-06 9.75e-07 
     81 2 8.93e-07  230 8.59e-05 4.57e-05 2.93e-06 8.93e-07 
     82 2 1.21e-06  230 8.82e-05 6.13e-05 5.69e-06 1.21e-06 
     83 2 1.16e-06  230 7.75e-05 9.03e-05 6.79e-06 1.16e-06 
     84 2 1.23e-06  230 4.82e-05 7.24e-05 7.43e-06 1.23e-06 
     85 2 9.88e-07  230 7.87e-05 5.94e-05 3.27e-06 9.88e-07 
     86 2 1.16e-06  230 8.58e-05 9.82e-05 6.60e-06 1.16e-06 
     87 2 1.29e-06  230 7.55e-05 4.94e-05 1.98e-06 1.29e-06 
     88 2 1.16e-06  230 3.38e-05 6.52e-05 4.64e-06 1.16e-06 
     89 2 9.02e-07  230 8.76e-05 7.37e-05 6.51e-06 9.02e-07 
     90 2 1.36e-06  230 2.07e-05 2.47e-05 3.73e-06 1.36e-06 
     91 2 1.06e-06  230 9.17e-05 6.24e-05 5.21e-06 1.06e-06 
     92 2 1.37e-06  230 7.86e-05 5.59e-05 4.82e-06 1.37e-06 
     93 2 9.65e-07  230 8.78e-06 9.57e-05 2.20e-06 9.65e-07 
     94 2 1.18e-06  230 4.23e-05 5.03e-05 6.38e-06 1.18e-06 
     95 2 1.15e-06  230 3.22e-05 6.62e-05 3.75e-06 1.15e-06 
     96 2 1.36e-06  230 3.56e-05 5.19e-05 3.29e-06 1.36e-06 
     97 2 1.32e-06  230 1.14e-05 8.51e-05 4.60e-06 1.32e-06 
     98 2 9.92e-07  230 1.31e-05 7.66e-05 6.03e-06 9.92e-07 
     99 2 9.36e-07  230 4.02e-05 3.75e-05 7.49e-06 9.36e-07 
     100 2 9.57e-07  230 1.44e-05 4.39e-05 2.75e-06 9.57e-07 

 Nutrients 

     1 sub g nn nn nn 1.00e-01 1.00e-01 
     2 o2 l nn nn nd 9.00e-03 9.00e-03 
     3 suc l nn nn nn 3.42e-20 3.42e-20 
     4 co2 l nn nn nd 2.99e-02 2.99e-02 

 Type Name 

     1 cyano  
     2 ecw  

 Diffusion Coeffs 

     sub 0 
     o2 2.3e-09 
     suc 5.2e-10 
     co2 1.9e-09 

 Growth Rate 

     cyano 1.67e-05 
     ecw 1.4e-05 

 Ks 

     cyano 0.00035 0.0002 0.01 0.000138 
     ecw 0 0.001 3.6 0.05 

 Yield 

     cyano 0.55 
     ecw 0.43 

 Maintenance 

     cyano 0 
     ecw 9.5e-07 

 Decay 

     cyano 0 
     ecw 0 



