LAMMPS (20 Nov 2019)
Reading data file ...
  orthogonal box = (0 0 0) to (0.0001 0.0001 1e-05)
  8 by 4 by 1 MPI processor grid
  reading atoms ...
  100 atoms
  4 nutrients
Lattice spacing in x,y,z = 100 100 100
50 atoms in group CYANO
50 atoms in group ECW
Model is defined as a closed system. 
Neighbor list info ...
  update every 1 steps, delay 0 steps, check yes
  max neighbors/atom: 5000, page size: 100000
  master list distance cutoff = 2.44e-06
  ghost atom cutoff = 2.44e-06
  binsize = 1.22e-06, bins = 82 82 9
  1 neighbor lists, perpetual/occasional/extra = 1 0 0
  (1) pair gran/hooke/history, perpetual
      attributes: half, newton off, size, history
      pair build: half/size/bin/newtoff
      stencil: half/bin/3d/newtoff
      bin: standard
Setting up Verlet run ...
  Unit style    : lj
  Current step  : 0
  Time step     : 10
Per MPI rank memory allocation (min/avg/max) = 6.792 | 11.12 | 12.11 Mbytes
Step CPU Atoms c_myNtypes[1] c_myNtypes[2] c_myMass[1] c_myMass[2] c_myCon[1] c_myCon[2] c_myCon[3] c_myCon[4] 
       0            0      100           50           50 4.5241343e-14 8.874426e-15          0.1        0.009     3.42e-20       0.0299 
number of iterations: 326551 
     100    15.737932      130           50           80 4.5840891e-14 8.8674771e-15          0.1 0.0090007688  0.036357393  0.029898719 
number of iterations: 3830 
     200    16.080424      143           50           93 4.6448384e-14 8.8611561e-15          0.1 0.0090007837  0.072035712  0.029898694 
number of iterations: 2612 
     300     16.34751      143           50           93 4.7063928e-14 8.8554493e-15          0.1 0.0090007941   0.10817023  0.029898677 
number of iterations: 2074 
     400    16.574684      144           51           93 4.7687629e-14 8.8503504e-15          0.1 0.0090008046   0.14476915   0.02989866 
number of iterations: 1724 
     500    16.781774      145           52           93 4.8319596e-14 8.8458539e-15          0.1 0.0090008152    0.1818394  0.029898642 
number of iterations: 1474 
     600    17.003312      147           54           93 4.8959938e-14 8.8419547e-15          0.1  0.009000826   0.21938772  0.029898624 
number of iterations: 1364 
     700    17.211328      147           54           93 4.9608765e-14 8.8386478e-15          0.1 0.0090008369   0.25742089  0.029898606 
number of iterations: 1367 
     800    17.429869      147           54           93 5.0266192e-14 8.8359285e-15          0.1 0.0090008479   0.29594564  0.029898587 
number of iterations: 1369 
     900    17.605304      147           54           93 5.093233e-14 8.8337924e-15          0.1 0.0090008591   0.33496879  0.029898569 
number of iterations: 1563 
    1000    17.866692      149           56           93 5.1607296e-14 8.832234e-15          0.1  0.009000875   0.37449718  0.029898542 
number of iterations: 1367 
    1100    18.052701      151           58           93 5.2291207e-14 8.8312497e-15          0.1 0.0090008853   0.41453787  0.029898525 
number of iterations: 1379 
    1200    18.256614      151           58           93 5.2984181e-14 8.8308355e-15          0.1  0.009000897   0.45509784  0.029898505 
number of iterations: 1382 
    1300    18.417531      151           58           93 5.3686339e-14 8.8309871e-15          0.1 0.0090009088   0.49618423  0.029898486 
number of iterations: 1384 
    1400    18.607384      151           58           93 5.4397802e-14 8.8317005e-15          0.1 0.0090009209   0.53780426  0.029898466 
number of iterations: 1400 
    1500    18.789369      151           58           93 5.5118693e-14 8.8329718e-15          0.1  0.009000933   0.57996525  0.029898445 
number of iterations: 1400 
    1600     18.95636      153           60           93 5.5849138e-14 8.8347969e-15          0.1 0.0090009454   0.62267453  0.029898425 
number of iterations: 1564 
    1700    19.147314      154           61           93 5.6589263e-14 8.8371722e-15          0.1 0.0090009612   0.66593971  0.029898398 
number of iterations: 1606 
    1800    19.335478      155           62           93 5.7339196e-14 8.8400942e-15          0.1 0.0090009783   0.70976839   0.02989837 
number of iterations: 1398 
    1900    19.502913      155           62           93 5.8099067e-14 8.8435591e-15          0.1 0.0090009913   0.75416828  0.029898348 
number of iterations: 1427 
    2000    19.701768      156           63           93 5.8869008e-14 8.8475642e-15          0.1 0.0090010044   0.79914738  0.029898326 
number of iterations: 1543 
    2100    19.883815      158           65           93 5.9649153e-14 8.8521051e-15          0.1  0.009001021    0.8447134  0.029898299 
number of iterations: 1410 
    2200    20.049891      158           65           93 6.0439636e-14 8.857179e-15          0.1 0.0090010345   0.89087435  0.029898276 
number of iterations: 1461 
    2300    20.259288      160           67           93 6.1240595e-14 8.8627821e-15          0.1 0.0090010436    0.9376382  0.029898261 
number of iterations: 1415 
    2400    20.465951      160           67           93 6.2052169e-14 8.8689118e-15          0.1 0.0090010574   0.98501331  0.029898238 
number of iterations: 1394 
    2500    20.652155      160           67           93 6.2874497e-14 8.875565e-15          0.1 0.0090010664     1.033008  0.029898223 
number of iterations: 1418 
    2600    20.853898      160           67           93 6.3707723e-14 8.8827389e-15          0.1 0.0090010805    1.0816307  0.029898199 
number of iterations: 1421 
    2700    21.035695      160           67           93 6.4551992e-14 8.8904306e-15          0.1 0.0090010948      1.13089  0.029898175 
number of iterations: 1443 
    2800    21.246928      161           67           94 6.5407448e-14 8.8986378e-15          0.1 0.0090011093    1.1807945  0.029898151 
number of iterations: 1427 
    2900    21.438849      161           67           94 6.6274242e-14 8.9073574e-15          0.1  0.009001124    1.2313529  0.029898127 
number of iterations: 1430 
    3000     21.62031      161           67           94 6.7152522e-14 8.9165869e-15          0.1 0.0090011389    1.2825742  0.029898102 
number of iterations: 1527 
    3100    21.813948      163           69           94 6.8042441e-14 8.9263241e-15          0.1 0.0090011569    1.3344673  0.029898072 
number of iterations: 1435 
    3200    21.987439      163           69           94 6.8944154e-14 8.9365662e-15          0.1 0.0090011723    1.3870414  0.029898046 
number of iterations: 1535 
    3300    22.176349      164           70           94 6.9857817e-14 8.9473108e-15          0.1 0.0090011911    1.4403056  0.029898015 
number of iterations: 1441 
    3400    22.421543      164           70           94 7.0783587e-14 8.9585558e-15          0.1 0.0090012069    1.4942694  0.029897989 
number of iterations: 1444 
    3500    22.605121      164           70           94 7.1721626e-14 8.970299e-15          0.1 0.0090012228    1.5489421  0.029897962 
number of iterations: 1447 
    3600    22.791205      164           70           94 7.2672096e-14 8.9825382e-15          0.1  0.009001239    1.6043334  0.029897935 
number of iterations: 1450 
    3700    22.953692      165           71           94 7.3635162e-14 8.9952714e-15          0.1 0.0090012554     1.660453  0.029897908 
number of iterations: 1453 
    3800    23.174096      165           71           94 7.461099e-14 9.0084966e-15          0.1 0.0090012721    1.7173107   0.02989788 
number of iterations: 1456 
    3900    23.395651      165           71           94 7.5599751e-14 9.022212e-15          0.1 0.0090012889    1.7749165  0.029897852 
number of iterations: 1458 
    4000    23.584986      165           71           94 7.6601614e-14 9.0364156e-15          0.1  0.009001306    1.8332806  0.029897823 
number of iterations: 1455 
    4100    23.780218      166           72           94 7.7616755e-14 9.0511057e-15          0.1  0.009001321     1.892413  0.029897798 
number of iterations: 1474 
    4200    23.959854      168           74           94 7.8645348e-14 9.0662807e-15          0.1 0.0090013385    1.9523243  0.029897769 
number of iterations: 1467 
    4300    24.153304      168           74           94 7.9687573e-14 9.0819388e-15          0.1 0.0090013562    2.0130249   0.02989774 
number of iterations: 1467 
    4400    24.313706      169           75           94 8.0743609e-14 9.098078e-15          0.1 0.0090013742    2.0745253   0.02989771 
number of iterations: 1467 
    4500    24.494844      170           76           94 8.181364e-14 9.1146975e-15          0.1 0.0090013889    2.1368365  0.029897685 
number of iterations: 1474 
    4600    24.684228      172           77           95 8.2897851e-14 9.1317962e-15          0.1 0.0090014038    2.1999693   0.02989766 
number of iterations: 1478 
    4700    24.870085      174           77           97 8.3996431e-14 9.1493722e-15          0.1 0.0090014224    2.2639349  0.029897629 
number of iterations: 1705 
    4800    25.049708      176           79           97 8.5109569e-14 9.1674245e-15          0.1 0.0090014458    2.3287444   0.02989759 
number of iterations: 1469 
    4900    25.224353      177           80           97 8.6237458e-14 9.1859515e-15          0.1 0.0090014603    2.3944091  0.029897566 
number of iterations: 1484 
    5000    25.413165      177           80           97 8.7380295e-14 9.204952e-15          0.1 0.0090014796    2.4609406  0.029897534 
number of iterations: 1519 
    5100    25.588269      181           84           97 8.8538276e-14 9.2244257e-15          0.1 0.0090015005    2.5283504  0.029897499 
number of iterations: 1489 
    5200    25.768238      182           85           97 8.9711604e-14 9.2443705e-15          0.1 0.0090015152    2.5966504  0.029897475 
number of iterations: 1493 
    5300    25.976653      182           85           97 9.090048e-14 9.2647856e-15          0.1 0.0090015353    2.6658526  0.029897441 
number of iterations: 1484 
    5400    26.185346      186           89           97 9.2105112e-14 9.2856691e-15          0.1 0.0090015522    2.7359688  0.029897413 
number of iterations: 1511 
    5500    26.403453      186           89           97 9.3325708e-14 9.3070211e-15          0.1 0.0090015728    2.8070116  0.029897379 
number of iterations: 1640 
    5600    26.610842      188           91           97 9.4562479e-14 9.3288405e-15          0.1 0.0090015938    2.8789934  0.029897344 
number of iterations: 1613 
    5700    26.793434      191           94           97 9.5815641e-14 9.351126e-15          0.1 0.0090016131    2.9519268  0.029897311 
number of iterations: 1534 
    5800    26.972769      196           99           97 9.7085409e-14 9.3738769e-15          0.1 0.0090016305    3.0258246  0.029897283 
number of iterations: 1500 
    5900    27.171714      197          100           97 9.8372005e-14 9.3970932e-15          0.1 0.0090016495    3.1006997  0.029897251 
number of iterations: 1508 
    6000    27.423411      197          100           97 9.9675651e-14 9.420774e-15          0.1 0.0090016713    3.1765653  0.029897214 
number of iterations: 1511 
    6100    27.624291      198          100           98 1.0099657e-13 9.4449186e-15          0.1 0.0090016919    3.2534346   0.02989718 
number of iterations: 1533 
    6200    27.791392      203          103          100  1.02335e-13 9.4695265e-15          0.1 0.0090017128    3.3313211  0.029897145 
number of iterations: 1547 
    6300    27.983147      205          105          100 1.0369116e-13 9.4945969e-15          0.1 0.0090017296    3.4102384  0.029897117 
number of iterations: 1589 
    6400    28.161438      207          107          100 1.050653e-13 9.5201288e-15          0.1 0.0090017539    3.4902003  0.029897077 
number of iterations: 1522 
    6500    28.323784      207          107          100 1.0645765e-13 9.5461226e-15          0.1 0.0090017772    3.5712208  0.029897038 
number of iterations: 1525 
    6600    28.504648      208          108          100 1.0786845e-13 9.5725778e-15          0.1 0.0090017972    3.6533142  0.029897005 
number of iterations: 1528 
    6700    28.695778      209          109          100 1.0929794e-13 9.5994943e-15          0.1 0.0090018211    3.7364947  0.029896965 
number of iterations: 1722 
    6800    28.883051      212          112          100 1.1074638e-13 9.6268717e-15          0.1 0.0090018546    3.8207762  0.029896909 
number of iterations: 1529 
    6900     29.05712      217          116          101 1.1221401e-13 9.6547098e-15          0.1 0.0090018747    3.9061742  0.029896875 
number of iterations: 1512 
    7000    29.217501      218          117          101 1.137011e-13 9.6830084e-15          0.1 0.0090018932    3.9927036  0.029896845 
number of iterations: 1640 
    7100    29.413647      221          118          103 1.1520789e-13 9.711767e-15          0.1 0.0090019214    4.0803795  0.029896798 
number of iterations: 1573 
    7200    29.587711      223          119          104 1.1673464e-13 9.7409856e-15          0.1 0.0090019468    4.1692171  0.029896755 
number of iterations: 1543 
    7300    29.777494      224          120          104 1.1828164e-13 9.7706644e-15          0.1 0.0090019726    4.2592321  0.029896712 
number of iterations: 1546 
    7400    29.945596      225          121          104 1.1984913e-13 9.8008038e-15          0.1 0.0090019962    4.3504403  0.029896673 
number of iterations: 1631 
    7500    30.115394      227          123          104 1.2143739e-13 9.8314036e-15          0.1 0.0090020228    4.4428575  0.029896629 
number of iterations: 1550 
    7600    30.300462      228          123          105 1.2304671e-13 9.8624637e-15          0.1 0.0090020496       4.5365  0.029896584 
number of iterations: 1662 
    7700    30.492384      229          124          105 1.2467734e-13 9.8939841e-15          0.1 0.0090020806    4.6313841  0.029896532 
number of iterations: 1674 
    7800    30.689296      232          127          105 1.2632959e-13 9.925965e-15          0.1 0.0090021179    4.7275264   0.02989647 
number of iterations: 1635 
    7900    30.878991      235          130          105 1.2800374e-13 9.9584068e-15          0.1 0.0090021411    4.8249444  0.029896432 
number of iterations: 1619 
    8000    31.069405      236          131          105 1.2970007e-13 9.9913094e-15          0.1 0.0090021734    4.9236544  0.029896378 
number of iterations: 1566 
    8100    31.250967      237          132          105 1.3141888e-13 1.0024673e-14          0.1 0.0090022022    5.0236737   0.02989633 
number of iterations: 1580 
    8200    31.429074      239          133          106 1.3316047e-13 1.0058498e-14          0.1 0.0090022314    5.1250199  0.029896281 
number of iterations: 1710 
    8300    31.623693      241          135          106 1.3492514e-13 1.0092785e-14          0.1 0.0090022732    5.2277109  0.029896211 
number of iterations: 1686 
    8400    31.802396      247          138          109 1.3671319e-13 1.0127533e-14          0.1 0.0090023048    5.3317645  0.029896159 
number of iterations: 1579 
    8500    31.982939      247          138          109 1.3852495e-13 1.0162744e-14          0.1 0.0090023354    5.4371987  0.029896108 
number of iterations: 1600 
    8600    32.184033      249          139          110 1.4036071e-13 1.0198417e-14          0.1 0.0090023663    5.5440321  0.029896056 
number of iterations: 1588 
    8700    32.479165      250          140          110 1.4222079e-13 1.0234554e-14          0.1 0.0090023977    5.6522832  0.029896004 
number of iterations: 1587 
    8800     32.67265      251          141          110 1.4410553e-13 1.0271156e-14          0.1 0.0090024193     5.761971  0.029895968 
number of iterations: 1588 
    8900     32.85392      253          143          110 1.4601525e-13 1.0308221e-14          0.1 0.0090024483    5.8731145   0.02989592 
number of iterations: 1685 
    9000     33.05267      256          146          110 1.4795027e-13 1.0345752e-14          0.1 0.0090024873    5.9857333  0.029895855 
number of iterations: 1636 
    9100    33.328655      257          147          110 1.4991094e-13 1.0383749e-14          0.1 0.0090025235    6.0998471  0.029895794 
number of iterations: 1658 
    9200    33.528105      260          148          112 1.5189758e-13 1.0422212e-14          0.1 0.0090025615    6.2154762  0.029895731 
number of iterations: 1578 
    9300    33.694466      260          148          112 1.5391056e-13 1.0461143e-14          0.1 0.0090025874    6.3326404  0.029895688 
number of iterations: 1604 
    9400    33.876502      262          150          112 1.5595021e-13 1.0500542e-14          0.1 0.0090026217    6.4513604  0.029895631 
number of iterations: 1700 
    9500    34.058729      265          153          112 1.580169e-13 1.0540408e-14          0.1 0.0090026596    6.5716567  0.029895568 
number of iterations: 1621 
    9600    34.234157      266          154          112 1.6011097e-13 1.0580745e-14          0.1 0.0090026948    6.6935504  0.029895509 
number of iterations: 1608 
    9700    34.404224      267          155          112 1.6223279e-13 1.0621552e-14          0.1 0.0090027276     6.817063  0.029895454 
number of iterations: 1691 
    9800    34.581003      271          157          114 1.6438273e-13 1.0662829e-14          0.1 0.0090027644    6.9422161  0.029895393 
number of iterations: 1680 
    9900    34.764814      276          162          114 1.6656116e-13 1.070458e-14          0.1 0.0090028043    7.0690313  0.029895327 
number of iterations: 1684 
   10000    34.947295      279          165          114 1.6876846e-13 1.0746804e-14          0.1 0.0090028444    7.1975307   0.02989526 
number of iterations: 1625 
   10100    35.145056      279          165          114 1.7100501e-13 1.0789502e-14          0.1 0.0090028821     7.327737  0.029895197 
number of iterations: 1700 
   10200    35.336382      282          168          114 1.7327121e-13 1.0832675e-14          0.1 0.0090029251    7.4596729  0.029895125 
number of iterations: 1636 
   10300    35.520651      287          170          117 1.7556743e-13 1.0876323e-14          0.1 0.0090029639    7.5933612  0.029895061 
number of iterations: 1662 
   10400    35.704185      289          171          118 1.7789408e-13 1.0920449e-14          0.1 0.0090030016    7.7288256  0.029894998 
number of iterations: 1643 
   10500    35.887868      290          172          118 1.8025157e-13 1.0965053e-14          0.1 0.0090030414    7.8660895  0.029894931 
number of iterations: 1693 
   10600    36.061436      294          176          118 1.826403e-13 1.1010136e-14          0.1 0.0090030836    8.0051769  0.029894861 
number of iterations: 1629 
   10700    36.246108      296          178          118 1.8506068e-13  1.10557e-14          0.1 0.0090031186    8.1461121  0.029894803 
number of iterations: 1648 
   10800    36.463169      299          180          119 1.8751314e-13 1.1101745e-14          0.1 0.0090031599    8.2889197  0.029894734 
number of iterations: 1759 
   10900    36.640179      305          185          120 1.899981e-13 1.1148274e-14          0.1 0.0090032096    8.4336244  0.029894651 
number of iterations: 1758 
   11000    36.846988      307          185          122 1.9251599e-13 1.1195286e-14          0.1 0.0090032576    8.5802517  0.029894571 
number of iterations: 1736 
   11100    37.071949      309          187          122 1.9506725e-13 1.1242784e-14          0.1   0.00900331    8.7288271  0.029894484 
number of iterations: 1726 
   11200    37.260854      312          190          122 1.9765232e-13 1.1290768e-14          0.1 0.0090033605    8.8793766    0.0298944 
number of iterations: 1636 
   11300    37.530541      315          192          123 2.0027164e-13 1.1339241e-14          0.1 0.0090033983    9.0319264  0.029894337 
number of iterations: 1739 
   11400     37.73208      319          195          124 2.0292568e-13 1.1388203e-14          0.1 0.0090034511    9.1865033  0.029894249 
number of iterations: 1676 
   11500    37.929262      322          198          124 2.0561489e-13 1.1437656e-14          0.1 0.0090034903    9.3431342  0.029894184 
number of iterations: 1755 
   11600    38.117803      327          203          124 2.0833974e-13 1.1487602e-14          0.1 0.0090035415    9.5018465  0.029894098 
number of iterations: 1774 
   11700    38.298692      332          208          124 2.1110069e-13 1.1538041e-14          0.1 0.0090035894    9.6626677  0.029894018 
number of iterations: 1761 
   11800    38.484075      338          213          125 2.1389824e-13 1.1588975e-14          0.1 0.0090036472    9.8256256  0.029893922 
number of iterations: 1702 
   11900     38.69116      344          216          128 2.1673286e-13 1.1640406e-14          0.1 0.0090036969    9.9907495  0.029893839 
number of iterations: 1683 
   12000    38.882788      350          221          129 2.1960504e-13 1.1692335e-14          0.1 0.0090037431    10.158067  0.029893762 
number of iterations: 1698 
   12100    39.081385      352          223          129 2.2251529e-13 1.1744764e-14          0.1 0.0090037821    10.327609  0.029893697 
number of iterations: 1751 
   12200    39.266981      354          225          129 2.254641e-13 1.1797695e-14          0.1 0.0090038398    10.499404  0.029893601 
number of iterations: 1683 
   12300     39.47099      360          229          131  2.28452e-13 1.1851129e-14          0.1 0.0090038857    10.673482  0.029893525 
number of iterations: 1709 
   12400    39.671847      363          231          132 2.3147948e-13 1.1905067e-14          0.1 0.0090039372    10.849874  0.029893439 
number of iterations: 1701 
   12500    39.852697      366          234          132 2.3454709e-13 1.1959513e-14          0.1 0.0090039894     11.02861  0.029893352 
number of iterations: 1774 
   12600    40.046703      373          240          133 2.3765535e-13 1.2014466e-14          0.1 0.0090040322    11.209721  0.029893281 
number of iterations: 1711 
   12700    40.233282      376          243          133 2.4080481e-13 1.2069929e-14          0.1 0.0090040857    11.393239  0.029893192 
number of iterations: 1766 
   12800    40.435908      381          248          133  2.43996e-13 1.2125904e-14          0.1 0.0090041454    11.579197  0.029893092 
number of iterations: 1753 
   12900    40.627488      383          249          134 2.4722947e-13 1.2182393e-14          0.1 0.0090042017    11.767626  0.029892998 
number of iterations: 1713 
   13000    40.833229      386          252          134 2.505058e-13 1.2239398e-14          0.1 0.0090042543     11.95856  0.029892911 
number of iterations: 1741 
   13100    41.044961      388          254          134 2.5382555e-13 1.2296919e-14          0.1 0.0090043146    12.152031   0.02989281 
number of iterations: 1715 
   13200    41.231417      390          255          135 2.5718929e-13 1.235496e-14          0.1 0.0090043698    12.348074  0.029892718 
number of iterations: 1770 
   13300    41.426427      394          258          136 2.6059761e-13 1.2413522e-14          0.1 0.0090044305    12.546722  0.029892617 
number of iterations: 1766 
   13400    41.616009      396          259          137 2.640511e-13 1.2472606e-14          0.1 0.0090044936    12.748011  0.029892512 
number of iterations: 1735 
   13500    41.809254      403          266          137 2.6755035e-13 1.2532216e-14          0.1 0.0090045445    12.951975  0.029892428 
number of iterations: 1782 
   13600    41.992761      406          269          137 2.7109598e-13 1.2592353e-14          0.1 0.0090046049     13.15865  0.029892327 
number of iterations: 1721 
   13700    42.203692      411          274          137 2.7468859e-13 1.2653019e-14          0.1  0.009004652    13.368073  0.029892248 
number of iterations: 1832 
   13800    42.451993      414          277          137 2.7832881e-13 1.2714215e-14          0.1 0.0090047282     13.58028  0.029892122 
number of iterations: 1731 
   13900    42.628849      421          283          138 2.8201727e-13 1.2775945e-14          0.1 0.0090047862    13.795307  0.029892025 
number of iterations: 1821 
   14000    42.842847      423          285          138 2.8575462e-13 1.283821e-14          0.1 0.0090048563    14.013192  0.029891908 
number of iterations: 1758 
   14100    43.047298      424          286          138 2.8954149e-13 1.2901012e-14          0.1 0.0090049195    14.233973  0.029891803 
number of iterations: 1770 
   14200    43.310818      427          289          138 2.9337854e-13 1.2964354e-14          0.1 0.0090049873    14.457689   0.02989169 
number of iterations: 1753 
   14300      43.5195      431          293          138 2.9726644e-13 1.3028237e-14          0.1 0.0090050496    14.684379  0.029891586 
number of iterations: 1746 
   14400    43.700737      434          295          139 3.0120587e-13 1.3092665e-14          0.1 0.0090051108    14.914081  0.029891484 
number of iterations: 1753 
   14500    43.913685      438          298          140 3.051975e-13 1.3157639e-14          0.1 0.0090051759    15.146837  0.029891376 
number of iterations: 1865 
   14600    44.105817      445          303          142 3.0924203e-13 1.3223161e-14          0.1 0.0090052646    15.382686  0.029891228 
number of iterations: 1765 
   14700     44.30516      452          310          142 3.1334016e-13 1.3289235e-14          0.1 0.0090053341     15.62167  0.029891112 
number of iterations: 1792 
   14800    44.497092      455          313          142 3.174926e-13 1.3355861e-14          0.1 0.0090054061    15.863832  0.029890992 
number of iterations: 1762 
   14900    44.688104      455          313          142 3.2170007e-13 1.3423043e-14          0.1 0.0090054778    16.109211  0.029890873 
number of iterations: 1784 
   15000    44.880689      462          318          144 3.2596329e-13 1.3490783e-14          0.1 0.0090055427    16.357853  0.029890765 
number of iterations: 1813 
   15100    45.093317      469          324          145 3.3028301e-13 1.3559084e-14          0.1 0.0090056181    16.609799  0.029890639 
number of iterations: 1853 
   15200    45.293138      472          326          146 3.3465998e-13 1.3627947e-14          0.1 0.0090057003    16.865094  0.029890502 
number of iterations: 1813 
   15300    45.486653      477          330          147 3.3909495e-13 1.3697376e-14          0.1  0.009005786    17.123783  0.029890359 
number of iterations: 1767 
   15400    45.684082      479          332          147 3.4358869e-13 1.3767372e-14          0.1 0.0090058572     17.38591  0.029890241 
number of iterations: 1792 
   15500     45.88022      484          335          149 3.4814198e-13 1.3837939e-14          0.1 0.0090059348    17.651521  0.029890111 
number of iterations: 1866 
   15600    46.108927      495          344          151 3.5275562e-13 1.3909079e-14          0.1 0.0090060291    17.920663  0.029889954 
number of iterations: 1797 
   15700    46.302044      502          348          154 3.5743039e-13 1.3980794e-14          0.1 0.0090061044    18.193381  0.029889829 
number of iterations: 1859 
   15800    46.532318      507          352          155 3.6216712e-13 1.4053087e-14          0.1 0.0090061836    18.469724  0.029889697 
number of iterations: 1808 
   15900    46.726295      510          355          155 3.6696662e-13 1.4125961e-14          0.1 0.0090062596     18.74974  0.029889571 
number of iterations: 1848 
   16000    46.916089      513          356          157 3.7182972e-13 1.4199418e-14          0.1 0.0090063441    19.033478   0.02988943 
number of iterations: 1808 
   16100    47.129381      519          361          158 3.7675727e-13 1.4273461e-14          0.1 0.0090064155    19.320986  0.029889311 
number of iterations: 1799 
   16200    47.345747      526          368          158 3.8175011e-13 1.4348094e-14          0.1 0.0090064937    19.612316  0.029889181 
number of iterations: 1799 
   16300    47.587256      533          375          158 3.8680913e-13 1.4423317e-14          0.1 0.0090065731    19.907518  0.029889048 
number of iterations: 1844 
   16400    47.794264      537          379          158 3.9193518e-13 1.4499134e-14          0.1 0.0090066599    20.206643  0.029888904 
number of iterations: 1803 
   16500    48.000006      544          385          159 3.9712917e-13 1.4575549e-14          0.1  0.009006744    20.509744  0.029888764 
number of iterations: 1851 
   16600    48.216661      554          393          161 4.0239199e-13 1.4652564e-14          0.1 0.0090068323    20.816874  0.029888617 
number of iterations: 1814 
   16700    48.404527      563          401          162 4.0772455e-13 1.4730182e-14          0.1 0.0090069172    21.128086  0.029888475 
number of iterations: 1833 
   16800    48.615205      568          406          162 4.1312778e-13 1.4808405e-14          0.1 0.0090070084    21.443434  0.029888323 
number of iterations: 1883 
   16900    48.815161      574          411          163 4.1860262e-13 1.4887237e-14          0.1 0.0090071017    21.762973  0.029888168 
number of iterations: 1854 
   17000    49.007399      583          418          165 4.2415001e-13 1.4966681e-14          0.1 0.0090072013     22.08676  0.029888002 
number of iterations: 1841 
   17100    49.231227      587          422          165 4.2977091e-13 1.5046739e-14          0.1 0.0090072863     22.41485   0.02988786 
number of iterations: 1876 
   17200    49.431939      593          428          165 4.354663e-13 1.5127414e-14          0.1 0.0090073834      22.7473  0.029887699 
number of iterations: 1814 
   17300    49.624267      598          433          165 4.4123717e-13 1.520871e-14          0.1 0.0090074693    23.084168  0.029887556 
number of iterations: 1931 
   17400    49.819058      607          442          165 4.4708451e-13 1.529063e-14          0.1 0.0090075789    23.425513  0.029887373 
number of iterations: 1905 
   17500     50.02385      614          449          165 4.5300934e-13 1.5373177e-14          0.1 0.0090076783    23.771395  0.029887207 
number of iterations: 1846 
   17600    50.225001      623          456          167 4.5901269e-13 1.5456353e-14          0.1 0.0090077723    24.121873  0.029887051 
number of iterations: 1833 
   17700      50.4155      631          463          168 4.650956e-13 1.5540162e-14          0.1  0.009007855    24.477009  0.029886913 
number of iterations: 1879 
   17800    50.605755      637          468          169 4.7125911e-13 1.5624608e-14          0.1 0.0090079641    24.836865  0.029886731 
number of iterations: 1867 
   17900    50.798774      643          473          170 4.7750431e-13 1.5709693e-14          0.1 0.0090080715    25.201503  0.029886553 
number of iterations: 1867 
   18000    51.039782      649          479          170 4.8383227e-13 1.5795421e-14          0.1  0.009008185    25.570986  0.029886364 
number of iterations: 1834 
   18100    51.244993      657          487          170 4.9024409e-13 1.5881794e-14          0.1  0.009008278    25.945379  0.029886209 
number of iterations: 1960 
   18200     51.45535      660          490          170 4.9674087e-13 1.5968817e-14          0.1 0.0090084121    26.324748  0.029885985 
number of iterations: 1874 
   18300    51.656199      671          500          171 5.0332376e-13 1.6056492e-14          0.1 0.0090085156    26.709157  0.029885813 
number of iterations: 1912 
   18400    51.847177      676          504          172 5.0999388e-13 1.6144823e-14          0.1 0.0090086261    27.098675  0.029885629 
number of iterations: 1876 
   18500    52.070552      685          513          172 5.1675239e-13 1.6233813e-14          0.1 0.0090087353     27.49337  0.029885447 
number of iterations: 1871 
   18600    52.273639      690          517          173 5.2360047e-13 1.6323465e-14          0.1 0.0090088428    27.893309  0.029885268 
number of iterations: 1883 
   18700    52.462778      703          529          174 5.305393e-13 1.6413784e-14          0.1 0.0090089579    28.298563  0.029885076 
number of iterations: 1892 
   18800    52.664929      710          536          174 5.3757008e-13 1.6504772e-14          0.1 0.0090090789    28.709201  0.029884875 
number of iterations: 1903 
   18900    52.860505      721          545          176 5.4469403e-13 1.6596432e-14          0.1  0.009009187    29.125297  0.029884695 
number of iterations: 1884 
   19000    53.085518      727          550          177 5.5191239e-13 1.668877e-14          0.1 0.0090093101    29.546922   0.02988449 
number of iterations: 1917 
   19100    53.351057      736          557          179 5.5922642e-13 1.6781787e-14          0.1 0.0090094357    29.974148   0.02988428 
number of iterations: 1903 
   19200    53.559758      744          563          181 5.6663736e-13 1.6875488e-14          0.1 0.0090095664    30.407052  0.029884063 
number of iterations: 1911 
   19300    53.752801      754          572          182 5.7414652e-13 1.6969876e-14          0.1 0.0090096854    30.845708  0.029883864 
number of iterations: 1916 
   19400    53.951682      760          576          184 5.8175519e-13 1.7064955e-14          0.1 0.0090098133    31.290192  0.029883651 
number of iterations: 1901 
   19500    54.149788      772          587          185 5.8946468e-13 1.7160729e-14          0.1 0.0090099419    31.740581  0.029883437 
number of iterations: 1893 
   19600    54.347163      777          591          186 5.9727635e-13  1.72572e-14          0.1 0.0090100615    32.196955  0.029883238 
number of iterations: 1903 
   19700    54.558365      785          598          187 6.0519154e-13 1.7354374e-14          0.1 0.0090101901    32.659393  0.029883024 
number of iterations: 1937 
   19800    54.784451      793          605          188 6.1321162e-13 1.7452254e-14          0.1 0.0090103293    33.127975  0.029882792 
number of iterations: 1907 
   19900    55.005475      803          615          188 6.2133798e-13 1.7550842e-14          0.1 0.0090104486    33.602783  0.029882593 
number of iterations: 1938 
   20000     55.30236      811          622          189 6.2957203e-13 1.7650145e-14          0.1 0.0090105802      34.0839  0.029882374 
number of iterations: 1931 
   20100    55.530568      819          629          190 6.379152e-13 1.7750164e-14          0.1 0.0090107181    34.571409  0.029882144 
number of iterations: 1948 
   20200    55.749867      823          632          191 6.4636893e-13 1.7850904e-14          0.1  0.009010873    35.065395  0.029881886 
number of iterations: 1911 
   20300    55.976592      833          639          194 6.549347e-13 1.7952369e-14          0.1 0.0090110102    35.565944  0.029881658 
number of iterations: 1924 
   20400      56.1824      839          645          194 6.6361398e-13 1.8054563e-14          0.1 0.0090111559    36.073143  0.029881415 
number of iterations: 1945 
   20500    56.401141      847          652          195 6.7240827e-13 1.815749e-14          0.1 0.0090113127     36.58708  0.029881154 
number of iterations: 1939 
   20600    56.631254      859          664          195 6.8131911e-13 1.8261153e-14          0.1 0.0090114638    37.107844  0.029880902 
number of iterations: 1961 
   20700    56.841153      868          673          195 6.9034804e-13 1.8365557e-14          0.1 0.0090116171    37.635526  0.029880647 
number of iterations: 1965 
   20800    57.053349      877          681          196 6.9949661e-13 1.8470707e-14          0.1 0.0090117681    38.170219  0.029880396 
number of iterations: 1960 
   20900    57.283546      887          688          199 7.0876643e-13 1.8576605e-14          0.1 0.0090119176    38.712016  0.029880147 
number of iterations: 1952 
   21000    57.491652      900          700          200 7.1815909e-13 1.8683257e-14          0.1 0.0090120654    39.261011    0.0298799 
number of iterations: 2018 
   21100    57.727361      914          714          200 7.2767622e-13 1.8790665e-14          0.1  0.009012223    39.817298  0.029879638 
number of iterations: 1968 
   21200    57.931762      924          722          202 7.3731947e-13 1.8898836e-14          0.1 0.0090123992    40.380975  0.029879344 
number of iterations: 1940 
   21300     58.13132      939          734          205 7.4709051e-13 1.9007772e-14          0.1  0.009012546    40.952142    0.0298791 
number of iterations: 1958 
   21400    58.345069      953          747          206 7.5699104e-13 1.9117477e-14          0.1 0.0090126961    41.530895   0.02987885 
number of iterations: 1966 
   21500    58.558567      963          756          207 7.6702278e-13 1.9227958e-14          0.1 0.0090128644    42.117336   0.02987857 
number of iterations: 1960 
   21600    58.765682      972          765          207 7.7718745e-13 1.9339216e-14          0.1 0.0090130212    42.711567  0.029878309 
number of iterations: 1964 
   21700    58.972919      981          774          207 7.8748682e-13 1.9451258e-14          0.1 0.0090131787    43.313691  0.029878046 
number of iterations: 1993 
   21800    59.184835      996          786          210 7.9792269e-13 1.9564087e-14          0.1 0.0090133741    43.923813  0.029877721 
number of iterations: 1986 
   21900    59.418333     1010          797          213 8.0849685e-13 1.9677708e-14          0.1 0.0090135532     44.54204  0.029877423 
number of iterations: 1988 
   22000     59.64842     1024          809          215 8.1921114e-13 1.9792125e-14          0.1 0.0090137252    45.168477  0.029877136 
number of iterations: 1975 
   22100    59.852879     1032          816          216 8.3006741e-13 1.9907342e-14          0.1 0.0090139056    45.803236  0.029876836 
number of iterations: 2016 
   22200    60.067322     1048          831          217 8.4106755e-13 2.0023365e-14          0.1 0.0090140926    46.446427  0.029876524 
number of iterations: 2005 
   22300     60.28416     1063          844          219 8.5221347e-13 2.0140198e-14          0.1 0.0090142871    47.098161    0.0298762 
number of iterations: 1990 
   22400    60.490071     1078          858          220 8.6350709e-13 2.0257845e-14          0.1 0.0090144809    47.758553  0.029875877 
number of iterations: 1960 
   22500    60.692586     1085          864          221  8.73477e-13 2.0376311e-14          0.1 0.0090146347    48.426591  0.029875621 
number of iterations: 2000 
   22600    60.909136     1097          876          221 8.850524e-13 2.0495601e-14          0.1 0.0090148153    49.103501   0.02987532 
number of iterations: 2020 
   22700    61.138806     1114          891          223 8.9678121e-13 2.0615718e-14          0.1 0.0090150231    49.789402  0.029874974 
number of iterations: 1975 
   22800    61.344368     1126          902          224 9.0866544e-13 2.0736668e-14          0.1 0.0090151851    50.484415  0.029874705 
number of iterations: 1997 
   22900     61.57344     1138          914          224 9.2070717e-13 2.0858456e-14          0.1 0.0090153759    51.188658  0.029874387 
number of iterations: 2009 
   23000     61.80003     1147          922          225 9.3290847e-13 2.0981086e-14          0.1 0.0090155777    51.902256  0.029874051 
number of iterations: 1978 
   23100    62.014668     1157          932          225 9.4527147e-13 2.1104564e-14          0.1 0.0090157675    52.625331  0.029873735 
number of iterations: 1962 
   23200    62.221463     1173          947          226 9.577983e-13 2.1228893e-14          0.1 0.0090159453     53.35801  0.029873438 
number of iterations: 1968 
   23300    62.427295     1187          959          228 9.7049113e-13 2.1354079e-14          0.1 0.0090161264    54.100418  0.029873137 
number of iterations: 2010 
   23400    62.639466     1204          976          228 9.8335217e-13 2.1480128e-14          0.1 0.0090163398    54.852686  0.029872781 
number of iterations: 2001 
   23500    62.861805     1213          984          229 9.9638365e-13 2.1607044e-14          0.1 0.0090165479    55.614944  0.029872435 
number of iterations: 2034 
   23600    63.065701     1231         1001          230 1.0095878e-12 2.1734831e-14          0.1 0.0090167782    56.387326  0.029872051 
number of iterations: 2021 
   23700    63.382589     1249         1015          234 1.022967e-12 2.1863496e-14          0.1 0.0090169832    57.169965   0.02987171 
number of iterations: 2015 
   23800     63.58182     1267         1031          236 1.0365234e-12 2.1993043e-14          0.1 0.0090171992    57.962996   0.02987135 
number of iterations: 2067 
   23900    63.808084     1279         1042          237 1.0502595e-12 2.2123477e-14          0.1 0.0090174666    58.766559  0.029870905 
number of iterations: 2082 
   24000    64.016652     1294         1056          238 1.0641776e-12 2.2254804e-14          0.1 0.0090177148    59.580793  0.029870492 
number of iterations: 2001 
   24100    64.247386     1305         1066          239 1.0782802e-12 2.2387028e-14          0.1 0.0090179205    60.405841  0.029870149 
number of iterations: 2066 
   24200    64.457682     1317         1077          240 1.0925697e-12 2.2520155e-14          0.1 0.0090181766    61.241846  0.029869722 
number of iterations: 2047 
   24300     64.67269     1329         1088          241 1.1070485e-12 2.265419e-14          0.1 0.0090184212    62.088953  0.029869315 
number of iterations: 2058 
   24400    64.895453     1344         1103          241 1.1217192e-12 2.2789139e-14          0.1 0.0090186603    62.947309  0.029868917 
number of iterations: 2044 
   24500     65.11383     1368         1127          241 1.1365843e-12 2.2925007e-14          0.1 0.0090189138    63.817062  0.029868495 
number of iterations: 2084 
   24600    65.358313     1387         1144          243 1.1516464e-12 2.3061799e-14          0.1 0.0090191781    64.698362  0.029868054 
number of iterations: 2029 
   24700    65.589213     1397         1154          243 1.1669081e-12 2.3199521e-14          0.1 0.0090194014    65.591365  0.029867683 
number of iterations: 2050 
   24800     65.80772     1410         1166          244 1.1823721e-12 2.3338177e-14          0.1  0.009019662    66.496226  0.029867249 
number of iterations: 2058 
   24900    66.030183     1432         1185          247 1.198041e-12 2.3477775e-14          0.1 0.0090199176    67.413102  0.029866823 
number of iterations: 2060 
   25000    66.251036     1451         1202          249 1.2139175e-12 2.3618318e-14          0.1 0.0090201703    68.342152  0.029866402 
number of iterations: 2039 
   25100    66.516479     1464         1213          251 1.2300044e-12 2.3759813e-14          0.1 0.0090204138    69.283539  0.029865997 
number of iterations: 2061 
   25200    66.732646     1480         1226          254 1.2463045e-12 2.3902266e-14          0.1 0.0090206786    70.237425  0.029865555 
number of iterations: 2045 
   25300     66.97421     1497         1242          255 1.2615711e-12 2.4045681e-14          0.1 0.0090209232     71.20302  0.029865148 
number of iterations: 2084 
   25400    67.189287     1513         1256          257 1.2782895e-12 2.4190065e-14          0.1   0.00902122    72.181437  0.029864654 
number of iterations: 2067 
   25500    67.426985     1529         1272          257 1.2952295e-12 2.4335424e-14          0.1 0.0090214907    73.172845  0.029864203 
number of iterations: 2065 
   25600    67.689287     1550         1290          260 1.312394e-12 2.4481762e-14          0.1 0.0090217551    74.177416  0.029863763 
number of iterations: 2063 
   25700    67.902719     1571         1308          263 1.3297859e-12 2.4629086e-14          0.1 0.0090220288    75.195325  0.029863307 
number of iterations: 2082 
   25800      68.1338     1592         1327          265 1.3461256e-12 2.4777403e-14          0.1 0.0090222811    76.225769  0.029862887 
number of iterations: 2058 
   25900    68.357903     1609         1344          265 1.3639645e-12 2.4926716e-14          0.1 0.0090225594    77.269895  0.029862423 
number of iterations: 2065 
   26000    68.591654     1628         1362          266 1.3820398e-12 2.5077033e-14          0.1 0.0090228429    78.327884  0.029861951 
number of iterations: 2105 
   26100     68.80839     1649         1380          269 1.4003547e-12 2.522836e-14          0.1 0.0090231487    79.399919  0.029861442 
number of iterations: 2100 
   26200     69.02338     1670         1401          269 1.4189123e-12 2.5380702e-14          0.1 0.0090234586    80.486187  0.029860926 
number of iterations: 2102 
   26300    69.268001     1689         1416          273 1.4377158e-12 2.5534066e-14          0.1 0.0090237685    81.586876   0.02986041 
number of iterations: 2090 
   26400    69.529193     1713         1438          275 1.4567685e-12 2.5688457e-14          0.1  0.009024084    82.702179  0.029859884 
number of iterations: 2086 
   26500    69.765165     1732         1455          277 1.4760736e-12 2.5843882e-14          0.1 0.0090243788    83.832288  0.029859393 
number of iterations: 2116 
   26600    69.995975     1755         1475          280 1.4956346e-12 2.6000348e-14          0.1 0.0090247068    84.977401  0.029858847 
number of iterations: 2113 
   26700     70.21435     1779         1497          282 1.5154548e-12 2.6157859e-14          0.1 0.0090250404    86.137714  0.029858291 
number of iterations: 2088 
   26800    70.439906     1799         1513          286 1.5355377e-12 2.6316423e-14          0.1 0.0090253507    87.313431  0.029857775 
number of iterations: 2104 
   26900    70.661779     1822         1535          287 1.5546659e-12 2.6476046e-14          0.1 0.0090256599    88.503823   0.02985726 
number of iterations: 2103 
   27000    70.892322     1847         1557          290 1.5752684e-12 2.6636734e-14          0.1 0.0090259881    89.710017  0.029856713 
number of iterations: 2133 
   27100    71.130409     1870         1578          292 1.5961439e-12 2.6798494e-14          0.1 0.0090263473    90.932223  0.029856115 
number of iterations: 2125 
   27200    71.355888     1891         1598          293 1.6172961e-12 2.6961332e-14          0.1 0.0090266838    92.170656  0.029855554 
number of iterations: 2139 
   27300    71.655701     1908         1615          293 1.6387285e-12 2.7125254e-14          0.1 0.0090270553    93.425529  0.029854936 
number of iterations: 2130 
   27400    71.872045     1926         1632          294 1.660445e-12 2.7290267e-14          0.1 0.0090274024     94.69706  0.029854358 
number of iterations: 2092 
   27500    72.099152     1953         1657          296 1.6824493e-12 2.7456378e-14          0.1  0.009027724    95.985469  0.029853822 
number of iterations: 2143 
   27600    72.345455     1984         1687          297 1.7047451e-12 2.7623593e-14          0.1 0.0090281067    97.290987  0.029853185 
number of iterations: 2184 
   27700    72.691515     2010         1713          297 1.7273364e-12 2.779192e-14          0.1 0.0090285096    98.613834  0.029852514 
number of iterations: 2124 
   27800    72.912163     2029         1731          298 1.7502271e-12 2.7961364e-14          0.1 0.0090288768    99.954242  0.029851902 
number of iterations: 2144 
   27900    73.161131     2051         1753          298 1.7734212e-12 2.8131933e-14          0.1 0.0090292593    101.31244  0.029851265 
number of iterations: 2130 
   28000    73.389993     2073         1774          299 1.7969226e-12 2.8303633e-14          0.1 0.0090296428    102.68867  0.029850627 
number of iterations: 2141 
   28100     73.61763     2094         1793          301 1.8194566e-12 2.8476472e-14          0.1 0.0090300163     104.0822  0.029850005 
number of iterations: 2184 
   28200    73.880044     2120         1816          304 1.8435681e-12 2.8650455e-14          0.1 0.0090304499    105.49422  0.029849283 
number of iterations: 2150 
   28300    74.107211     2148         1843          305 1.8679991e-12 2.882559e-14          0.1 0.0090308411    106.92498  0.029848631 
number of iterations: 2168 
   28400     74.35039     2168         1860          308 1.8927538e-12 2.9001885e-14          0.1 0.0090312491    108.37473  0.029847952 
number of iterations: 2160 
   28500    74.586999     2197         1885          312 1.9178366e-12 2.9179346e-14          0.1 0.0090316631    109.84373  0.029847262 
number of iterations: 2209 
   28600    74.841859     2228         1916          312 1.9432518e-12 2.935798e-14          0.1 0.0090321255    111.33222  0.029846492 
number of iterations: 2168 
   28700    75.070875     2260         1947          313 1.9690037e-12 2.9537794e-14          0.1 0.0090325565    112.84047  0.029845774 
number of iterations: 2184 
   28800    75.320664     2281         1965          316 1.995097e-12 2.9718796e-14          0.1 0.0090329904    114.36874  0.029845052 
number of iterations: 2174 
   28900     75.56387     2309         1991          318 2.021536e-12 2.9900992e-14          0.1 0.0090334276     115.9173  0.029844324 
number of iterations: 2163 
   29000    75.814249     2338         2019          319 2.0483253e-12 3.0084391e-14          0.1 0.0090338426     117.4864  0.029843633 
number of iterations: 2183 
   29100    76.085333     2370         2049          321 2.0754697e-12 3.0268999e-14          0.1 0.0090343016    119.07633  0.029842868 
number of iterations: 2197 
   29200    76.349528     2404         2081          323 2.1029738e-12 3.0454824e-14          0.1 0.0090347607    120.68737  0.029842104 
number of iterations: 2174 
   29300    76.639196     2435         2109          326 2.1308424e-12 3.0641873e-14          0.1 0.0090352042    122.31978  0.029841365 
number of iterations: 2193 
   29400    76.897877     2466         2134          332 2.1590803e-12 3.0830153e-14          0.1 0.0090356844    123.97387  0.029840565 
number of iterations: 2176 
   29500    77.129686     2491         2157          334 2.1876924e-12 3.1019673e-14          0.1 0.0090361651     125.6499  0.029839765 
number of iterations: 2195 
   29600    77.368591     2520         2184          336 2.2166836e-12 3.121044e-14          0.1  0.009036623    127.34818  0.029839002 
number of iterations: 2187 
   29700    77.717239     2547         2211          336 2.246059e-12 3.140246e-14          0.1 0.0090371016    129.06899  0.029838205 
number of iterations: 2205 
   29800    77.960206     2575         2238          337 2.2749672e-12 3.1595743e-14          0.1 0.0090375948    130.81199  0.029837384 
number of iterations: 2183 
   29900    78.222281     2609         2268          341 2.3028217e-12 3.1790296e-14          0.1 0.0090380008    132.57637  0.029836708 
number of iterations: 2184 
   30000    78.458171     2641         2298          343 2.3333386e-12 3.1986126e-14          0.1 0.0090384889    134.36416  0.029835895 
number of iterations: 2209 
   30100    78.694213     2671         2327          344 2.3642599e-12 3.2183242e-14          0.1 0.0090389892    136.17569  0.029835062 
number of iterations: 2202 
   30200    78.938957     2705         2357          348 2.3945425e-12 3.2381651e-14          0.1 0.0090395072    138.01045  0.029834199 
number of iterations: 2193 
   30300    79.184175     2739         2389          350 2.4262749e-12 3.2581361e-14          0.1 0.0090399915    139.86956  0.029833393 
number of iterations: 2203 
   30400    79.413783     2770         2415          355 2.4572781e-12 3.278238e-14          0.1  0.009040489    141.75247  0.029832564 
number of iterations: 2241 
   30500    79.646787     2800         2444          356 2.4898419e-12 3.2984717e-14          0.1 0.0090410602    143.66036  0.029831613 
number of iterations: 2228 
   30600    79.882679     2840         2483          357 2.5228371e-12 3.3188379e-14          0.1 0.0090416224    145.59357  0.029830677 
number of iterations: 2227 
   30700    80.144412     2876         2518          358 2.5562697e-12 3.3393374e-14          0.1 0.0090421564    147.55244  0.029829787 
number of iterations: 2222 
   30800    80.383335     2919         2558          361 2.5901452e-12 3.3599711e-14          0.1 0.0090426803    149.53729  0.029828915 
number of iterations: 2231 
   30900    80.627524     2954         2592          362 2.6244697e-12 3.3807399e-14          0.1 0.0090432536     151.5485   0.02982796 
number of iterations: 2244 
   31000    80.856652     2988         2624          364 2.659249e-12 3.4016444e-14          0.1 0.0090438448    153.58639  0.029826976 
number of iterations: 2225 
   31100    81.115721     3027         2655          372 2.6944892e-12 3.4226857e-14          0.1 0.0090443974    155.65133  0.029826055 
number of iterations: 2244 
   31200     81.37365     3064         2689          375 2.7301964e-12 3.4438645e-14          0.1  0.009045001    157.74366   0.02982505 
number of iterations: 2198 
   31300    81.662767     3109         2731          378 2.7663768e-12 3.4651816e-14          0.1 0.0090455205    159.86377  0.029824185 
number of iterations: 2278 
   31400    81.921685     3149         2769          380 2.8030366e-12 3.486638e-14          0.1 0.0090461861      162.012  0.029823077 
number of iterations: 2256 
   31500    82.181522     3173         2793          380 2.8401822e-12 3.5082344e-14          0.1 0.0090467787    164.18875   0.02982209 
number of iterations: 2211 
   31600    82.422069     3211         2830          381 2.8765556e-12 3.5299718e-14          0.1 0.0090473475    166.39342  0.029821143 
number of iterations: 2256 
   31700     82.71737     3251         2868          383 2.9146754e-12 3.551851e-14          0.1 0.0090479682    168.62734  0.029820109 
number of iterations: 2238 
   31800    82.967055     3290         2902          388 2.9533005e-12 3.573873e-14          0.1  0.009048585     170.8909  0.029819082 
number of iterations: 2233 
   31900    83.257647     3329         2940          389 2.9910973e-12 3.5960386e-14          0.1  0.009049208    173.18347  0.029818044 
number of iterations: 2250 
   32000    83.509791     3374         2984          390 3.0271533e-12 3.6183486e-14          0.1 0.0090498111    175.50372   0.02981704 
number of iterations: 2256 
   32100    83.767653     3409         3019          390 3.0672689e-12 3.640804e-14          0.1 0.0090504613    177.85476  0.029815957 
number of iterations: 2233 
   32200    84.032581     3443         3053          390 3.1068829e-12 3.6634057e-14          0.1 0.0090510804     180.2362  0.029814926 
number of iterations: 2292 
   32300    84.298103     3489         3096          393 3.148055e-12 3.6861546e-14          0.1 0.0090518119    182.64925  0.029813708 
number of iterations: 2248 
   32400    84.547195     3539         3142          397 3.1897727e-12 3.7090516e-14          0.1 0.0090524428    185.09431  0.029812657 
number of iterations: 2271 
   32500    84.811162     3577         3178          399 3.2311774e-12 3.7320975e-14          0.1 0.0090531139    187.57116   0.02981154 
number of iterations: 2283 
   32600    85.061632     3636         3235          401 3.2739966e-12 3.7552933e-14          0.1 0.0090538112    190.08087  0.029810379 
number of iterations: 2275 
   32700    85.303799     3679         3274          405 3.3154019e-12 3.7786401e-14          0.1 0.0090544949    192.62237   0.02980924 
number of iterations: 2288 
   32800    85.564964     3725         3316          409 3.3593372e-12 3.8021386e-14          0.1 0.0090552094    195.19759   0.02980805 
number of iterations: 2288 
   32900    85.845019     3761         3351          410 3.4013182e-12  3.82579e-14          0.1 0.0090559224    197.80504  0.029806863 
number of iterations: 2280 
   33000     86.17446     3824         3408          416 3.4428177e-12 3.849595e-14          0.1 0.0090566305    200.44434  0.029805684 
number of iterations: 2263 
   33100    86.464984     3864         3448          416 3.4871484e-12 3.8735546e-14          0.1 0.0090573222    203.11768  0.029804532 
number of iterations: 2301 
   33200    86.735948     3911         3494          417 3.5333597e-12 3.8976697e-14          0.1 0.0090580094    205.82649  0.029803387 
number of iterations: 2290 
   33300    87.003454     3945         3526          419 3.5801833e-12 3.9219416e-14          0.1 0.0090587801    208.57125  0.029802104 
number of iterations: 2310 
   33400    87.292406     3991         3566          425 3.6276274e-12 3.9463709e-14          0.1 0.0090595423    211.35243  0.029800835 
number of iterations: 2292 
   33500    87.570963     4042         3615          427 3.6757002e-12 3.9709588e-14          0.1 0.0090602841    214.17051  0.029799599 
number of iterations: 2304 
   33600    87.904692     4103         3674          429 3.7230225e-12 3.9957061e-14          0.1 0.0090610348    217.02492  0.029798349 
number of iterations: 2301 
   33700    88.170041     4160         3731          429 3.7714967e-12 4.0206139e-14          0.1 0.0090617834    219.91654  0.029797103 
number of iterations: 2313 
   33800    88.476056     4207         3778          429 3.8205122e-12 4.0456833e-14          0.1 0.0090626258    222.84578    0.0297957 
number of iterations: 2313 
   33900    88.732695     4257         3828          429 3.8697928e-12 4.0709151e-14          0.1 0.0090634373    225.81286  0.029794349 
number of iterations: 2315 
   34000    89.009768     4314         3882          432 3.9203381e-12 4.0963106e-14          0.1 0.0090642622    228.81874  0.029792975 
number of iterations: 2310 
   34100    89.278045     4376         3942          434 3.9722898e-12 4.1218707e-14          0.1 0.0090650801    231.86449  0.029791613 
number of iterations: 2301 
   34200     89.53659     4421         3983          438 4.0238724e-12 4.1475963e-14          0.1 0.0090658998    234.94984  0.029790248 
number of iterations: 2307 
   34300    89.801694     4471         4032          439 4.0762549e-12 4.1734886e-14          0.1 0.0090667444     238.0754  0.029788841 
number of iterations: 2320 
   34400    90.055322     4519         4077          442 4.129341e-12 4.1995486e-14          0.1 0.0090675762    241.24171  0.029787456 
number of iterations: 2336 
   34500     90.37787     4556         4110          446 4.1816567e-12 4.2257773e-14          0.1  0.009068465    244.44819  0.029785976 
number of iterations: 2330 
   34600    90.667508     4617         4164          453 4.2370713e-12 4.2521758e-14          0.1 0.0090693918    247.69721  0.029784433 
number of iterations: 2347 
   34700    90.926579     4673         4217          456 4.2920748e-12 4.2787451e-14          0.1 0.0090702682    250.98845  0.029782973 
number of iterations: 2334 
   34800    91.209673     4743         4283          460 4.3489525e-12 4.3054864e-14          0.1 0.0090711782    254.32337  0.029781458 
number of iterations: 2357 
   34900    91.479028     4795         4333          462 4.4057384e-12 4.3324007e-14          0.1   0.00907219    257.70189  0.029779773 
number of iterations: 2359 
   35000    91.740855     4855         4392          463 4.4641223e-12 4.3594892e-14          0.1  0.009073185    261.12524  0.029778116 
Loop time of 91.7409 on 32 procs for 35000 steps with 4855 atoms

Performance: 329624111.108 tau/day, 381.509 timesteps/s
92.3% CPU use with 32 MPI tasks x no OpenMP threads

MPI task timing breakdown:
Section |  min time  |  avg time  |  max time  |%varavg| %total
---------------------------------------------------------------
Pair    | 0.0090439  | 0.07138    | 0.21509    |  19.3 |  0.08
Neigh   | 0.0041422  | 0.021474   | 0.060023   |   9.6 |  0.02
Comm    | 0.053411   | 0.16085    | 0.27229    |  14.1 |  0.18
Output  | 21.331     | 21.331     | 21.338     |   0.0 | 23.25
Modify  | 69.639     | 69.686     | 69.766     |   0.4 | 75.96
Other   |            | 0.4696     |            |       |  0.51

Nlocal:    151.719 ave 373 max 16 min
Histogram: 6 5 5 1 3 3 3 5 0 1
Nghost:    86.3125 ave 194 max 11 min
Histogram: 6 2 4 6 4 2 3 0 2 3
Neighs:    549.094 ave 1527 max 38 min
Histogram: 7 8 2 2 2 4 4 2 0 1

Total # of neighbors = 17571
Ave neighs/atom = 3.61916
Neighbor list builds = 669
Dangerous builds = 0
Total wall time: 0:01:31
