LAMMPS (20 Nov 2019)
Reading data file ...
  orthogonal box = (0 0 0) to (0.0001 0.0001 1e-05)
  8 by 4 by 1 MPI processor grid
  reading atoms ...
  100 atoms
  4 nutrients
Lattice spacing in x,y,z = 100 100 100
50 atoms in group CYANO
50 atoms in group ECW
Model is defined as a closed system. 
Neighbor list info ...
  update every 1 steps, delay 0 steps, check yes
  max neighbors/atom: 5000, page size: 100000
  master list distance cutoff = 2.43e-06
  ghost atom cutoff = 2.43e-06
  binsize = 1.215e-06, bins = 83 83 9
  1 neighbor lists, perpetual/occasional/extra = 1 0 0
  (1) pair gran/hooke/history, perpetual
      attributes: half, newton off, size, history
      pair build: half/size/bin/newtoff
      stencil: half/bin/3d/newtoff
      bin: standard
Setting up Verlet run ...
  Unit style    : lj
  Current step  : 0
  Time step     : 10
Per MPI rank memory allocation (min/avg/max) = 6.794 | 10.82 | 12.11 Mbytes
Step CPU Atoms c_myNtypes[1] c_myNtypes[2] c_myMass[1] c_myMass[2] c_myCon[1] c_myCon[2] c_myCon[3] c_myCon[4] 
       0            0      100           50           50 4.859778e-14 8.6888256e-15          0.1        0.009     3.42e-20       0.0299 
number of iterations: 323853 
     100    15.553698      130           50           80 4.9241809e-14   8.6819e-15          0.1 0.0090008231  0.039044667  0.029898629 
number of iterations: 3690 
     200    15.898077      143           50           93 4.9894372e-14 8.6754302e-15          0.1  0.009000834   0.07736969  0.029898611 
number of iterations: 2604 
     300    16.169926      143           50           93 5.0555583e-14 8.6694409e-15          0.1  0.009000845   0.11618791  0.029898592 
number of iterations: 2079 
     400    16.399631      143           50           93 5.1225556e-14 8.663929e-15          0.1 0.0090008562   0.15550815  0.029898574 
number of iterations: 1847 
     500     16.63391      145           52           93 5.1904408e-14 8.6588907e-15          0.1 0.0090008715   0.19533821  0.029898548 
number of iterations: 1601 
     600    16.837501      147           54           93 5.2592257e-14 8.6543216e-15          0.1 0.0090008824   0.23568515   0.02989853 
number of iterations: 1618 
     700    17.089692      148           55           93 5.3289221e-14 8.6502175e-15          0.1 0.0090008984   0.27655619  0.029898504 
number of iterations: 1420 
     800    17.299024      148           55           93 5.3995421e-14 8.646574e-15          0.1 0.0090009102   0.31795861  0.029898484 
number of iterations: 1423 
     900    17.519984      148           55           93 5.471098e-14 8.6433869e-15          0.1 0.0090009223   0.35989998  0.029898464 
number of iterations: 1420 
    1000    17.765698      150           57           93 5.5436021e-14 8.6406519e-15          0.1 0.0090009285    0.4023877  0.029898453 
number of iterations: 1429 
    1100    17.959287      150           57           93 5.6170671e-14 8.6383646e-15          0.1 0.0090009408   0.44542929  0.029898433 
number of iterations: 1517 
    1200    18.174485      151           58           93 5.6915057e-14 8.636521e-15          0.1 0.0090009572   0.48903231  0.029898405 
number of iterations: 1475 
    1300    18.353254      151           58           93 5.7669308e-14 8.6351171e-15          0.1 0.0090009698   0.53320444  0.029898384 
number of iterations: 1438 
    1400    18.537249      151           58           93 5.8433554e-14 8.6341488e-15          0.1 0.0090009827   0.57795346  0.029898363 
number of iterations: 1441 
    1500    18.717047      151           58           93 5.9207928e-14 8.6336123e-15          0.1 0.0090009957   0.62328722  0.029898341 
number of iterations: 1423 
    1600    18.918698      152           59           93 5.9992564e-14 8.6335038e-15          0.1 0.0090010029   0.66921371  0.029898329 
number of iterations: 1552 
    1700    19.128829      157           64           93 6.0787598e-14 8.6338197e-15          0.1 0.0090010052   0.71574099  0.029898325 
number of iterations: 1444 
    1800    19.312768      157           64           93 6.1593168e-14 8.6345561e-15          0.1 0.0090010185   0.76287725  0.029898303 
number of iterations: 1447 
    1900    19.501458      157           64           93 6.2409414e-14 8.6357096e-15          0.1  0.009001032   0.81063074  0.029898281 
number of iterations: 1430 
    2000    19.708748      158           65           93 6.3236477e-14 8.6372765e-15          0.1 0.0090010401   0.85900971  0.029898267 
number of iterations: 1498 
    2100     19.91171      159           66           93  6.40745e-14 8.6392535e-15          0.1 0.0090010539    0.9080228  0.029898244 
number of iterations: 1719 
    2200    20.119188      161           68           93 6.4923629e-14 8.6416372e-15          0.1 0.0090010721   0.95767857  0.029898214 
number of iterations: 1457 
    2300    20.319659      161           68           93 6.5784011e-14 8.6444243e-15          0.1 0.0090010863    1.0079858   0.02989819 
number of iterations: 1460 
    2400    20.520563      161           68           93 6.6655795e-14 8.6476117e-15          0.1 0.0090011007    1.0589533  0.029898166 
number of iterations: 1599 
    2500    20.719713      164           71           93 6.7539132e-14 8.6511964e-15          0.1 0.0090011089    1.1105899  0.029898152 
number of iterations: 1404 
    2600    20.906774      165           72           93 6.8434175e-14 8.6551752e-15          0.1 0.0090011176    1.1629049  0.029898138 
number of iterations: 1487 
    2700    21.201948      166           73           93 6.9341079e-14 8.6595445e-15          0.1 0.0090011324    1.2159073  0.029898113 
number of iterations: 1467 
    2800    21.385999      166           73           93 7.0260002e-14 8.6643018e-15          0.1 0.0090011474    1.2696064  0.029898088 
number of iterations: 1495 
    2900    21.574261      168           75           93 7.1191102e-14 8.6694445e-15          0.1 0.0090011626    1.3240116  0.029898063 
number of iterations: 1473 
    3000    21.755042      168           75           93 7.2134542e-14 8.6749696e-15          0.1  0.009001178    1.3791326  0.029898037 
number of iterations: 1476 
    3100    21.947459      168           75           93 7.3090484e-14 8.6808742e-15          0.1 0.0090011936    1.4349789  0.029898011 
number of iterations: 1496 
    3200    22.137763      168           75           93 7.4059095e-14 8.6871553e-15          0.1 0.0090012094    1.4915602  0.029897985 
number of iterations: 1482 
    3300    22.315192      169           76           93 7.5040542e-14 8.6938106e-15          0.1 0.0090012255    1.5488865  0.029897958 
number of iterations: 1484 
    3400    22.503218      169           76           93 7.6034995e-14 8.7008376e-15          0.1 0.0090012417     1.606968  0.029897931 
number of iterations: 1487 
    3500    22.722209      171           77           94 7.7042626e-14 8.7082334e-15          0.1 0.0090012552    1.6658147  0.029897909 
number of iterations: 1490 
    3600    22.918473      172           77           95 7.8063612e-14 8.715996e-15          0.1 0.0090012718    1.7254369  0.029897881 
number of iterations: 1471 
    3700    23.128727      172           77           95 7.9098127e-14 8.7241227e-15          0.1 0.0090012841    1.7858453   0.02989786 
number of iterations: 1553 
    3800    23.327135      173           78           95 8.0146352e-14 8.7326113e-15          0.1  0.009001304    1.8470502  0.029897827 
number of iterations: 1641 
    3900    23.562202      175           80           95 8.1208468e-14 8.7414592e-15          0.1 0.0090013211    1.9090624  0.029897799 
number of iterations: 1500 
    4000    23.768483      175           80           95 8.228466e-14 8.7506642e-15          0.1 0.0090013386    1.9718928   0.02989777 
number of iterations: 1503 
    4100    23.936655      176           81           95 8.3375114e-14 8.7602242e-15          0.1 0.0090013563    2.0355524   0.02989774 
number of iterations: 1613 
    4200    24.137575      178           83           95 8.4480018e-14 8.770137e-15          0.1 0.0090013746    2.1000523   0.02989771 
number of iterations: 1507 
    4300    24.341774      178           83           95 8.5599565e-14 8.7804004e-15          0.1 0.0090013928    2.1654038  0.029897679 
number of iterations: 1513 
    4400    24.531636      179           84           95 8.6733948e-14 8.7910119e-15          0.1 0.0090014113    2.2316184  0.029897649 
number of iterations: 1593 
    4500    24.736859      180           85           95 8.7883365e-14  8.80197e-15          0.1 0.0090014314    2.2987076  0.029897615 
number of iterations: 1516 
    4600    25.020575      180           85           95 8.9048013e-14 8.8132726e-15          0.1 0.0090014504    2.3666832  0.029897583 
number of iterations: 1519 
    4700    25.191333      180           85           95 9.0228096e-14 8.8249177e-15          0.1 0.0090014696     2.435557  0.029897551 
number of iterations: 1616 
    4800    25.378049      180           85           95 9.1423818e-14 8.8369032e-15          0.1  0.009001493    2.5053412  0.029897512 
number of iterations: 1589 
    4900    25.563853      183           88           95 9.2635385e-14 8.8492271e-15          0.1 0.0090015167    2.5760477  0.029897473 
number of iterations: 1530 
    5000    25.799295      183           88           95 9.3863009e-14 8.861888e-15          0.1 0.0090015368    2.6476891  0.029897439 
number of iterations: 1531 
    5100    25.992127      185           90           95 9.5106901e-14 8.8748839e-15          0.1 0.0090015542     2.720278   0.02989741 
number of iterations: 1517 
    5200    26.180925      186           91           95 9.6367277e-14 8.8882133e-15          0.1 0.0090015734     2.793827  0.029897378 
number of iterations: 1619 
    5300    26.357779      189           93           96 9.7644356e-14 8.9018744e-15          0.1  0.009001597    2.8683488  0.029897339 
number of iterations: 1591 
    5400    26.555387      193           96           97 9.8938359e-14 8.9158651e-15          0.1 0.0090016221    2.9438567  0.029897297 
number of iterations: 1545 
    5500    26.749488      193           96           97 1.0024951e-13 8.9301842e-15          0.1 0.0090016436    3.0203638  0.029897261 
number of iterations: 1547 
    5600    26.919427      193           96           97 1.0157804e-13 8.9448301e-15          0.1 0.0090016654    3.0978836  0.029897225 
number of iterations: 1550 
    5700    27.134147      193           96           97 1.0292417e-13 8.9598013e-15          0.1 0.0090016875    3.1764295  0.029897188 
number of iterations: 1488 
    5800    27.324874      195           98           97 1.0428814e-13 8.9750959e-15          0.1 0.0090017056    3.2560151  0.029897158 
number of iterations: 1559 
    5900    27.507028      196           99           97 1.0567019e-13 8.990713e-15          0.1 0.0090017282    3.3366546   0.02989712 
number of iterations: 1565 
    6000    27.703692      197          100           97 1.0707055e-13 9.0066507e-15          0.1 0.0090017511     3.418362  0.029897082 
number of iterations: 1599 
    6100    27.939197      199          102           97 1.0848948e-13 9.0229078e-15          0.1 0.0090017756    3.5011518  0.029897041 
number of iterations: 1563 
    6200    28.152197      199          102           97 1.099272e-13 9.039483e-15          0.1 0.0090017991    3.5850383  0.029897002 
number of iterations: 1600 
    6300    28.351834      201          104           97 1.1138398e-13 9.0563748e-15          0.1 0.0090018243     3.670036   0.02989696 
number of iterations: 1623 
    6400     28.53272      204          107           97 1.1286006e-13 9.0735823e-15          0.1 0.0090018504    3.7561598  0.029896917 
number of iterations: 1543 
    6500    28.718763      209          112           97 1.1435571e-13 9.0911038e-15          0.1 0.0090018614     3.843425  0.029896899 
number of iterations: 1551 
    6600    28.916528      210          113           97 1.1587117e-13 9.1089383e-15          0.1 0.0090018837    3.9318467  0.029896861 
number of iterations: 1578 
    6700    29.115704      211          114           97 1.1740672e-13 9.1270844e-15          0.1 0.0090019126    4.0214403  0.029896813 
number of iterations: 1674 
    6800    29.330143      214          116           98 1.1896262e-13 9.145541e-15          0.1 0.0090019412    4.1122214  0.029896766 
number of iterations: 1583 
    6900     29.52786      214          116           98 1.2053913e-13 9.1643068e-15          0.1  0.009001967     4.204206  0.029896723 
number of iterations: 1593 
    7000    29.737896      216          118           98 1.2213654e-13 9.1833807e-15          0.1  0.009001993    4.2974101  0.029896679 
number of iterations: 1593 
    7100    30.117664      217          119           98 1.2375512e-13 9.2027617e-15          0.1 0.0090020195    4.3918503  0.029896635 
number of iterations: 1574 
    7200    30.311445      220          121           99 1.2539515e-13 9.2224485e-15          0.1 0.0090020462    4.4875424  0.029896591 
number of iterations: 1615 
    7300    30.504723      225          125          100 1.2705691e-13 9.2424403e-15          0.1 0.0090020734    4.5845037  0.029896545 
number of iterations: 1531 
    7400    30.671963      230          130          100 1.2874069e-13 9.2627364e-15          0.1 0.0090020931    4.6827511  0.029896513 
number of iterations: 1655 
    7500    30.897156      236          136          100 1.3044679e-13 9.2833356e-15          0.1 0.0090021198    4.7823015  0.029896468 
number of iterations: 1756 
    7600    31.116548      238          138          100 1.321755e-13 9.304237e-15          0.1  0.009002153    4.8831723  0.029896413 
number of iterations: 1607 
    7700    31.311391      238          138          100 1.3392712e-13 9.3254395e-15          0.1 0.0090021816    4.9853812  0.029896365 
number of iterations: 1610 
    7800    31.483771      238          138          100 1.3570194e-13 9.3469422e-15          0.1 0.0090022105     5.088946  0.029896317 
number of iterations: 1599 
    7900      31.6581      239          139          100 1.3750029e-13 9.3687445e-15          0.1 0.0090022398    5.1938848  0.029896268 
number of iterations: 1588 
    8000    31.835949      242          142          100 1.3932248e-13 9.3908452e-15          0.1  0.009002265     5.300216  0.029896226 
number of iterations: 1601 
    8100    32.042074      243          143          100 1.4116881e-13 9.4132436e-15          0.1  0.009002292    5.4079581  0.029896181 
number of iterations: 1620 
    8200    32.240833      244          144          100 1.430396e-13 9.4359386e-15          0.1 0.0090023224    5.5171298  0.029896131 
number of iterations: 1593 
    8300    32.426706      250          150          100 1.4493519e-13 9.4589296e-15          0.1 0.0090023482    5.6277503  0.029896088 
number of iterations: 1625 
    8400    32.636938      252          152          100 1.468559e-13 9.4822161e-15          0.1 0.0090023793    5.7398387  0.029896036 
number of iterations: 1627 
    8500    32.833909      252          152          100 1.4880207e-13 9.5057973e-15          0.1 0.0090024109    5.8534148  0.029895983 
number of iterations: 1615 
    8600     33.03308      253          153          100 1.5077402e-13 9.5296727e-15          0.1 0.0090024428    5.9684983   0.02989593 
number of iterations: 1633 
    8700    33.236874      254          154          100 1.5277211e-13 9.5538413e-15          0.1 0.0090024752    6.0851097  0.029895876 
number of iterations: 1636 
    8800    33.442803      255          154          101 1.5479667e-13 9.5783025e-15          0.1  0.009002508    6.2032688  0.029895821 
number of iterations: 1640 
    8900    33.633265      258          155          103 1.5684807e-13 9.6030563e-15          0.1 0.0090025413    6.3229963  0.029895766 
number of iterations: 1674 
    9000    33.850379      261          158          103 1.5892665e-13 9.6281013e-15          0.1 0.0090025794    6.4443128  0.029895702 
number of iterations: 1637 
    9100     34.04462      262          159          103 1.6103278e-13 9.6534373e-15          0.1 0.0090026136      6.56724  0.029895646 
number of iterations: 1657 
    9200    34.248966      264          161          103 1.6316682e-13 9.6790639e-15          0.1 0.0090026532    6.6917992   0.02989558 
number of iterations: 1645 
    9300    34.438744      266          163          103 1.6532914e-13 9.7049802e-15          0.1 0.0090026883    6.8180122  0.029895521 
number of iterations: 1643 
    9400    34.632989      267          164          103 1.6752011e-13 9.7311855e-15          0.1  0.009002724    6.9459006  0.029895462 
number of iterations: 1659 
    9500    34.839608      269          166          103 1.6974012e-13 9.7576795e-15          0.1 0.0090027601    7.0754865  0.029895402 
number of iterations: 1658 
    9600    35.218228      270          167          103 1.7198955e-13 9.7844617e-15          0.1 0.0090027955    7.2067928  0.029895343 
number of iterations: 1661 
    9700    35.408707      273          170          103 1.7426879e-13 9.8115323e-15          0.1 0.0090028271    7.3398425   0.02989529 
number of iterations: 1665 
    9800    35.593346      274          171          103 1.7657823e-13  9.83889e-15          0.1 0.0090028645     7.474659  0.029895228 
number of iterations: 1627 
    9900    35.770126      276          172          104 1.7891828e-13 9.8665351e-15          0.1 0.0090028954    7.6112658  0.029895176 
number of iterations: 1668 
   10000    35.955431      280          175          105 1.8128934e-13 9.8944667e-15          0.1 0.0090029338    7.7496865  0.029895112 
number of iterations: 1653 
   10100    36.173849      282          177          105 1.8369182e-13 9.9226844e-15          0.1 0.0090029726    7.8899454  0.029895047 
number of iterations: 1729 
   10200    36.368977      284          178          106 1.8612614e-13 9.9511879e-15          0.1 0.0090030199    8.0320669  0.029894969 
number of iterations: 1792 
   10300    36.564926      285          179          106 1.8859272e-13 9.9799767e-15          0.1 0.0090030677     8.176076  0.029894889 
number of iterations: 1726 
   10400    36.770195      289          183          106 1.9109199e-13 1.0009051e-14          0.1 0.0090031159    8.3219977  0.029894809 
number of iterations: 1690 
   10500      36.9682      291          185          106 1.9362438e-13 1.0038409e-14          0.1 0.0090031572    8.4698576   0.02989474 
number of iterations: 1690 
   10600    37.159932      296          190          106 1.9619032e-13 1.0068052e-14          0.1 0.0090031963    8.6196806  0.029894675 
number of iterations: 1687 
   10700    37.367904      299          192          107 1.9879028e-13 1.009798e-14          0.1 0.0090032345     8.771494  0.029894611 
number of iterations: 1663 
   10800    37.580516      302          195          107 2.0142468e-13 1.0128191e-14          0.1 0.0090032786    8.9253238  0.029894538 
number of iterations: 1687 
   10900    37.759927      306          199          107  2.04094e-13 1.0158686e-14          0.1  0.009003322    9.0811971  0.029894466 
number of iterations: 1703 
   11000    37.964236      306          199          107 2.0679869e-13 1.0189465e-14          0.1 0.0090033661    9.2391407  0.029894392 
number of iterations: 1780 
   11100    38.195031      310          203          107 2.0953923e-13 1.0220527e-14          0.1 0.0090034155    9.3991822   0.02989431 
number of iterations: 1759 
   11200    38.388694      312          205          107 2.1231608e-13 1.0251872e-14          0.1 0.0090034664    9.5613495  0.029894225 
number of iterations: 1716 
   11300    38.590717      315          208          107 2.1512973e-13  1.02835e-14          0.1 0.0090035123    9.7256709  0.029894149 
number of iterations: 1665 
   11400    38.774579      319          212          107 2.1798067e-13 1.0315412e-14          0.1 0.0090035497    9.8921745  0.029894086 
number of iterations: 1714 
   11500    38.944948      321          214          107 2.208694e-13 1.0347606e-14          0.1 0.0090035952     10.06089  0.029894011 
number of iterations: 1705 
   11600    39.140897      328          221          107 2.237964e-13 1.0380082e-14          0.1 0.0090036428    10.231846  0.029893931 
number of iterations: 1711 
   11700    39.327706      331          223          108 2.2676219e-13 1.0412841e-14          0.1 0.0090036882    10.405073  0.029893856 
number of iterations: 1734 
   11800    39.533278      333          225          108 2.2976729e-13 1.0445882e-14          0.1 0.0090037396    10.580601   0.02989377 
number of iterations: 1738 
   11900    39.749861      339          230          109 2.3281221e-13 1.0479206e-14          0.1 0.0090037929    10.758461  0.029893681 
number of iterations: 1726 
   12000     40.04598      340          231          109 2.3589748e-13 1.0512812e-14          0.1 0.0090038432    10.938684  0.029893597 
number of iterations: 1692 
   12100    40.263777      346          237          109 2.3902363e-13 1.0546701e-14          0.1 0.0090038814    11.121302  0.029893534 
number of iterations: 1712 
   12200    40.450544      348          238          110 2.4219122e-13 1.0580872e-14          0.1 0.0090039328    11.306346  0.029893448 
number of iterations: 1784 
   12300    40.656686      351          241          110 2.4540078e-13 1.0615326e-14          0.1 0.0090039892    11.493848  0.029893354 
number of iterations: 1741 
   12400    40.893542      354          244          110 2.4865288e-13 1.0650062e-14          0.1 0.0090040409     11.68384  0.029893268 
number of iterations: 1750 
   12500     41.08203      360          249          111 2.5194807e-13 1.068508e-14          0.1 0.0090040943    11.876356  0.029893179 
number of iterations: 1731 
   12600    41.276954      368          255          113 2.5528694e-13 1.072038e-14          0.1 0.0090041453     12.07143  0.029893094 
number of iterations: 1761 
   12700    41.479085      371          258          113 2.5867005e-13 1.0755963e-14          0.1 0.0090042011    12.269095  0.029893001 
number of iterations: 1742 
   12800    41.652192      376          263          113 2.6209799e-13 1.0791828e-14          0.1  0.009004251    12.469385  0.029892918 
number of iterations: 1752 
   12900    41.857015      377          264          113 2.6557136e-13 1.0827975e-14          0.1 0.0090043074    12.672337  0.029892824 
number of iterations: 1816 
   13000    42.068984      382          266          116 2.6909076e-13 1.0864405e-14          0.1 0.0090043693    12.877984  0.029892721 
number of iterations: 1674 
   13100    42.280581      387          270          117 2.726568e-13 1.0901118e-14          0.1 0.0090044125    13.086364  0.029892649 
number of iterations: 1739 
   13200    42.469393      391          274          117 2.762701e-13 1.0938115e-14          0.1 0.0090044719    13.297512   0.02989255 
number of iterations: 1832 
   13300    42.670321      395          277          118 2.7993128e-13 1.0975394e-14          0.1 0.0090045255    13.511464  0.029892461 
number of iterations: 1818 
   13400    42.882449      399          280          119 2.8364098e-13 1.1012956e-14          0.1 0.0090045914    13.728259  0.029892351 
number of iterations: 1772 
   13500    43.088099      401          282          119 2.8739984e-13 1.1050802e-14          0.1 0.0090046493    13.947934  0.029892255 
number of iterations: 1797 
   13600    43.296764      406          287          119 2.9120852e-13 1.1088931e-14          0.1 0.0090047118    14.170527  0.029892151 
number of iterations: 1824 
   13700     43.49592      412          293          119 2.9506767e-13 1.1127345e-14          0.1 0.0090047807    14.396077  0.029892036 
number of iterations: 1696 
   13800    43.690238      418          299          119 2.9897796e-13 1.1166041e-14          0.1 0.0090048318    14.624624  0.029891951 
number of iterations: 1726 
   13900    43.888707      423          302          121 3.0294007e-13 1.1205022e-14          0.1  0.009004889    14.856206  0.029891856 
number of iterations: 1873 
   14000    44.087272      429          308          121 3.0695468e-13 1.1244288e-14          0.1 0.0090049575    15.090864  0.029891742 
number of iterations: 1830 
   14100    44.305326      433          312          121 3.110225e-13 1.1283838e-14          0.1 0.0090050279     15.32864  0.029891624 
number of iterations: 1788 
   14200    44.497257      438          317          121 3.1514423e-13 1.1323673e-14          0.1 0.0090050889    15.569574  0.029891523 
number of iterations: 1772 
   14300    44.682463      442          321          121 3.1932057e-13 1.1363793e-14          0.1 0.0090051522    15.813709  0.029891417 
number of iterations: 1840 
   14400    44.869856      447          325          122 3.2355227e-13 1.1404199e-14          0.1 0.0090052244    16.061087  0.029891297 
number of iterations: 1817 
   14500     45.21272      449          327          122 3.2784004e-13 1.144489e-14          0.1 0.0090052952    16.311751  0.029891179 
number of iterations: 1799 
   14600    45.438795      451          328          123 3.3218463e-13 1.1485868e-14          0.1 0.0090053654    16.565745  0.029891062 
number of iterations: 1805 
   14700    45.639962      455          331          124 3.365868e-13 1.1527131e-14          0.1 0.0090054337    16.823113  0.029890949 
number of iterations: 1791 
   14800     45.83831      459          335          124 3.4104731e-13 1.1568682e-14          0.1 0.0090054972    17.083899  0.029890843 
number of iterations: 1801 
   14900    46.053866      462          338          124 3.4556693e-13 1.161052e-14          0.1   0.00900557     17.34815  0.029890722 
number of iterations: 1808 
   15000    46.278214      465          341          124 3.5014644e-13 1.1652645e-14          0.1 0.0090056447    17.615912  0.029890597 
number of iterations: 1818 
   15100    46.523107      470          346          124 3.5478664e-13 1.1695057e-14          0.1 0.0090057134     17.88723  0.029890483 
number of iterations: 1829 
   15200    46.726565      475          350          125 3.5948834e-13 1.1737758e-14          0.1 0.0090057892    18.162152  0.029890357 
number of iterations: 1855 
   15300    46.920392      485          357          128 3.6425234e-13 1.1780748e-14          0.1 0.0090058745    18.440726  0.029890214 
number of iterations: 1828 
   15400     47.13175      492          362          130 3.6907947e-13 1.1824027e-14          0.1 0.0090059424    18.723001  0.029890101 
number of iterations: 1900 
   15500    47.316997      497          366          131 3.7397058e-13 1.1867595e-14          0.1 0.0090060309    19.009025  0.029889954 
number of iterations: 1815 
   15600    47.526917      497          366          131 3.789265e-13 1.1911453e-14          0.1 0.0090061061     19.29885  0.029889829 
number of iterations: 1870 
   15700    47.770789      502          371          131 3.8394809e-13 1.1955601e-14          0.1  0.009006193    19.592524  0.029889684 
number of iterations: 1828 
   15800    47.969906      503          372          131 3.8903624e-13 1.200004e-14          0.1 0.0090062716    19.890099  0.029889553 
number of iterations: 1890 
   15900    48.184273      511          380          131 3.9419181e-13 1.204477e-14          0.1 0.0090063546    20.191626  0.029889415 
number of iterations: 1835 
   16000    48.383249      516          385          131 3.9941571e-13 1.2089792e-14          0.1 0.0090064338    20.497159  0.029889283 
number of iterations: 1856 
   16100    48.617689      522          391          131 4.0470883e-13 1.2135106e-14          0.1 0.0090065148    20.806749  0.029889148 
number of iterations: 1849 
   16200    48.832731      527          396          131 4.100721e-13 1.2180713e-14          0.1 0.0090066044    21.120452  0.029888999 
number of iterations: 1854 
   16300    49.042238      534          402          132 4.1550644e-13 1.2226612e-14          0.1 0.0090066933    21.438321  0.029888851 
number of iterations: 1857 
   16400    49.272298      541          408          133 4.210128e-13 1.2272806e-14          0.1 0.0090067768    21.760412  0.029888712 
number of iterations: 1921 
   16500    49.479528      550          416          134 4.2659213e-13 1.2319294e-14          0.1 0.0090068726    22.086781  0.029888552 
number of iterations: 1887 
   16600    49.677021      560          426          134 4.322454e-13 1.2366076e-14          0.1 0.0090069722    22.417485  0.029888386 
number of iterations: 1863 
   16700     49.88408      566          431          135 4.3797359e-13 1.2413154e-14          0.1  0.009007065    22.752582  0.029888232 
number of iterations: 1884 
   16800    50.195502      575          438          137 4.4377769e-13 1.2460528e-14          0.1 0.0090071546    23.092128  0.029888083 
number of iterations: 1896 
   16900    50.386968      582          444          138 4.496587e-13 1.2508198e-14          0.1 0.0090072512    23.436184  0.029887922 
number of iterations: 1879 
   17000    50.604994      587          449          138 4.5561765e-13 1.2556165e-14          0.1 0.0090073492    23.784809  0.029887759 
number of iterations: 1887 
   17100    50.848561      594          455          139 4.6165557e-13 1.260443e-14          0.1 0.0090074466    24.138064  0.029887596 
number of iterations: 1876 
   17200    51.058905      604          464          140 4.677735e-13 1.2652993e-14          0.1 0.0090075371     24.49601  0.029887446 
number of iterations: 1859 
   17300     51.27077      609          468          141 4.7397251e-13 1.2701854e-14          0.1 0.0090076246     24.85871    0.0298873 
number of iterations: 1890 
   17400    51.486618      615          474          141 4.8025367e-13 1.2751015e-14          0.1 0.0090077264    25.226228   0.02988713 
number of iterations: 1920 
   17500     51.68587      622          481          141 4.8661807e-13 1.2800477e-14          0.1 0.0090078421    25.598627  0.029886938 
number of iterations: 1881 
   17600    51.902423      626          485          141 4.930668e-13 1.2850239e-14          0.1 0.0090079465    25.975972  0.029886764 
number of iterations: 1881 
   17700    52.105294      632          491          141  4.99601e-13 1.2900302e-14          0.1 0.0090080547    26.358327  0.029886584 
number of iterations: 1877 
   17800    52.301594      637          496          141 5.0622179e-13 1.2950668e-14          0.1 0.0090081594     26.74576  0.029886409 
number of iterations: 1915 
   17900    52.503723      646          504          142 5.1293032e-13 1.3001336e-14          0.1 0.0090082679    27.138339  0.029886229 
number of iterations: 1861 
   18000    52.755547      655          511          144 5.1972775e-13 1.3052308e-14          0.1  0.009008368     27.53613  0.029886062 
number of iterations: 1944 
   18100    52.967602      660          516          144 5.2661526e-13 1.3103583e-14          0.1  0.009008486    27.939204  0.029885865 
number of iterations: 1885 
   18200     53.18958      676          532          144 5.3359405e-13 1.3155164e-14          0.1 0.0090085924    28.347631  0.029885688 
number of iterations: 1873 
   18300    53.396567      684          540          144 5.4066532e-13 1.320705e-14          0.1 0.0090086995    28.761483   0.02988551 
number of iterations: 1979 
   18400    53.595423      691          546          145 5.478303e-13 1.3259243e-14          0.1 0.0090088426    29.180831  0.029885272 
number of iterations: 1952 
   18500     53.79576      699          553          146 5.5509022e-13 1.3311742e-14          0.1 0.0090089547    29.605746  0.029885085 
number of iterations: 1904 
   18600    54.005187      704          557          147 5.6244636e-13 1.336455e-14          0.1  0.009009063    30.036304  0.029884905 
number of iterations: 1930 
   18700    54.213784      710          563          147 5.6989999e-13 1.3417666e-14          0.1  0.009009184     30.47258  0.029884703 
number of iterations: 1899 
   18800    54.402377      718          571          147 5.7745238e-13 1.3471091e-14          0.1 0.0090092947    30.914648  0.029884519 
number of iterations: 1970 
   18900    54.603663      725          578          147 5.8510487e-13 1.3524827e-14          0.1 0.0090094149    31.362587  0.029884318 
number of iterations: 1951 
   19000    54.825693      734          586          148 5.9285876e-13 1.3578873e-14          0.1 0.0090095513    31.816472  0.029884091 
number of iterations: 1917 
   19100    55.130817      740          591          149 6.0071541e-13 1.3633231e-14          0.1 0.0090096766    32.276385  0.029883883 
number of iterations: 1937 
   19200    55.342944      750          601          149 6.0867618e-13 1.3687902e-14          0.1 0.0090098051    32.742403  0.029883669 
number of iterations: 1963 
   19300     55.53728      759          610          149 6.1674244e-13 1.3742885e-14          0.1 0.0090099379    33.214609  0.029883448 
number of iterations: 1956 
   19400    55.737906      771          622          149 6.249156e-13 1.3798183e-14          0.1 0.0090100727    33.693085  0.029883223 
number of iterations: 1902 
   19500    55.933907      775          626          149 6.3319707e-13 1.3853796e-14          0.1 0.0090101824    34.177914   0.02988304 
number of iterations: 1954 
   19600    56.141027      786          636          150 6.4158828e-13 1.3909725e-14          0.1 0.0090103173     34.66918  0.029882816 
number of iterations: 2011 
   19700    56.367025      794          644          150 6.500907e-13 1.3965971e-14          0.1 0.0090104435    35.166967  0.029882606 
number of iterations: 1965 
   19800    56.588793      802          652          150 6.5870579e-13 1.4022535e-14          0.1 0.0090106016    35.671364  0.029882342 
number of iterations: 1968 
   19900    56.821222      813          663          150 6.6743505e-13 1.4079416e-14          0.1 0.0090107419    36.182458  0.029882109 
number of iterations: 1997 
   20000    57.041431      819          668          151 6.7627999e-13 1.4136617e-14          0.1 0.0090109059    36.700336  0.029881836 
number of iterations: 1983 
   20100    57.244471      827          675          152 6.8524214e-13 1.4194139e-14          0.1 0.0090110551    37.225091  0.029881587 
number of iterations: 2008 
   20200    57.470915      834          681          153 6.9432306e-13 1.4251981e-14          0.1 0.0090112012    37.756813  0.029881344 
number of iterations: 1952 
   20300    57.730959      842          688          154 7.0352433e-13 1.4310145e-14          0.1 0.0090113496    38.295594  0.029881097 
number of iterations: 2023 
   20400    57.938414      849          695          154 7.1284752e-13 1.4368632e-14          0.1 0.0090115204    38.841528  0.029880812 
number of iterations: 1975 
   20500     58.15272      862          708          154 7.2229427e-13 1.4427444e-14          0.1 0.0090116804     39.39471  0.029880546 
number of iterations: 1969 
   20600    58.367439      866          712          154 7.3186621e-13 1.4486579e-14          0.1 0.0090118223    39.955235   0.02988031 
number of iterations: 1971 
   20700     58.60755      877          723          154 7.4156499e-13 1.4546041e-14          0.1 0.0090119792    40.523201  0.029880048 
number of iterations: 1930 
   20800    58.809568      891          736          155 7.513923e-13 1.460583e-14          0.1 0.0090120967    41.098708  0.029879853 
number of iterations: 2022 
   20900     59.04309      896          741          155 7.6134985e-13 1.4665946e-14          0.1   0.00901226    41.681855  0.029879581 
number of iterations: 1995 
   21000    59.253241      905          750          155 7.7143935e-13 1.4726391e-14          0.1 0.0090124193    42.272744  0.029879315 
number of iterations: 2068 
   21100    59.488594      917          761          156 7.8166256e-13 1.4787165e-14          0.1 0.0090125945    42.871477  0.029879024 
number of iterations: 2047 
   21200    59.710018      925          768          157 7.9202125e-13 1.4848271e-14          0.1 0.0090127624    43.478157  0.029878744 
number of iterations: 1979 
   21300    59.925393      942          784          158 8.0251722e-13 1.4909708e-14          0.1 0.0090129275    44.092891  0.029878469 
number of iterations: 2093 
   21400    60.248475      949          791          158 8.1315227e-13 1.4971478e-14          0.1 0.0090131153    44.715785  0.029878156 
number of iterations: 1999 
   21500    60.461187      964          806          158 8.2392826e-13 1.5033582e-14          0.1 0.0090132897    45.346947  0.029877866 
number of iterations: 2027 
   21600     60.67502      976          818          158 8.3484706e-13 1.509602e-14          0.1 0.0090134571    45.986488  0.029877587 
number of iterations: 2019 
   21700    60.972011      989          828          161 8.4591055e-13 1.5158794e-14          0.1 0.0090136454    46.634519  0.029877274 
number of iterations: 2032 
   21800    61.193206     1000          837          163 8.5712065e-13 1.5221905e-14          0.1  0.009013835    47.291151  0.029876958 
number of iterations: 2004 
   21900    61.417883     1011          848          163 8.6847932e-13 1.5285354e-14          0.1 0.0090140149      47.9565  0.029876658 
number of iterations: 2046 
   22000    61.632725     1025          862          163 8.799885e-13 1.5349143e-14          0.1  0.009014214    48.630681  0.029876327 
number of iterations: 2025 
   22100     61.85083     1039          875          164 8.9165021e-13 1.5413271e-14          0.1 0.0090144029    49.313809  0.029876012 
number of iterations: 2055 
   22200    62.081389     1050          885          165 9.0346646e-13 1.5477741e-14          0.1  0.009014603    50.006004  0.029875679 
number of iterations: 2052 
   22300    62.293448     1067          902          165 9.1543929e-13 1.5542553e-14          0.1 0.0090148062    50.707386  0.029875341 
number of iterations: 2032 
   22400    62.505871     1086          921          165 9.2757079e-13 1.5607708e-14          0.1 0.0090149892    51.418077  0.029875036 
number of iterations: 2018 
   22500    62.735919     1094          929          165 9.3986306e-13 1.5673208e-14          0.1 0.0090151815    52.138201  0.029874716 
number of iterations: 2065 
   22600     62.95762     1109          944          165 9.5231823e-13 1.5739053e-14          0.1 0.0090154126    52.867883  0.029874331 
number of iterations: 2029 
   22700    63.173942     1117          952          165 9.6348143e-13 1.5805246e-14          0.1 0.0090155758    53.606134  0.029874059 
number of iterations: 2103 
   22800    63.394616     1125          960          165 9.7624959e-13 1.5871786e-14          0.1 0.0090157851    54.354185  0.029873711 
number of iterations: 2057 
   22900    63.620003     1136          971          165 9.8918695e-13 1.5938675e-14          0.1 0.0090160013    55.112165   0.02987335 
number of iterations: 2059 
   23000    63.831274     1151          985          166 1.0022958e-12 1.6005915e-14          0.1 0.0090162235    55.880205   0.02987298 
number of iterations: 2029 
   23100    64.058721     1158          992          166 1.0155783e-12 1.6073506e-14          0.1 0.0090164288    56.658439  0.029872638 
number of iterations: 2025 
   23200    64.295842     1175         1008          167 1.0290368e-12 1.6141449e-14          0.1 0.0090166325    57.447002  0.029872299 
number of iterations: 2080 
   23300    64.524557     1191         1023          168 1.0426737e-12 1.6209747e-14          0.1 0.0090168601    58.246031   0.02987192 
number of iterations: 2065 
   23400    64.737959     1207         1037          170 1.0564913e-12  1.62784e-14          0.1 0.0090170949    59.055665  0.029871529 
number of iterations: 2093 
   23500    64.966382     1223         1053          170 1.0704921e-12 1.6347408e-14          0.1 0.0090173267    59.876043  0.029871143 
number of iterations: 2069 
   23600    65.299582     1245         1074          171 1.0846783e-12 1.6416775e-14          0.1  0.009017569    60.707307   0.02987074 
number of iterations: 2091 
   23700    65.555242     1258         1085          173 1.0990526e-12  1.64865e-14          0.1  0.009017818    61.549603  0.029870325 
number of iterations: 2054 
   23800    65.767286     1273         1098          175 1.1136173e-12 1.6556585e-14          0.1 0.0090180438    62.403077  0.029869949 
number of iterations: 2064 
   23900    65.998464     1284         1105          179 1.1283751e-12 1.6627031e-14          0.1 0.0090182763    63.267879  0.029869562 
number of iterations: 2046 
   24000    66.222769     1304         1124          180 1.1433284e-12 1.669784e-14          0.1 0.0090185068    64.144157  0.029869178 
number of iterations: 2128 
   24100    66.451116     1317         1137          180 1.1584799e-12 1.6769013e-14          0.1 0.0090187676    65.032063  0.029868744 
number of iterations: 2124 
   24200    66.672965     1338         1157          181 1.1738322e-12 1.684055e-14          0.1 0.0090190172     65.93175  0.029868328 
number of iterations: 2140 
   24300    66.900485     1353         1172          181 1.1893879e-12 1.6912454e-14          0.1 0.0090192859    66.843378  0.029867881 
number of iterations: 2092 
   24400    67.114549     1377         1193          184 1.2051498e-12 1.6984725e-14          0.1 0.0090195516    67.767104  0.029867438 
number of iterations: 2108 
   24500    67.348884     1403         1218          185 1.2211205e-12 1.7057366e-14          0.1 0.0090197916    68.703091  0.029867039 
number of iterations: 2089 
   24600    67.626532     1417         1232          185 1.2373029e-12 1.7130376e-14          0.1   0.00902005    69.651497  0.029866608 
number of iterations: 2085 
   24700    67.861829     1429         1244          185 1.2536997e-12 1.7203759e-14          0.1 0.0090203165    70.612489  0.029866165 
number of iterations: 2089 
   24800    68.083389     1438         1253          185 1.2703139e-12 1.7277514e-14          0.1 0.0090205768    71.586231  0.029865731 
number of iterations: 2137 
   24900     68.30394     1451         1266          185 1.2871482e-12 1.7351644e-14          0.1 0.0090208563    72.572892  0.029865266 
number of iterations: 2133 
   25000    68.545143     1471         1281          190 1.3042055e-12 1.7426149e-14          0.1 0.0090211447    73.572647  0.029864786 
number of iterations: 2120 
   25100    68.755371     1490         1299          191 1.321489e-12 1.7501031e-14          0.1 0.0090214182    74.585668   0.02986433 
number of iterations: 2152 
   25200    69.011571     1506         1314          192 1.3390014e-12 1.7576292e-14          0.1 0.0090217232     75.61213  0.029863822 
number of iterations: 2150 
   25300    69.240263     1526         1333          193 1.356746e-12 1.7651933e-14          0.1 0.0090220044    76.652212  0.029863354 
number of iterations: 2096 
   25400     69.48574     1545         1352          193 1.3747256e-12 1.7727955e-14          0.1 0.0090222804    77.706094  0.029862894 
number of iterations: 2138 
   25500    69.735303     1561         1368          193 1.3929436e-12 1.780436e-14          0.1 0.0090225648    78.773959  0.029862421 
number of iterations: 2134 
   25600    69.989678     1583         1387          196 1.411403e-12 1.7881149e-14          0.1 0.0090228648     79.85599  0.029861921 
number of iterations: 2124 
   25700    70.330779     1602         1403          199 1.430107e-12 1.7958323e-14          0.1 0.0090231797    80.952376  0.029861397 
number of iterations: 2151 
   25800    70.564991     1617         1418          199 1.4490588e-12 1.8035884e-14          0.1 0.0090235053    82.063308  0.029860855 
number of iterations: 2159 
   25900    70.852777     1643         1444          199 1.4682619e-12 1.8113833e-14          0.1 0.0090238126     83.18898  0.029860343 
number of iterations: 2121 
   26000    71.097714     1664         1464          200 1.4877193e-12 1.8192173e-14          0.1 0.0090241217    84.329589  0.029859828 
number of iterations: 2167 
   26100    71.329913     1682         1480          202 1.5074347e-12 1.8270904e-14          0.1 0.0090244662    85.485333  0.029859255 
number of iterations: 2150 
   26200     71.56494     1699         1495          204 1.5262229e-12 1.8350027e-14          0.1 0.0090247747      86.6555  0.029858741 
number of iterations: 2132 
   26300     71.80858     1719         1513          206 1.5464485e-12 1.8429545e-14          0.1  0.009025089    87.841192  0.029858217 
number of iterations: 2146 
   26400     72.06626     1736         1529          207 1.5656103e-12 1.8509459e-14          0.1 0.0090254196    89.041593  0.029857667 
number of iterations: 2149 
   26500    72.302595     1763         1556          207 1.5863579e-12 1.8589769e-14          0.1 0.0090257601    90.257922    0.0298571 
number of iterations: 2162 
   26600    72.549506     1794         1587          207 1.6073803e-12 1.8670479e-14          0.1 0.0090261154    91.490386  0.029856508 
number of iterations: 2120 
   26700    72.803237     1826         1617          209 1.6286814e-12 1.8751588e-14          0.1 0.0090264194    92.739203  0.029856002 
number of iterations: 2144 
   26800    73.049324     1843         1634          209 1.6502648e-12 1.8833099e-14          0.1 0.0090267407    94.004588  0.029855467 
number of iterations: 2167 
   26900    73.314032     1865         1656          209 1.6721341e-12 1.8915014e-14          0.1 0.0090270872     95.28676   0.02985489 
number of iterations: 2132 
   27000    73.541174     1888         1679          209 1.6930502e-12 1.8997333e-14          0.1 0.0090274476     96.58499   0.02985429 
number of iterations: 2182 
   27100    73.782375     1902         1693          209 1.7154866e-12 1.9080059e-14          0.1 0.0090278092    97.900444  0.029853688 
number of iterations: 2163 
   27200    74.009703     1918         1708          210 1.7382202e-12 1.9163193e-14          0.1 0.0090281809    99.233348  0.029853069 
number of iterations: 2166 
   27300    74.271308     1941         1730          211 1.7600089e-12 1.9246736e-14          0.1 0.0090285243    100.58298  0.029852497 
number of iterations: 2150 
   27400    74.507124     1967         1754          213 1.7815971e-12 1.9330691e-14          0.1 0.0090288899    101.94919  0.029851888 
number of iterations: 2179 
   27500    74.744473     1995         1782          213 1.8052068e-12 1.9415058e-14          0.1 0.0090292909    103.33352   0.02985122 
number of iterations: 2196 
   27600    75.008505     2019         1806          213 1.8291295e-12 1.9499839e-14          0.1 0.0090296324    104.73622  0.029850652 
number of iterations: 2190 
   27700    75.342055     2041         1828          213 1.8533692e-12 1.9585036e-14          0.1 0.0090300334    106.15753  0.029849984 
number of iterations: 2171 
   27800    75.557889     2068         1855          213 1.8765926e-12 1.9670651e-14          0.1 0.0090304521    107.59667  0.029849287 
number of iterations: 2197 
   27900    75.795747     2092         1877          215 1.9014612e-12 1.9756685e-14          0.1 0.0090308766     109.0549   0.02984858 
number of iterations: 2209 
   28000    76.037986     2111         1895          216 1.9239135e-12 1.984314e-14          0.1 0.0090312506    110.53037  0.029847957 
number of iterations: 2176 
   28100    76.267868     2129         1913          216 1.9494093e-12 1.9930017e-14          0.1 0.0090316343    112.02541  0.029847318 
number of iterations: 2219 
   28200    76.517587     2144         1928          216 1.9752429e-12 2.0017319e-14          0.1 0.0090320725    113.54029  0.029846589 
number of iterations: 2209 
   28300    76.766087     2163         1947          216 2.0014188e-12 2.0105046e-14          0.1 0.0090325252    115.07527  0.029845835 
number of iterations: 2180 
   28400    77.005481     2188         1972          216 2.0279416e-12 2.0193201e-14          0.1  0.009032915    116.63061  0.029845186 
number of iterations: 2195 
   28500    77.242822     2214         1998          216 2.0548159e-12 2.0281785e-14          0.1 0.0090333459    118.20657  0.029844468 
number of iterations: 2248 
   28600    77.529936     2238         2021          217 2.0820463e-12  2.03708e-14          0.1 0.0090338089    119.80345  0.029843697 
number of iterations: 2222 
   28700     77.81273     2272         2054          218 2.1096376e-12 2.0460248e-14          0.1 0.0090342402     121.4215  0.029842979 
number of iterations: 2223 
   28800    78.044282     2308         2090          218 2.1375945e-12 2.055013e-14          0.1 0.0090347115    123.06102  0.029842194 
number of iterations: 2262 
   28900    78.280614     2344         2126          218 2.1659219e-12 2.0640448e-14          0.1 0.0090351924    124.72229  0.029841393 
number of iterations: 2205 
   29000    78.586103     2367         2148          219 2.1946247e-12 2.0731205e-14          0.1 0.0090356549    126.40559  0.029840623 
number of iterations: 2192 
   29100    78.829652     2405         2185          220 2.2225124e-12 2.0822401e-14          0.1 0.0090361038    128.11031  0.029839876 
number of iterations: 2275 
   29200    79.066983     2444         2223          221 2.2519651e-12 2.0914039e-14          0.1 0.0090366069    129.83764  0.029839038 
number of iterations: 2223 
   29300    79.301122     2473         2251          222 2.2807367e-12 2.1006119e-14          0.1 0.0090370446    131.58707  0.029838309 
number of iterations: 2283 
   29400    79.545224     2495         2273          222 2.309781e-12 2.1098645e-14          0.1 0.0090375524    133.35879  0.029837464 
number of iterations: 2248 
   29500    79.789023     2534         2310          224 2.3403902e-12 2.1191618e-14          0.1 0.0090380725    135.15402  0.029836598 
number of iterations: 2257 
   29600    80.031477     2575         2348          227 2.371405e-12 2.1285039e-14          0.1 0.0090386037    136.97306  0.029835713 
number of iterations: 2273 
   29700    80.437437     2606         2379          227 2.4028308e-12 2.1378911e-14          0.1 0.0090391635    138.81622  0.029834781 
number of iterations: 2208 
   29800    80.697656     2641         2414          227 2.4337044e-12 2.1473236e-14          0.1 0.0090396504     140.6831   0.02983397 
number of iterations: 2245 
   29900    81.004701     2666         2438          228 2.4659557e-12 2.1568014e-14          0.1 0.0090401835    142.57474  0.029833082 
number of iterations: 2228 
   30000    81.249394     2698         2470          228 2.4986345e-12 2.1663248e-14          0.1 0.0090406732    144.49147  0.029832267 
number of iterations: 2240 
   30100    81.506745     2727         2498          229 2.5317463e-12 2.1758941e-14          0.1 0.0090412134    146.43362  0.029831367 
number of iterations: 2260 
   30200    81.742409     2761         2531          230 2.5639962e-12 2.1855093e-14          0.1 0.0090417369    148.40055  0.029830496 
number of iterations: 2221 
   30300    81.988881     2794         2564          230 2.596544e-12 2.1951706e-14          0.1 0.0090422364    150.39248  0.029829664 
number of iterations: 2282 
   30400    82.252771     2837         2605          232 2.6309533e-12 2.2048783e-14          0.1 0.0090428208    152.41082  0.029828691 
number of iterations: 2281 
   30500     82.49047     2871         2638          233 2.6658186e-12 2.2146325e-14          0.1 0.0090433776    154.45593  0.029827764 
number of iterations: 2257 
   30600    82.737389     2904         2669          235 2.6998854e-12 2.2244334e-14          0.1 0.0090439003    156.52721  0.029826893 
number of iterations: 2301 
   30700    83.019526     2941         2706          235 2.7356642e-12 2.2342813e-14          0.1 0.0090445349    158.62595  0.029825837 
number of iterations: 2263 
   30800    83.291786     2985         2748          237 2.7719171e-12 2.2441763e-14          0.1 0.0090451277    160.75254  0.029824849 
number of iterations: 2325 
   30900    83.558302     3019         2780          239 2.8067716e-12 2.2541186e-14          0.1 0.0090457181    162.90588  0.029823866 
number of iterations: 2247 
   31000    83.817921     3062         2822          240 2.8439668e-12 2.2641084e-14          0.1 0.0090462797    165.08779  0.029822931 
number of iterations: 2330 
   31100    84.064902     3106         2865          241 2.8816548e-12 2.2741459e-14          0.1 0.0090469424    167.29863  0.029821828 
number of iterations: 2262 
   31200    84.304981     3136         2894          242 2.9198423e-12 2.2842314e-14          0.1 0.0090475172     169.5388   0.02982087 
number of iterations: 2302 
   31300    84.555495     3168         2924          244 2.9585359e-12 2.294365e-14          0.1 0.0090481707    171.80867  0.029819782 
number of iterations: 2339 
   31400     84.79652     3198         2954          244 2.9977422e-12 2.3045468e-14          0.1 0.0090487859    174.10865  0.029818758 
number of iterations: 2302 
   31500    85.091786     3237         2991          246 3.0352263e-12 2.3147772e-14          0.1 0.0090494094    176.43741   0.02981772 
number of iterations: 2318 
   31600    85.405567     3278         3031          247 3.0743478e-12 2.3250563e-14          0.1 0.0090500671    178.79621  0.029816625 
number of iterations: 2301 
   31700    85.687438     3325         3078          247 3.1140673e-12 2.3353844e-14          0.1 0.0090507194    181.18552  0.029815538 
number of iterations: 2279 
   31800    85.940895     3364         3117          247 3.1530478e-12 2.3457615e-14          0.1 0.0090513623    183.60477  0.029814468 
number of iterations: 2325 
   31900    86.214811     3409         3157          252 3.1937676e-12 2.356188e-14          0.1 0.0090520584     186.0553  0.029813309 
number of iterations: 2307 
   32000    86.468177     3445         3190          255 3.235043e-12 2.3666639e-14          0.1 0.0090527254    188.53753  0.029812198 
number of iterations: 2322 
   32100    86.709542     3481         3225          256 3.2779135e-12 2.3771897e-14          0.1  0.009053431    191.05268  0.029811023 
number of iterations: 2321 
   32200    86.978651     3522         3265          257 3.3213521e-12 2.3877653e-14          0.1 0.0090541702    193.60118  0.029809792 
number of iterations: 2334 
   32300    87.224048     3562         3303          259 3.3641614e-12 2.3983912e-14          0.1 0.0090548952    196.18256  0.029808585 
number of iterations: 2328 
   32400    87.476956     3601         3341          260 3.4087429e-12 2.4090674e-14          0.1  0.009055652    198.79819  0.029807325 
number of iterations: 2322 
   32500    87.770549     3641         3380          261 3.4526627e-12 2.4197942e-14          0.1 0.0090563696    201.44753   0.02980613 
number of iterations: 2350 
   32600    88.050804     3686         3425          261 3.497125e-12 2.4305719e-14          0.1 0.0090571168    204.13102  0.029804886 
number of iterations: 2355 
   32700    88.319123     3732         3470          262 3.5421548e-12 2.4414005e-14          0.1 0.0090578673    206.84909  0.029803636 
number of iterations: 2334 
   32800    88.595027     3769         3506          263 3.5852532e-12 2.4522805e-14          0.1 0.0090586179    209.60027  0.029802386 
number of iterations: 2378 
   32900     88.86803     3817         3552          265 3.6327646e-12 2.4632118e-14          0.1 0.0090593895    212.38794  0.029801101 
number of iterations: 2314 
   33000    89.129538     3855         3589          266 3.6797983e-12 2.4741948e-14          0.1 0.0090600917    215.21173  0.029799932 
number of iterations: 2329 
   33100    89.400995     3900         3633          267 3.7272533e-12 2.4852298e-14          0.1 0.0090608281    218.07196  0.029798706 
number of iterations: 2338 
   33200    89.689214     3955         3687          268 3.7766463e-12 2.4963168e-14          0.1 0.0090615887    220.97011  0.029797439 
number of iterations: 2375 
   33300    89.950113     4017         3749          268 3.825803e-12 2.5074561e-14          0.1 0.0090624483    223.90601  0.029796008 
number of iterations: 2353 
   33400    90.272246     4071         3803          268 3.876502e-12 2.5186481e-14          0.1 0.0090631928    226.88086  0.029794768 
number of iterations: 2373 
   33500    90.540587     4125         3856          269 3.9278728e-12 2.5298928e-14          0.1 0.0090640331    229.89514  0.029793369 
number of iterations: 2399 
   33600    90.844503     4202         3929          273 3.9799244e-12 2.5411905e-14          0.1 0.0090649735    232.94941  0.029791803 
number of iterations: 2341 
   33700    91.172869     4253         3978          275 4.0313519e-12 2.5525415e-14          0.1 0.0090657243    236.04317  0.029790553 
number of iterations: 2400 
   33800    91.458733     4312         4036          276 4.0847748e-12 2.5639459e-14          0.1 0.0090666578    239.17795  0.029788999 
number of iterations: 2369 
   33900    91.718501     4373         4096          277 4.1378563e-12 2.5754041e-14          0.1 0.0090675436    242.35351  0.029787524 
number of iterations: 2393 
   34000    91.982845     4431         4153          278 4.1916988e-12 2.5869161e-14          0.1 0.0090684459    245.57043  0.029786021 
number of iterations: 2397 
   34100    92.264278     4486         4203          283 4.2460149e-12 2.5984824e-14          0.1 0.0090693799    248.82906  0.029784466 
number of iterations: 2371 
   34200    92.549936     4540         4253          287 4.3022824e-12 2.610103e-14          0.1 0.0090703113    252.13091  0.029782915 
number of iterations: 2405 
   34300    92.871935     4592         4305          287 4.3541984e-12 2.6217784e-14          0.1 0.0090712039    255.47266  0.029781428 
number of iterations: 2358 
   34400    93.143199     4648         4360          288 4.4078573e-12 2.6335086e-14          0.1 0.0090721043    258.85562  0.029779929 
number of iterations: 2375 
   34500     93.43644     4700         4412          288 4.463607e-12 2.6452939e-14          0.1 0.0090730004     262.2814  0.029778437 
number of iterations: 2372 
   34600    93.716998     4769         4481          288 4.5180539e-12 2.6571345e-14          0.1 0.0090739082    265.74902  0.029776925 
number of iterations: 2390 
   34700     93.98866     4832         4541          291 4.5766037e-12 2.6690307e-14          0.1 0.0090748246     269.2616  0.029775399 
number of iterations: 2385 
   34800    94.262988     4901         4610          291 4.6339477e-12 2.6809827e-14          0.1 0.0090757562    272.81824  0.029773848 
number of iterations: 2424 
   34900    94.567238     4970         4678          292 4.6943781e-12 2.6929907e-14          0.1   0.00907677     276.4213   0.02977216 
number of iterations: 2388 
   35000    94.866221     5013         4721          292 4.755748e-12 2.705055e-14          0.1  0.009077752     280.0715  0.029770525 
Loop time of 94.8663 on 32 procs for 35000 steps with 5013 atoms

Performance: 318764524.758 tau/day, 368.940 timesteps/s
92.2% CPU use with 32 MPI tasks x no OpenMP threads

MPI task timing breakdown:
Section |  min time  |  avg time  |  max time  |%varavg| %total
---------------------------------------------------------------
Pair    | 0.010549   | 0.075471   | 0.23665    |  18.3 |  0.08
Neigh   | 0.0043132  | 0.02203    | 0.05832    |   8.3 |  0.02
Comm    | 0.034896   | 0.1697     | 0.28639    |  14.4 |  0.18
Output  | 23.595     | 23.595     | 23.606     |   0.0 | 24.87
Modify  | 70.406     | 70.449     | 70.529     |   0.3 | 74.26
Other   |            | 0.5542     |            |       |  0.58

Nlocal:    156.656 ave 383 max 15 min
Histogram: 1 6 7 5 7 0 2 2 1 1
Nghost:    89.3125 ave 222 max 16 min
Histogram: 7 5 3 4 5 2 2 1 0 3
Neighs:    559.406 ave 1578 max 26 min
Histogram: 3 8 5 4 6 0 4 0 1 1

Total # of neighbors = 17901
Ave neighs/atom = 3.57092
Neighbor list builds = 675
Dangerous builds = 0
Total wall time: 0:01:35
