LAMMPS (20 Nov 2019)
Reading data file ...
  orthogonal box = (0 0 0) to (0.0001 0.0001 0.0001)
  2 by 4 by 4 MPI processor grid
  reading atoms ...
  100 atoms
  4 nutrients
Lattice spacing in x,y,z = 100 100 100
100 atoms in group CYANO
0 atoms in group ECW
Model is defined as a closed system. 
Neighbor list info ...
  update every 1 steps, delay 0 steps, check yes
  max neighbors/atom: 5000, page size: 100000
  master list distance cutoff = 2.44e-06
  ghost atom cutoff = 2.44e-06
  binsize = 1.22e-06, bins = 82 82 82
  1 neighbor lists, perpetual/occasional/extra = 1 0 0
  (1) pair gran/hooke/history, perpetual
      attributes: half, newton off, size, history
      pair build: half/size/bin/newtoff
      stencil: half/bin/3d/newtoff
      bin: standard
Setting up Verlet run ...
  Unit style    : lj
  Current step  : 0
  Time step     : 10
Per MPI rank memory allocation (min/avg/max) = 5.856 | 9.173 | 10.91 Mbytes
Step CPU Atoms c_myNtypes[1] c_myNtypes[2] c_myMass[1] c_myMass[2] c_myCon[1] c_myCon[2] c_myCon[3] c_myCon[4] 
       0            0      100          100            0 8.6228496e-14            0          0.1        0.009     3.42e-20       0.0299 
number of iterations: 123685 
     100    1.3500956      100          100            0 8.7893478e-14            0          0.1 0.0090003637 1.4091687e-06  0.029899395 
number of iterations: 109381 
     200    2.4833526      100          100            0 8.9590608e-14            0          0.1 0.0090003707 3.5805637e-06  0.029899383 
number of iterations: 97616 
     300     3.494639      101          101            0 9.1320508e-14            0          0.1 0.0090003778 6.9221083e-06  0.029899371 
number of iterations: 87036 
     400    4.4389769      104          104            0 9.3083811e-14            0          0.1 0.0090003851 1.2070593e-05  0.029899359 
number of iterations: 77044 
     500    5.2503033      105          105            0 9.4881162e-14            0          0.1 0.0090003926 2.0035141e-05  0.029899346 
number of iterations: 67291 
     600    5.9639027      109          109            0 9.6713217e-14            0          0.1 0.0090004002 3.2455335e-05  0.029899334 
number of iterations: 57471 
     700     6.593036      110          110            0 9.8580647e-14            0          0.1 0.0090004078 5.2117473e-05  0.029899321 
number of iterations: 47246 
     800    7.1197641      112          112            0 1.0048414e-13            0          0.1 0.0090004156 8.4192287e-05  0.029899308 
number of iterations: 37903 
     900    7.5555594      112          112            0 1.0242438e-13            0          0.1 0.0090004237 0.00013492366  0.029899295 
number of iterations: 29124 
    1000    7.9118907      113          113            0 1.0440208e-13            0          0.1 0.0090004319 0.00021395347  0.029899281 
number of iterations: 19678 
    1100    8.1763544      115          115            0 1.0641798e-13            0          0.1 0.0090004402 0.0003439442  0.029899267 
number of iterations: 13120 
    1200     8.376698      116          116            0 1.084728e-13            0          0.1 0.0090004487 0.00053430167  0.029899253 
number of iterations: 12929 
    1300    8.5661587      118          118            0 1.1056729e-13            0          0.1 0.0090004574 0.00077599136  0.029899239 
number of iterations: 12981 
    1400    8.7503288      121          121            0 1.1270223e-13            0          0.1 0.0090004662 0.0010804388  0.029899224 
number of iterations: 13032 
    1500    8.9313244      121          121            0 1.1487839e-13            0          0.1 0.0090004752 0.0014223454  0.029899209 
number of iterations: 13083 
    1600    9.1123834      124          124            0 1.1709657e-13            0          0.1 0.0090004844 0.0017977873  0.029899194 
number of iterations: 13135 
    1700    9.2899639      124          124            0 1.1935758e-13            0          0.1 0.0090004937  0.002205219  0.029899178 
number of iterations: 13186 
    1800    9.4669166      124          124            0 1.2166225e-13            0          0.1 0.0090005033 0.0026436369  0.029899162 
number of iterations: 13237 
    1900    9.6458202      126          126            0 1.2401142e-13            0          0.1  0.009000513  0.003112521  0.029899146 
number of iterations: 13289 
    2000    9.8250702      128          128            0 1.2640595e-13            0          0.1 0.0090005229 0.0036115797  0.029899129 
number of iterations: 13340 
    2100    10.001172      128          128            0 1.2884672e-13            0          0.1  0.009000533 0.0041386249  0.029899113 
number of iterations: 13391 
    2200    10.180715      128          128            0 1.3133461e-13            0          0.1 0.0090005433 0.0046903382  0.029899095 
number of iterations: 13443 
    2300    10.358063      130          130            0 1.3387055e-13            0          0.1 0.0090005538 0.0052666391  0.029899078 
number of iterations: 13635 
    2400      10.5364      136          136            0 1.3645545e-13            0          0.1 0.0090005653 0.0058681908  0.029899059 
number of iterations: 13548 
    2500    10.714916      139          139            0 1.3909026e-13            0          0.1 0.0090005762 0.0064945076  0.029899041 
number of iterations: 13599 
    2600    10.891903      141          141            0 1.4177594e-13            0          0.1 0.0090005873   0.00714563  0.029899022 
number of iterations: 13657 
    2700     11.06869      144          144            0 1.4451349e-13            0          0.1 0.0090005987 0.0078218394  0.029899003 
number of iterations: 13719 
    2800    11.272273      144          144            0 1.4730389e-13            0          0.1 0.0090006102 0.0085232241  0.029898984 
number of iterations: 13781 
    2900    11.454133      146          146            0 1.5014817e-13            0          0.1  0.009000622 0.0092501866  0.029898964 
number of iterations: 13843 
    3000    11.638146      148          148            0 1.5304737e-13            0          0.1  0.009000634   0.01000296  0.029898944 
number of iterations: 13853 
    3100    11.820468      151          151            0 1.5600256e-13            0          0.1 0.0090006462  0.010781814  0.029898924 
number of iterations: 13967 
    3200    11.999343      156          156            0 1.590148e-13            0          0.1 0.0090006587  0.011587204  0.029898903 
number of iterations: 14029 
    3300    12.180504      161          161            0 1.6208521e-13            0          0.1 0.0090006714  0.012419415  0.029898882 
number of iterations: 14091 
    3400     12.36126      163          163            0 1.652149e-13            0          0.1 0.0090006844  0.013278943  0.029898861 
number of iterations: 14153 
    3500    12.543988      169          169            0 1.6840503e-13            0          0.1 0.0090006976  0.014166119  0.029898839 
number of iterations: 14216 
    3600     12.72712      171          171            0 1.7165675e-13            0          0.1 0.0090007111  0.015081368  0.029898816 
number of iterations: 14278 
    3700    12.909166      173          173            0 1.7497126e-13            0          0.1 0.0090007248  0.016024317  0.029898793 
number of iterations: 14340 
    3800    13.093423      175          175            0 1.7834977e-13            0          0.1 0.0090007388  0.016992245   0.02989877 
number of iterations: 14402 
    3900    13.278424      177          177            0 1.8179352e-13            0          0.1  0.009000753  0.017985364  0.029898746 
number of iterations: 14464 
    4000    13.463136      179          179            0 1.8530376e-13            0          0.1 0.0090007676  0.019004199  0.029898722 
number of iterations: 14527 
    4100    13.650443      181          181            0 1.8888178e-13            0          0.1 0.0090007824  0.020049106  0.029898697 
number of iterations: 14589 
    4200    13.861729      188          188            0 1.9252889e-13            0          0.1 0.0090007975  0.021120427  0.029898672 
number of iterations: 14651 
    4300     14.04896      188          188            0 1.9624642e-13            0          0.1 0.0090008129  0.022218492  0.029898646 
number of iterations: 14713 
    4400     14.23608      188          188            0 2.0003573e-13            0          0.1 0.0090008286  0.023343809   0.02989862 
number of iterations: 14775 
    4500    14.423543      192          192            0 2.0389821e-13            0          0.1 0.0090008446  0.024496886  0.029898594 
number of iterations: 14837 
    4600    14.611914      196          196            0 2.0783527e-13            0          0.1 0.0090008609  0.025678033  0.029898567 
number of iterations: 14900 
    4700    14.801567      199          199            0 2.1184835e-13            0          0.1 0.0090008776  0.026887751  0.029898539 
number of iterations: 14962 
    4800    14.992383      202          202            0 2.1593891e-13            0          0.1 0.0090008945  0.028126541  0.029898511 
number of iterations: 15024 
    4900    15.181197      205          205            0 2.2010846e-13            0          0.1 0.0090009118  0.029394907  0.029898482 
number of iterations: 15547 
    5000    15.378264      217          217            0 2.2435853e-13            0          0.1 0.0090009305  0.030721719  0.029898451 
number of iterations: 15158 
    5100    15.569178      220          220            0 2.2869065e-13            0          0.1 0.0090009483   0.03207415  0.029898421 
number of iterations: 15220 
    5200    15.761549      225          225            0 2.3310643e-13            0          0.1 0.0090009666  0.033452694  0.029898391 
number of iterations: 15348 
    5300      15.9541      234          234            0 2.3760747e-13            0          0.1 0.0090009854  0.034857858  0.029898359 
number of iterations: 15807 
    5400    16.155173      243          243            0 2.4219541e-13            0          0.1 0.0090010051  0.036290154  0.029898327 
number of iterations: 14898 
    5500    16.346002      248          248            0 2.4687195e-13            0          0.1 0.0090010248  0.037750364  0.029898294 
number of iterations: 15471 
    5600    16.542829      248          248            0 2.5163879e-13            0          0.1 0.0090010446  0.039238768  0.029898261 
number of iterations: 15533 
    5700    16.741855      251          251            0 2.5649767e-13            0          0.1 0.0090010647  0.040755913  0.029898227 
number of iterations: 15595 
    5800    16.939452      259          259            0 2.6145037e-13            0          0.1 0.0090010853  0.042302352  0.029898193 
number of iterations: 15657 
    5900    17.157838      266          266            0 2.664987e-13            0          0.1 0.0090011062  0.043878651  0.029898158 
number of iterations: 15719 
    6000    17.358243      271          271            0 2.716445e-13            0          0.1 0.0090011278  0.045485386  0.029898122 
number of iterations: 16136 
    6100    17.565421      278          278            0 2.7688967e-13            0          0.1 0.0090011548  0.047123147  0.029898077 
number of iterations: 15851 
    6200    17.766384      281          281            0 2.8223612e-13            0          0.1 0.0090011771  0.048792531   0.02989804 
number of iterations: 15913 
    6300    17.990292      286          286            0 2.876858e-13            0          0.1 0.0090011999   0.05049415  0.029898002 
number of iterations: 15975 
    6400    18.196447      290          290            0 2.9324071e-13            0          0.1  0.009001223  0.052228624  0.029897964 
number of iterations: 16037 
    6500    18.399547      293          293            0 2.9890287e-13            0          0.1 0.0090012466   0.05399659  0.029897924 
number of iterations: 16070 
    6600    18.603171      299          299            0 3.0467437e-13            0          0.1 0.0090012706  0.055798692  0.029897884 
number of iterations: 16161 
    6700    18.808791      305          305            0 3.1055731e-13            0          0.1 0.0090012952  0.057635592  0.029897843 
number of iterations: 16223 
    6800    19.016174      305          305            0 3.1655384e-13            0          0.1 0.0090013202  0.059507959  0.029897802 
number of iterations: 16316 
    6900    19.224398      314          314            0 3.2266616e-13            0          0.1  0.009001346  0.061416481  0.029897759 
number of iterations: 16109 
    7000    19.429543      320          320            0 3.288965e-13            0          0.1 0.0090013688  0.063361854  0.029897721 
number of iterations: 16405 
    7100    19.637648      328          328            0 3.3524715e-13            0          0.1 0.0090013952  0.065344789  0.029897677 
number of iterations: 16468 
    7200    19.845695      335          335            0 3.4172041e-13            0          0.1 0.0090014222  0.067366013  0.029897632 
number of iterations: 16530 
    7300    20.057424      338          338            0 3.4831867e-13            0          0.1 0.0090014496  0.069426264  0.029897586 
number of iterations: 16756 
    7400    20.270175      342          342            0 3.5504434e-13            0          0.1 0.0090014806  0.071526297  0.029897535 
number of iterations: 16603 
    7500     20.48033      351          351            0 3.6189986e-13            0          0.1  0.009001509  0.073666879  0.029897487 
number of iterations: 16685 
    7600    20.702785      361          361            0 3.6888777e-13            0          0.1 0.0090015374  0.075848793   0.02989744 
number of iterations: 16780 
    7700    20.933719      364          364            0 3.760106e-13            0          0.1 0.0090015671  0.078072838  0.029897391 
number of iterations: 16857 
    7800    21.146771      370          370            0 3.8327096e-13            0          0.1 0.0090015982  0.080339827  0.029897339 
number of iterations: 16905 
    7900    21.389909      377          377            0 3.9067152e-13            0          0.1  0.009001629  0.082650588  0.029897288 
number of iterations: 16967 
    8000    21.612402      386          386            0 3.9821497e-13            0          0.1 0.0090016605  0.085005968  0.029897235 
number of iterations: 17029 
    8100    21.832046      395          395            0 4.0590408e-13            0          0.1 0.0090016926  0.087406828  0.029897182 
number of iterations: 17091 
    8200    22.049351      398          398            0 4.1374166e-13            0          0.1 0.0090017251  0.089854046  0.029897128 
number of iterations: 17153 
    8300     22.26695      407          407            0 4.2173057e-13            0          0.1 0.0090017584  0.092348517  0.029897072 
number of iterations: 17215 
    8400     22.48508      409          409            0 4.2987374e-13            0          0.1 0.0090017924  0.094891154  0.029897016 
number of iterations: 17166 
    8500    22.704863      415          415            0 4.3817414e-13            0          0.1 0.0090018252  0.097482886  0.029896961 
number of iterations: 17337 
    8600    22.929904      428          428            0 4.4663482e-13            0          0.1 0.0090018604   0.10012466  0.029896902 
number of iterations: 17356 
    8700    23.149859      438          438            0 4.5525886e-13            0          0.1 0.0090018959   0.10281745  0.029896843 
Loop time of 23.1499 on 32 procs for 8700 steps with 438 atoms

Performance: 324701473.725 tau/day, 375.812 timesteps/s
98.5% CPU use with 32 MPI tasks x no OpenMP threads

MPI task timing breakdown:
Section |  min time  |  avg time  |  max time  |%varavg| %total
---------------------------------------------------------------
Pair    | 0.00046259 | 0.002274   | 0.0059367  |   2.9 |  0.01
Neigh   | 0.0010829  | 0.0019853  | 0.0048064  |   1.8 |  0.01
Comm    | 0.011531   | 0.023324   | 0.041247   |   6.0 |  0.10
Output  | 0.84399    | 0.84446    | 0.8462     |   0.0 |  3.65
Modify  | 22.224     | 22.23      | 22.234     |   0.0 | 96.03
Other   |            | 0.04746    |            |       |  0.21

Nlocal:    13.6875 ave 47 max 0 min
Histogram: 9 5 4 4 5 3 0 0 0 2
Nghost:    3.125 ave 10 max 0 min
Histogram: 10 3 2 2 4 5 2 2 0 2
Neighs:    14.625 ave 48 max 0 min
Histogram: 9 5 3 5 5 2 1 0 0 2

Total # of neighbors = 468
Ave neighs/atom = 1.06849
Neighbor list builds = 105
Dangerous builds = 0
Total wall time: 0:00:23
