 NUFEB Simulation

     100 atoms 
     2 atom types 
     4 nutrients 

  0.0e-4   1.00e-04  xlo xhi 
  0.0e-4   1.00e-04  ylo yhi 
  0.0e-4   1.00e-05  zlo zhi 

 Atoms 

     1 1 1.88e-06  370 7.29e-05 1.68e-05 2.64e-06 1.88e-06 
     2 1 1.54e-06  370 4.30e-05 3.76e-05 7.66e-06 1.54e-06 
     3 1 1.66e-06  370 5.85e-05 1.02e-05 7.19e-06 1.66e-06 
     4 1 1.53e-06  370 6.32e-05 2.84e-05 7.52e-06 1.53e-06 
     5 1 1.43e-06  370 6.42e-05 6.37e-05 5.85e-06 1.43e-06 
     6 1 1.55e-06  370 8.36e-05 7.89e-05 8.17e-06 1.55e-06 
     7 1 1.55e-06  370 8.19e-05 1.31e-05 2.37e-06 1.55e-06 
     8 1 1.54e-06  370 9.14e-05 7.11e-05 4.26e-06 1.54e-06 
     9 1 1.82e-06  370 6.02e-05 7.85e-05 7.28e-06 1.82e-06 
     10 1 1.69e-06  370 7.12e-05 6.32e-05 5.92e-06 1.69e-06 
     11 1 1.86e-06  370 2.02e-05 6.22e-05 5.55e-06 1.86e-06 
     12 1 1.84e-06  370 7.53e-05 2.61e-05 3.19e-06 1.84e-06 
     13 1 1.85e-06  370 7.83e-05 7.81e-05 7.93e-06 1.85e-06 
     14 1 1.39e-06  370 1.30e-05 5.49e-05 3.91e-06 1.39e-06 
     15 1 1.55e-06  370 2.16e-05 2.17e-05 4.93e-06 1.55e-06 
     16 1 1.56e-06  370 3.57e-06 1.19e-05 1.99e-06 1.56e-06 
     17 1 1.83e-06  370 5.36e-05 6.33e-05 5.21e-06 1.83e-06 
     18 1 1.82e-06  370 3.37e-05 1.40e-05 6.02e-06 1.82e-06 
     19 1 1.47e-06  370 8.17e-05 6.61e-05 6.59e-06 1.47e-06 
     20 1 1.92e-06  370 5.04e-05 7.88e-05 4.90e-06 1.92e-06 
     21 1 1.40e-06  370 6.81e-05 7.55e-05 8.28e-06 1.40e-06 
     22 1 1.52e-06  370 3.21e-05 5.62e-05 4.04e-06 1.52e-06 
     23 1 1.56e-06  370 8.82e-05 2.23e-05 2.12e-06 1.56e-06 
     24 1 1.77e-06  370 5.03e-05 4.83e-05 3.03e-06 1.77e-06 
     25 1 1.43e-06  370 4.25e-05 1.11e-05 2.19e-06 1.43e-06 
     26 1 1.73e-06  370 5.07e-05 6.50e-05 7.06e-06 1.73e-06 
     27 1 1.74e-06  370 5.32e-05 4.26e-05 7.21e-06 1.74e-06 
     28 1 1.42e-06  370 3.76e-05 8.29e-05 3.52e-06 1.42e-06 
     29 1 1.91e-06  370 5.76e-05 4.84e-05 6.02e-06 1.91e-06 
     30 1 1.38e-06  370 7.63e-05 4.02e-05 6.45e-06 1.38e-06 
     31 1 1.46e-06  370 8.65e-05 8.17e-05 3.69e-06 1.46e-06 
     32 1 1.70e-06  370 2.76e-05 1.01e-05 3.16e-06 1.70e-06 
     33 1 1.87e-06  370 7.28e-05 6.10e-05 7.37e-06 1.87e-06 
     34 1 1.74e-06  370 1.53e-05 5.05e-05 4.34e-06 1.74e-06 
     35 1 1.82e-06  370 1.30e-05 1.11e-05 2.52e-06 1.82e-06 
     36 1 1.57e-06  370 3.59e-05 9.69e-05 8.01e-06 1.57e-06 
     37 1 1.68e-06  370 2.90e-05 6.67e-05 4.59e-06 1.68e-06 
     38 1 1.70e-06  370 9.56e-05 2.20e-05 6.75e-06 1.70e-06 
     39 1 1.66e-06  370 7.54e-05 6.61e-05 3.54e-06 1.66e-06 
     40 1 1.38e-06  370 3.02e-05 9.11e-05 2.46e-06 1.38e-06 
     41 1 1.78e-06  370 4.96e-05 3.96e-05 3.43e-06 1.78e-06 
     42 1 1.90e-06  370 4.59e-06 7.36e-05 7.10e-06 1.90e-06 
     43 1 1.90e-06  370 8.69e-05 3.98e-06 5.14e-06 1.90e-06 
     44 1 1.62e-06  370 6.67e-06 1.36e-05 7.12e-06 1.62e-06 
     45 1 1.44e-06  370 3.52e-05 6.57e-05 7.04e-06 1.44e-06 
     46 1 1.91e-06  370 1.43e-05 6.80e-05 6.91e-06 1.91e-06 
     47 1 1.61e-06  370 1.79e-06 7.95e-06 3.10e-06 1.61e-06 
     48 1 1.41e-06  370 7.65e-05 9.49e-05 6.92e-06 1.41e-06 
     49 1 1.80e-06  370 7.17e-05 6.12e-05 1.97e-06 1.80e-06 
     50 1 1.69e-06  370 5.98e-05 7.90e-05 2.07e-06 1.69e-06 
     51 2 9.73e-07  230 5.53e-05 1.09e-05 7.40e-06 9.73e-07 
     52 2 1.38e-06  230 1.31e-05 9.26e-05 7.11e-06 1.38e-06 
     53 2 9.22e-07  230 4.24e-05 1.12e-05 1.88e-06 9.22e-07 
     54 2 1.22e-06  230 5.20e-05 9.53e-05 3.62e-06 1.22e-06 
     55 2 9.13e-07  230 2.80e-05 8.93e-05 5.51e-06 9.13e-07 
     56 2 1.15e-06  230 5.34e-05 5.01e-05 6.94e-06 1.15e-06 
     57 2 1.34e-06  230 2.59e-05 5.38e-05 2.97e-06 1.34e-06 
     58 2 1.17e-06  230 6.66e-05 4.99e-05 2.87e-06 1.17e-06 
     59 2 1.33e-06  230 4.54e-05 1.50e-05 3.81e-06 1.33e-06 
     60 2 9.35e-07  230 2.43e-05 3.83e-05 3.37e-06 9.35e-07 
     61 2 9.82e-07  230 3.16e-05 7.55e-05 8.90e-06 9.82e-07 
     62 2 1.19e-06  230 5.99e-05 8.68e-05 5.10e-06 1.19e-06 
     63 2 1.30e-06  230 7.50e-05 3.97e-05 6.85e-06 1.30e-06 
     64 2 1.15e-06  230 5.45e-05 5.89e-05 7.83e-06 1.15e-06 
     65 2 1.15e-06  230 4.92e-05 8.91e-05 5.44e-06 1.15e-06 
     66 2 9.79e-07  230 5.45e-05 5.34e-05 4.72e-06 9.79e-07 
     67 2 9.02e-07  230 9.53e-05 6.64e-05 2.83e-06 9.02e-07 
     68 2 9.18e-07  230 6.52e-05 4.03e-05 6.97e-06 9.18e-07 
     69 2 1.39e-06  230 3.03e-05 9.32e-06 3.05e-06 1.39e-06 
     70 2 1.01e-06  230 1.55e-05 7.25e-06 4.89e-06 1.01e-06 
     71 2 9.72e-07  230 1.01e-05 3.38e-05 4.19e-06 9.72e-07 
     72 2 9.66e-07  230 3.47e-05 5.29e-05 6.88e-06 9.66e-07 
     73 2 1.19e-06  230 1.28e-05 7.48e-05 7.32e-06 1.19e-06 
     74 2 8.89e-07  230 8.39e-05 6.97e-05 6.19e-06 8.89e-07 
     75 2 1.34e-06  230 9.82e-05 9.75e-06 4.30e-06 1.34e-06 
     76 2 9.60e-07  230 2.91e-05 7.80e-05 8.71e-06 9.60e-07 
     77 2 1.33e-06  230 4.20e-05 8.75e-05 6.36e-06 1.33e-06 
     78 2 1.01e-06  230 6.69e-05 2.13e-05 2.78e-06 1.01e-06 
     79 2 1.22e-06  230 2.49e-05 5.88e-05 7.82e-06 1.22e-06 
     80 2 1.20e-06  230 1.39e-05 2.59e-05 4.50e-06 1.20e-06 
     81 2 1.27e-06  230 3.82e-05 3.99e-05 5.50e-06 1.27e-06 
     82 2 1.00e-06  230 8.18e-05 4.68e-05 4.61e-06 1.00e-06 
     83 2 9.17e-07  230 2.44e-05 7.94e-05 1.06e-06 9.17e-07 
     84 2 1.36e-06  230 4.61e-05 7.51e-05 6.35e-06 1.36e-06 
     85 2 1.35e-06  230 6.54e-05 2.26e-05 4.58e-06 1.35e-06 
     86 2 1.04e-06  230 2.39e-06 1.37e-05 6.29e-06 1.04e-06 
     87 2 1.19e-06  230 3.96e-05 3.36e-05 2.89e-06 1.19e-06 
     88 2 1.31e-06  230 1.18e-05 5.09e-06 2.19e-06 1.31e-06 
     89 2 8.81e-07  230 6.86e-06 7.62e-05 4.82e-06 8.81e-07 
     90 2 1.16e-06  230 5.52e-06 6.85e-05 1.71e-06 1.16e-06 
     91 2 1.21e-06  230 3.71e-05 9.72e-05 8.02e-06 1.21e-06 
     92 2 1.34e-06  230 1.34e-05 2.03e-05 8.11e-06 1.34e-06 
     93 2 1.15e-06  230 1.59e-05 5.55e-05 5.06e-06 1.15e-06 
     94 2 1.39e-06  230 5.70e-05 9.00e-05 4.90e-06 1.39e-06 
     95 2 1.37e-06  230 4.57e-06 2.67e-05 7.19e-06 1.37e-06 
     96 2 1.26e-06  230 5.05e-05 2.90e-05 7.11e-06 1.26e-06 
     97 2 1.15e-06  230 7.76e-05 2.17e-05 6.61e-06 1.15e-06 
     98 2 9.25e-07  230 1.52e-05 5.59e-05 8.80e-06 9.25e-07 
     99 2 1.08e-06  230 4.30e-05 3.51e-05 2.39e-06 1.08e-06 
     100 2 1.25e-06  230 8.90e-05 1.52e-05 2.51e-06 1.25e-06 

 Nutrients 

     1 sub g nn nn nn 1.00e-01 1.00e-01 
     2 o2 l nn nn nd 9.00e-03 9.00e-03 
     3 suc l nn nn nn 3.42e-20 3.42e-20 
     4 co2 l nn nn nd 2.99e-02 2.99e-02 

 Type Name 

     1 cyano  
     2 ecw  

 Diffusion Coeffs 

     sub 0 
     o2 2.3e-09 
     suc 5.2e-10 
     co2 1.9e-09 

 Growth Rate 

     cyano 1.67e-05 
     ecw 1.2e-05 

 Ks 

     cyano 0.00035 0.0002 0.01 0.000138 
     ecw 0 0.001 3.6 0.05 

 Yield 

     cyano 0.55 
     ecw 0.43 

 Maintenance 

     cyano 0 
     ecw 9.5e-07 

 Decay 

     cyano 0 
     ecw 0 



