ITEM: TIMESTEP
0
ITEM: NUMBER OF ATOMS
50
ITEM: BOX BOUNDS ff ff ff
0.0000000000000000e+00 1.0000000000000000e-04
0.0000000000000000e+00 1.0000000000000000e-04
0.0000000000000000e+00 5.0000000000000002e-05
ITEM: ATOMS id type diameter x y z 
47 1 1.42e-06 3.97e-05 4.63e-05 9.84e-06 
30 1 1.49e-06 3.7e-05 4.68e-05 9.88e-06 
32 1 1.56e-06 3.94e-05 4.8e-05 1.52e-05 
31 1 1.46e-06 1.72e-05 3.44e-05 1.85e-05 
41 1 1.43e-06 3.15e-06 2.11e-05 2.79e-05 
22 1 1.7e-06 3.7e-05 3.8e-05 3.04e-05 
45 1 1.67e-06 4.72e-05 6.1e-06 3.22e-05 
7 1 1.83e-06 4.72e-05 2.19e-05 4.26e-05 
3 1 1.45e-06 2.51e-05 2.69e-05 4.54e-05 
29 1 1.93e-06 1.78e-05 3.85e-05 4.65e-05 
1 1 1.9e-06 3.59e-05 7.51e-05 3.42e-06 
6 1 1.93e-06 3.26e-05 9.45e-05 4.45e-06 
27 1 1.44e-06 1.55e-05 7.08e-05 4.77e-06 
2 1 1.85e-06 3.59e-05 9.2e-05 1.06e-05 
39 1 1.68e-06 2.15e-05 6.45e-05 1.6e-05 
9 1 1.75e-06 2.88e-05 7.62e-05 2.56e-05 
40 1 1.48e-06 1.35e-05 6.41e-05 2.76e-05 
44 1 1.72e-06 8.28e-06 6.91e-05 2.8e-05 
33 1 1.87e-06 2.85e-05 5.6e-05 2.96e-05 
46 1 1.93e-06 4.8e-05 5.88e-05 3.08e-05 
4 1 1.87e-06 1.85e-05 7.22e-05 3.11e-05 
10 1 1.85e-06 4.08e-05 8.87e-05 3.11e-05 
49 1 1.43e-06 2.11e-05 7.68e-05 3.41e-05 
5 1 1.67e-06 9.54e-06 7.94e-05 3.6e-05 
13 1 1.7e-06 5.11e-06 8.89e-05 3.67e-05 
48 1 1.53e-06 1.75e-05 8.96e-05 3.79e-05 
42 1 1.77e-06 5.14e-05 1.43e-05 3.23e-06 
37 1 1.83e-06 5.22e-05 1.75e-05 9.72e-06 
38 1 1.75e-06 8.08e-05 3.53e-05 1.01e-05 
50 1 1.83e-06 6.43e-05 4.01e-05 1.39e-05 
28 1 1.61e-06 9.43e-05 1.67e-05 1.52e-05 
17 1 1.66e-06 8.41e-05 1.29e-05 1.78e-05 
35 1 1.84e-06 5.73e-05 5.08e-06 2.61e-05 
12 1 1.52e-06 8.85e-05 2.35e-05 3.17e-05 
14 1 1.57e-06 5.74e-05 4.43e-05 3.24e-05 
18 1 1.64e-06 8.03e-05 4.35e-05 3.65e-05 
19 1 1.7e-06 7.08e-05 1.93e-05 4e-05 
43 1 1.91e-06 7.64e-05 1.76e-05 4.69e-05 
8 1 1.82e-06 9.64e-05 4.39e-05 4.71e-05 
24 1 1.87e-06 6.37e-05 9.58e-05 2.85e-06 
26 1 1.73e-06 7.91e-05 5.54e-05 1.1e-05 
16 1 1.74e-06 6.88e-05 5.25e-05 1.46e-05 
15 1 1.81e-06 6.86e-05 8.04e-05 1.88e-05 
23 1 1.61e-06 5.28e-05 8.47e-05 2.09e-05 
21 1 1.5e-06 7.64e-05 8e-05 2.64e-05 
11 1 1.83e-06 7.84e-05 6.88e-05 3.07e-05 
34 1 1.68e-06 5.24e-05 5.67e-05 3.28e-05 
20 1 1.48e-06 5.26e-05 9.73e-05 3.46e-05 
36 1 1.55e-06 7.86e-05 9.52e-05 3.7e-05 
25 1 1.9e-06 8.36e-05 7.49e-05 4.2e-05 
ITEM: TIMESTEP
100
ITEM: NUMBER OF ATOMS
50
ITEM: BOX BOUNDS ff ff ff
0.0000000000000000e+00 1.0000000000000000e-04
0.0000000000000000e+00 1.0000000000000000e-04
0.0000000000000000e+00 5.0000000000000002e-05
ITEM: ATOMS id type diameter x y z 
47 1 1.42765e-06 3.97e-05 4.63e-05 9.84e-06 
30 1 1.49802e-06 3.7e-05 4.68e-05 9.88e-06 
32 1 1.5684e-06 3.94e-05 4.8e-05 1.52e-05 
31 1 1.46786e-06 1.72e-05 3.44e-05 1.85e-05 
41 1 1.4377e-06 3.15e-06 2.11e-05 2.79e-05 
22 1 1.70916e-06 3.7e-05 3.8e-05 3.04e-05 
45 1 1.67899e-06 4.72e-05 6.1e-06 3.22e-05 
7 1 1.83986e-06 4.72e-05 2.19e-05 4.26e-05 
3 1 1.45781e-06 2.51e-05 2.69e-05 4.54e-05 
29 1 1.94039e-06 1.78e-05 3.85e-05 4.65e-05 
1 1 1.91023e-06 3.59e-05 7.51e-05 3.42e-06 
6 1 1.94039e-06 3.26e-05 9.45e-05 4.45e-06 
27 1 1.44776e-06 1.55e-05 7.08e-05 4.77e-06 
2 1 1.85996e-06 3.59e-05 9.2e-05 1.06e-05 
39 1 1.68905e-06 2.15e-05 6.45e-05 1.6e-05 
9 1 1.75942e-06 2.88e-05 7.62e-05 2.56e-05 
40 1 1.48797e-06 1.35e-05 6.41e-05 2.76e-05 
44 1 1.72926e-06 8.28e-06 6.91e-05 2.8e-05 
33 1 1.88007e-06 2.85e-05 5.6e-05 2.96e-05 
46 1 1.94039e-06 4.8e-05 5.88e-05 3.08e-05 
4 1 1.88007e-06 1.85e-05 7.22e-05 3.11e-05 
10 1 1.85996e-06 4.08e-05 8.87e-05 3.11e-05 
49 1 1.4377e-06 2.11e-05 7.68e-05 3.41e-05 
5 1 1.67899e-06 9.54e-06 7.94e-05 3.6e-05 
13 1 1.70916e-06 5.11e-06 8.89e-05 3.67e-05 
48 1 1.53824e-06 1.75e-05 8.96e-05 3.79e-05 
42 1 1.77953e-06 5.14e-05 1.43e-05 3.23e-06 
37 1 1.83986e-06 5.22e-05 1.75e-05 9.72e-06 
38 1 1.75942e-06 8.08e-05 3.53e-05 1.01e-05 
50 1 1.83986e-06 6.43e-05 4.01e-05 1.39e-05 
28 1 1.61867e-06 9.43e-05 1.67e-05 1.52e-05 
17 1 1.66894e-06 8.41e-05 1.29e-05 1.78e-05 
35 1 1.84991e-06 5.73e-05 5.08e-06 2.61e-05 
12 1 1.52819e-06 8.85e-05 2.35e-05 3.17e-05 
14 1 1.57846e-06 5.74e-05 4.43e-05 3.24e-05 
18 1 1.64883e-06 8.03e-05 4.35e-05 3.65e-05 
19 1 1.70916e-06 7.08e-05 1.93e-05 4e-05 
43 1 1.92029e-06 7.64e-05 1.76e-05 4.69e-05 
8 1 1.8298e-06 9.64e-05 4.39e-05 4.71e-05 
24 1 1.88007e-06 6.37e-05 9.58e-05 2.85e-06 
26 1 1.73932e-06 7.91e-05 5.54e-05 1.1e-05 
16 1 1.74937e-06 6.88e-05 5.25e-05 1.46e-05 
15 1 1.81975e-06 6.86e-05 8.04e-05 1.88e-05 
23 1 1.61867e-06 5.28e-05 8.47e-05 2.09e-05 
21 1 1.50808e-06 7.64e-05 8e-05 2.64e-05 
11 1 1.83986e-06 7.84e-05 6.88e-05 3.07e-05 
34 1 1.68905e-06 5.24e-05 5.67e-05 3.28e-05 
20 1 1.48797e-06 5.26e-05 9.73e-05 3.46e-05 
36 1 1.55835e-06 7.86e-05 9.52e-05 3.7e-05 
25 1 1.91023e-06 8.36e-05 7.49e-05 4.2e-05 
ITEM: TIMESTEP
200
ITEM: NUMBER OF ATOMS
50
ITEM: BOX BOUNDS ff ff ff
0.0000000000000000e+00 1.0000000000000000e-04
0.0000000000000000e+00 1.0000000000000000e-04
0.0000000000000000e+00 5.0000000000000002e-05
ITEM: ATOMS id type diameter x y z 
47 1 1.43534e-06 3.97e-05 4.63e-05 9.84e-06 
30 1 1.50609e-06 3.7e-05 4.68e-05 9.88e-06 
32 1 1.57685e-06 3.94e-05 4.8e-05 1.52e-05 
31 1 1.47577e-06 1.72e-05 3.44e-05 1.85e-05 
41 1 1.44544e-06 3.15e-06 2.11e-05 2.79e-05 
22 1 1.71836e-06 3.7e-05 3.8e-05 3.04e-05 
45 1 1.68804e-06 4.72e-05 6.1e-06 3.22e-05 
7 1 1.84976e-06 4.72e-05 2.19e-05 4.26e-05 
3 1 1.46566e-06 2.51e-05 2.69e-05 4.54e-05 
29 1 1.95084e-06 1.78e-05 3.85e-05 4.65e-05 
1 1 1.92052e-06 3.59e-05 7.51e-05 3.42e-06 
6 1 1.95084e-06 3.26e-05 9.45e-05 4.45e-06 
27 1 1.45555e-06 1.55e-05 7.08e-05 4.77e-06 
2 1 1.86998e-06 3.59e-05 9.2e-05 1.06e-05 
39 1 1.69814e-06 2.15e-05 6.45e-05 1.6e-05 
9 1 1.7689e-06 2.88e-05 7.62e-05 2.56e-05 
40 1 1.49598e-06 1.35e-05 6.41e-05 2.76e-05 
44 1 1.73858e-06 8.28e-06 6.91e-05 2.8e-05 
33 1 1.8902e-06 2.85e-05 5.6e-05 2.96e-05 
46 1 1.95084e-06 4.8e-05 5.88e-05 3.08e-05 
4 1 1.8902e-06 1.85e-05 7.22e-05 3.11e-05 
10 1 1.86998e-06 4.08e-05 8.87e-05 3.11e-05 
49 1 1.44544e-06 2.11e-05 7.68e-05 3.41e-05 
5 1 1.68804e-06 9.54e-06 7.94e-05 3.6e-05 
13 1 1.71836e-06 5.11e-06 8.89e-05 3.67e-05 
48 1 1.54652e-06 1.75e-05 8.96e-05 3.79e-05 
42 1 1.78912e-06 5.14e-05 1.43e-05 3.23e-06 
37 1 1.84976e-06 5.22e-05 1.75e-05 9.72e-06 
38 1 1.7689e-06 8.08e-05 3.53e-05 1.01e-05 
50 1 1.84976e-06 6.43e-05 4.01e-05 1.39e-05 
28 1 1.62739e-06 9.43e-05 1.67e-05 1.52e-05 
17 1 1.67793e-06 8.41e-05 1.29e-05 1.78e-05 
35 1 1.85987e-06 5.73e-05 5.08e-06 2.61e-05 
12 1 1.53642e-06 8.85e-05 2.35e-05 3.17e-05 
14 1 1.58696e-06 5.74e-05 4.43e-05 3.24e-05 
18 1 1.65771e-06 8.03e-05 4.35e-05 3.65e-05 
19 1 1.71836e-06 7.08e-05 1.93e-05 4e-05 
43 1 1.93063e-06 7.64e-05 1.76e-05 4.69e-05 
8 1 1.83966e-06 9.64e-05 4.39e-05 4.71e-05 
24 1 1.8902e-06 6.37e-05 9.58e-05 2.85e-06 
26 1 1.74868e-06 7.91e-05 5.54e-05 1.1e-05 
16 1 1.75879e-06 6.88e-05 5.25e-05 1.46e-05 
15 1 1.82955e-06 6.86e-05 8.04e-05 1.88e-05 
23 1 1.62739e-06 5.28e-05 8.47e-05 2.09e-05 
21 1 1.5162e-06 7.64e-05 8e-05 2.64e-05 
11 1 1.84976e-06 7.84e-05 6.88e-05 3.07e-05 
34 1 1.69814e-06 5.24e-05 5.67e-05 3.28e-05 
20 1 1.49598e-06 5.26e-05 9.73e-05 3.46e-05 
36 1 1.56674e-06 7.86e-05 9.52e-05 3.7e-05 
25 1 1.92052e-06 8.36e-05 7.49e-05 4.2e-05 
ITEM: TIMESTEP
300
ITEM: NUMBER OF ATOMS
50
ITEM: BOX BOUNDS ff ff ff
0.0000000000000000e+00 1.0000000000000000e-04
0.0000000000000000e+00 1.0000000000000000e-04
0.0000000000000000e+00 5.0000000000000002e-05
ITEM: ATOMS id type diameter x y z 
47 1 1.44307e-06 3.97e-05 4.63e-05 9.84e-06 
30 1 1.5142e-06 3.7e-05 4.68e-05 9.88e-06 
32 1 1.58534e-06 3.94e-05 4.8e-05 1.52e-05 
31 1 1.48372e-06 1.72e-05 3.44e-05 1.85e-05 
41 1 1.45323e-06 3.15e-06 2.11e-05 2.79e-05 
22 1 1.72761e-06 3.7e-05 3.8e-05 3.04e-05 
45 1 1.69713e-06 4.72e-05 6.1e-06 3.22e-05 
7 1 1.85973e-06 4.72e-05 2.19e-05 4.26e-05 
3 1 1.47355e-06 2.51e-05 2.69e-05 4.54e-05 
29 1 1.96135e-06 1.78e-05 3.85e-05 4.65e-05 
1 1 1.93086e-06 3.59e-05 7.51e-05 3.42e-06 
6 1 1.96135e-06 3.26e-05 9.45e-05 4.45e-06 
27 1 1.46339e-06 1.55e-05 7.08e-05 4.77e-06 
2 1 1.88005e-06 3.59e-05 9.2e-05 1.06e-05 
39 1 1.70729e-06 2.15e-05 6.45e-05 1.6e-05 
9 1 1.77843e-06 2.88e-05 7.62e-05 2.56e-05 
40 1 1.50404e-06 1.35e-05 6.41e-05 2.76e-05 
44 1 1.74794e-06 8.28e-06 6.91e-05 2.8e-05 
33 1 1.90038e-06 2.85e-05 5.6e-05 2.96e-05 
46 1 1.96135e-06 4.8e-05 5.88e-05 3.08e-05 
4 1 1.90038e-06 1.85e-05 7.22e-05 3.11e-05 
10 1 1.88005e-06 4.08e-05 8.87e-05 3.11e-05 
49 1 1.45323e-06 2.11e-05 7.68e-05 3.41e-05 
5 1 1.69713e-06 9.54e-06 7.94e-05 3.6e-05 
13 1 1.72761e-06 5.11e-06 8.89e-05 3.67e-05 
48 1 1.55485e-06 1.75e-05 8.96e-05 3.79e-05 
42 1 1.79875e-06 5.14e-05 1.43e-05 3.23e-06 
37 1 1.85973e-06 5.22e-05 1.75e-05 9.72e-06 
38 1 1.77843e-06 8.08e-05 3.53e-05 1.01e-05 
50 1 1.85973e-06 6.43e-05 4.01e-05 1.39e-05 
28 1 1.63615e-06 9.43e-05 1.67e-05 1.52e-05 
17 1 1.68696e-06 8.41e-05 1.29e-05 1.78e-05 
35 1 1.86989e-06 5.73e-05 5.08e-06 2.61e-05 
12 1 1.54469e-06 8.85e-05 2.35e-05 3.17e-05 
14 1 1.5955e-06 5.74e-05 4.43e-05 3.24e-05 
18 1 1.66664e-06 8.03e-05 4.35e-05 3.65e-05 
19 1 1.72761e-06 7.08e-05 1.93e-05 4e-05 
43 1 1.94103e-06 7.64e-05 1.76e-05 4.69e-05 
8 1 1.84956e-06 9.64e-05 4.39e-05 4.71e-05 
24 1 1.90038e-06 6.37e-05 9.58e-05 2.85e-06 
26 1 1.7581e-06 7.91e-05 5.54e-05 1.1e-05 
16 1 1.76826e-06 6.88e-05 5.25e-05 1.46e-05 
15 1 1.8394e-06 6.86e-05 8.04e-05 1.88e-05 
23 1 1.63615e-06 5.28e-05 8.47e-05 2.09e-05 
21 1 1.52437e-06 7.64e-05 8e-05 2.64e-05 
11 1 1.85973e-06 7.84e-05 6.88e-05 3.07e-05 
34 1 1.70729e-06 5.24e-05 5.67e-05 3.28e-05 
20 1 1.50404e-06 5.26e-05 9.73e-05 3.46e-05 
36 1 1.57518e-06 7.86e-05 9.52e-05 3.7e-05 
25 1 1.93086e-06 8.36e-05 7.49e-05 4.2e-05 
ITEM: TIMESTEP
400
ITEM: NUMBER OF ATOMS
53
ITEM: BOX BOUNDS ff ff ff
0.0000000000000000e+00 1.0000000000000000e-04
0.0000000000000000e+00 1.0000000000000000e-04
0.0000000000000000e+00 5.0000000000000002e-05
ITEM: ATOMS id type diameter x y z 
47 1 1.45084e-06 3.97e-05 4.63e-05 9.84e-06 
30 1 1.52236e-06 3.7e-05 4.68e-05 9.88e-06 
32 1 1.59388e-06 3.94e-05 4.8e-05 1.52e-05 
31 1 1.49171e-06 1.72e-05 3.44e-05 1.85e-05 
41 1 1.46106e-06 3.15e-06 2.11e-05 2.79e-05 
22 1 1.73692e-06 3.7e-05 3.8e-05 3.04e-05 
45 1 1.70627e-06 4.72e-05 6.1e-06 3.22e-05 
7 1 1.86974e-06 4.72e-05 2.19e-05 4.26e-05 
3 1 1.48149e-06 2.51e-05 2.69e-05 4.54e-05 
29 1 1.63419e-06 1.80022e-05 3.92781e-05 4.6356e-05 
51 1 1.48933e-06 1.76157e-05 3.77908e-05 4.66312e-05 
1 1 1.94126e-06 3.59e-05 7.51e-05 3.42e-06 
6 1 1.63419e-06 3.28022e-05 9.52781e-05 4.30602e-06 
27 1 1.47127e-06 1.55e-05 7.08e-05 4.77e-06 
2 1 1.89018e-06 3.59e-05 9.2e-05 1.06e-05 
39 1 1.71648e-06 2.15e-05 6.45e-05 1.6e-05 
52 1 1.48933e-06 3.24157e-05 9.37908e-05 4.58122e-06 
9 1 1.788e-06 2.88e-05 7.62e-05 2.56e-05 
40 1 1.51214e-06 1.35e-05 6.41e-05 2.76e-05 
44 1 1.75735e-06 8.28e-06 6.91e-05 2.8e-05 
33 1 1.91061e-06 2.85e-05 5.6e-05 2.96e-05 
46 1 1.63419e-06 4.82022e-05 5.95781e-05 3.0656e-05 
4 1 1.91061e-06 1.85e-05 7.22e-05 3.11e-05 
10 1 1.89018e-06 4.08e-05 8.87e-05 3.11e-05 
49 1 1.46106e-06 2.11e-05 7.68e-05 3.41e-05 
5 1 1.70627e-06 9.54e-06 7.94e-05 3.6e-05 
13 1 1.73692e-06 5.11e-06 8.89e-05 3.67e-05 
48 1 1.56323e-06 1.75e-05 8.96e-05 3.79e-05 
53 1 1.48933e-06 4.78157e-05 5.80908e-05 3.09312e-05 
42 1 1.80844e-06 5.14e-05 1.43e-05 3.23e-06 
37 1 1.86974e-06 5.22e-05 1.75e-05 9.72e-06 
38 1 1.788e-06 8.08e-05 3.53e-05 1.01e-05 
50 1 1.86974e-06 6.43e-05 4.01e-05 1.39e-05 
28 1 1.64496e-06 9.43e-05 1.67e-05 1.52e-05 
17 1 1.69605e-06 8.41e-05 1.29e-05 1.78e-05 
35 1 1.87996e-06 5.73e-05 5.08e-06 2.61e-05 
12 1 1.55301e-06 8.85e-05 2.35e-05 3.17e-05 
14 1 1.6041e-06 5.74e-05 4.43e-05 3.24e-05 
18 1 1.67562e-06 8.03e-05 4.35e-05 3.65e-05 
19 1 1.73692e-06 7.08e-05 1.93e-05 4e-05 
43 1 1.95148e-06 7.64e-05 1.76e-05 4.69e-05 
8 1 1.85952e-06 9.64e-05 4.39e-05 4.71e-05 
24 1 1.91061e-06 6.37e-05 9.58e-05 2.85e-06 
26 1 1.76757e-06 7.91e-05 5.54e-05 1.1e-05 
16 1 1.77779e-06 6.88e-05 5.25e-05 1.46e-05 
15 1 1.84931e-06 6.86e-05 8.04e-05 1.88e-05 
23 1 1.64496e-06 5.28e-05 8.47e-05 2.09e-05 
21 1 1.53258e-06 7.64e-05 8e-05 2.64e-05 
11 1 1.86974e-06 7.84e-05 6.88e-05 3.07e-05 
34 1 1.71648e-06 5.24e-05 5.67e-05 3.28e-05 
20 1 1.51214e-06 5.26e-05 9.73e-05 3.46e-05 
36 1 1.58366e-06 7.86e-05 9.52e-05 3.7e-05 
25 1 1.94126e-06 8.36e-05 7.49e-05 4.2e-05 
ITEM: TIMESTEP
500
ITEM: NUMBER OF ATOMS
53
ITEM: BOX BOUNDS ff ff ff
0.0000000000000000e+00 1.0000000000000000e-04
0.0000000000000000e+00 1.0000000000000000e-04
0.0000000000000000e+00 5.0000000000000002e-05
ITEM: ATOMS id type diameter x y z 
47 1 1.45865e-06 3.97e-05 4.63e-05 9.84e-06 
30 1 1.53056e-06 3.7e-05 4.68e-05 9.88e-06 
32 1 1.60246e-06 3.94e-05 4.8e-05 1.52e-05 
31 1 1.49974e-06 1.72e-05 3.44e-05 1.85e-05 
41 1 1.46892e-06 3.15e-06 2.11e-05 2.79e-05 
22 1 1.74627e-06 3.7e-05 3.8e-05 3.04e-05 
45 1 1.71546e-06 4.72e-05 6.1e-06 3.22e-05 
7 1 1.87981e-06 4.72e-05 2.19e-05 4.26e-05 
3 1 1.48947e-06 2.51e-05 2.69e-05 4.54e-05 
29 1 1.64299e-06 1.80022e-05 3.92781e-05 4.6356e-05 
51 1 1.49735e-06 1.76157e-05 3.77908e-05 4.66312e-05 
1 1 1.95172e-06 3.59e-05 7.51e-05 3.42e-06 
6 1 1.64299e-06 3.28022e-05 9.52781e-05 4.30602e-06 
27 1 1.4792e-06 1.55e-05 7.08e-05 4.77e-06 
2 1 1.90036e-06 3.59e-05 9.2e-05 1.06e-05 
39 1 1.72573e-06 2.15e-05 6.45e-05 1.6e-05 
52 1 1.49735e-06 3.24157e-05 9.37908e-05 4.58122e-06 
9 1 1.79763e-06 2.88e-05 7.62e-05 2.56e-05 
40 1 1.52028e-06 1.35e-05 6.41e-05 2.76e-05 
44 1 1.76682e-06 8.28e-06 6.91e-05 2.8e-05 
33 1 1.9209e-06 2.85e-05 5.6e-05 2.96e-05 
46 1 1.64299e-06 4.82022e-05 5.95781e-05 3.0656e-05 
4 1 1.9209e-06 1.85e-05 7.22e-05 3.11e-05 
10 1 1.90036e-06 4.08e-05 8.87e-05 3.11e-05 
49 1 1.46892e-06 2.11e-05 7.68e-05 3.41e-05 
5 1 1.71546e-06 9.54e-06 7.94e-05 3.6e-05 
13 1 1.74627e-06 5.11e-06 8.89e-05 3.67e-05 
48 1 1.57165e-06 1.75e-05 8.96e-05 3.79e-05 
53 1 1.49735e-06 4.78157e-05 5.80908e-05 3.09312e-05 
42 1 1.81818e-06 5.14e-05 1.43e-05 3.23e-06 
37 1 1.87981e-06 5.22e-05 1.75e-05 9.72e-06 
38 1 1.79763e-06 8.08e-05 3.53e-05 1.01e-05 
50 1 1.87981e-06 6.43e-05 4.01e-05 1.39e-05 
28 1 1.65382e-06 9.43e-05 1.67e-05 1.52e-05 
17 1 1.70518e-06 8.41e-05 1.29e-05 1.78e-05 
35 1 1.89008e-06 5.73e-05 5.08e-06 2.61e-05 
12 1 1.56137e-06 8.85e-05 2.35e-05 3.17e-05 
14 1 1.61273e-06 5.74e-05 4.43e-05 3.24e-05 
18 1 1.68464e-06 8.03e-05 4.35e-05 3.65e-05 
19 1 1.74627e-06 7.08e-05 1.93e-05 4e-05 
43 1 1.96199e-06 7.64e-05 1.76e-05 4.69e-05 
8 1 1.86954e-06 9.64e-05 4.39e-05 4.71e-05 
24 1 1.9209e-06 6.37e-05 9.58e-05 2.85e-06 
26 1 1.77709e-06 7.91e-05 5.54e-05 1.1e-05 
16 1 1.78736e-06 6.88e-05 5.25e-05 1.46e-05 
15 1 1.85927e-06 6.86e-05 8.04e-05 1.88e-05 
23 1 1.65382e-06 5.28e-05 8.47e-05 2.09e-05 
21 1 1.54083e-06 7.64e-05 8e-05 2.64e-05 
11 1 1.87981e-06 7.84e-05 6.88e-05 3.07e-05 
34 1 1.72573e-06 5.24e-05 5.67e-05 3.28e-05 
20 1 1.52028e-06 5.26e-05 9.73e-05 3.46e-05 
36 1 1.59219e-06 7.86e-05 9.52e-05 3.7e-05 
25 1 1.95172e-06 8.36e-05 7.49e-05 4.2e-05 
ITEM: TIMESTEP
600
ITEM: NUMBER OF ATOMS
54
ITEM: BOX BOUNDS ff ff ff
0.0000000000000000e+00 1.0000000000000000e-04
0.0000000000000000e+00 1.0000000000000000e-04
0.0000000000000000e+00 5.0000000000000002e-05
ITEM: ATOMS id type diameter x y z 
47 1 1.46651e-06 3.97e-05 4.63e-05 9.84e-06 
30 1 1.5388e-06 3.7e-05 4.68e-05 9.88e-06 
32 1 1.61109e-06 3.94e-05 4.8e-05 1.52e-05 
31 1 1.50782e-06 1.72e-05 3.44e-05 1.85e-05 
41 1 1.47683e-06 3.15e-06 2.11e-05 2.79e-05 
22 1 1.75568e-06 3.7e-05 3.8e-05 3.04e-05 
45 1 1.7247e-06 4.72e-05 6.1e-06 3.22e-05 
7 1 1.88994e-06 4.72e-05 2.19e-05 4.26e-05 
3 1 1.49749e-06 2.51e-05 2.69e-05 4.54e-05 
29 1 1.65184e-06 1.80022e-05 3.92781e-05 4.6356e-05 
51 1 1.50541e-06 1.76157e-05 3.77908e-05 4.66312e-05 
1 1 1.96223e-06 3.59e-05 7.51e-05 3.42e-06 
6 1 1.65184e-06 3.28022e-05 9.52781e-05 4.30602e-06 
27 1 1.48716e-06 1.55e-05 7.08e-05 4.77e-06 
2 1 1.91059e-06 3.59e-05 9.2e-05 1.06e-05 
39 1 1.73502e-06 2.15e-05 6.45e-05 1.6e-05 
52 1 1.50541e-06 3.24157e-05 9.37908e-05 4.58122e-06 
9 1 1.80732e-06 2.88e-05 7.62e-05 2.56e-05 
40 1 1.52847e-06 1.35e-05 6.41e-05 2.76e-05 
44 1 1.77633e-06 8.28e-06 6.91e-05 2.8e-05 
33 1 1.93125e-06 2.85e-05 5.6e-05 2.96e-05 
46 1 1.65184e-06 4.82022e-05 5.95781e-05 3.0656e-05 
4 1 1.93125e-06 1.85e-05 7.22e-05 3.11e-05 
10 1 1.91059e-06 4.08e-05 8.87e-05 3.11e-05 
49 1 1.47683e-06 2.11e-05 7.68e-05 3.41e-05 
5 1 1.7247e-06 9.54e-06 7.94e-05 3.6e-05 
13 1 1.75568e-06 5.11e-06 8.89e-05 3.67e-05 
48 1 1.58011e-06 1.75e-05 8.96e-05 3.79e-05 
53 1 1.50541e-06 4.78157e-05 5.80908e-05 3.09312e-05 
42 1 1.82797e-06 5.14e-05 1.43e-05 3.23e-06 
37 1 1.88994e-06 5.22e-05 1.75e-05 9.72e-06 
38 1 1.80732e-06 8.08e-05 3.53e-05 1.01e-05 
50 1 1.88994e-06 6.43e-05 4.01e-05 1.39e-05 
28 1 1.66273e-06 9.43e-05 1.67e-05 1.52e-05 
17 1 1.71437e-06 8.41e-05 1.29e-05 1.78e-05 
35 1 1.90026e-06 5.73e-05 5.08e-06 2.61e-05 
12 1 1.56978e-06 8.85e-05 2.35e-05 3.17e-05 
14 1 1.62142e-06 5.74e-05 4.43e-05 3.24e-05 
18 1 1.69371e-06 8.03e-05 4.35e-05 3.65e-05 
19 1 1.75568e-06 7.08e-05 1.93e-05 4e-05 
43 1 1.63472e-06 7.66023e-05 1.83784e-05 4.6756e-05 
8 1 1.87961e-06 9.64e-05 4.39e-05 4.71e-05 
54 1 1.48981e-06 7.62156e-05 1.68906e-05 4.70313e-05 
24 1 1.93125e-06 6.37e-05 9.58e-05 2.85e-06 
26 1 1.78666e-06 7.91e-05 5.54e-05 1.1e-05 
16 1 1.79699e-06 6.88e-05 5.25e-05 1.46e-05 
15 1 1.86928e-06 6.86e-05 8.04e-05 1.88e-05 
23 1 1.66273e-06 5.28e-05 8.47e-05 2.09e-05 
21 1 1.54913e-06 7.64e-05 8e-05 2.64e-05 
11 1 1.88994e-06 7.84e-05 6.88e-05 3.07e-05 
34 1 1.73502e-06 5.24e-05 5.67e-05 3.28e-05 
20 1 1.52847e-06 5.26e-05 9.73e-05 3.46e-05 
36 1 1.60077e-06 7.86e-05 9.52e-05 3.7e-05 
25 1 1.96223e-06 8.36e-05 7.49e-05 4.2e-05 
ITEM: TIMESTEP
700
ITEM: NUMBER OF ATOMS
56
ITEM: BOX BOUNDS ff ff ff
0.0000000000000000e+00 1.0000000000000000e-04
0.0000000000000000e+00 1.0000000000000000e-04
0.0000000000000000e+00 5.0000000000000002e-05
ITEM: ATOMS id type diameter x y z 
47 1 1.47441e-06 3.97e-05 4.63e-05 9.84e-06 
30 1 1.54709e-06 3.7e-05 4.68e-05 9.88e-06 
32 1 1.61977e-06 3.94e-05 4.8e-05 1.52e-05 
31 1 1.51594e-06 1.72e-05 3.44e-05 1.85e-05 
41 1 1.48479e-06 3.15e-06 2.11e-05 2.79e-05 
22 1 1.76513e-06 3.7e-05 3.8e-05 3.04e-05 
45 1 1.73398e-06 4.72e-05 6.1e-06 3.22e-05 
7 1 1.90011e-06 4.72e-05 2.19e-05 4.26e-05 
3 1 1.50555e-06 2.51e-05 2.69e-05 4.54e-05 
29 1 1.66073e-06 1.80022e-05 3.92781e-05 4.6356e-05 
51 1 1.51352e-06 1.76157e-05 3.77908e-05 4.66312e-05 
1 1 1.57211e-06 3.64818e-05 7.45852e-05 3.53809e-06 
6 1 1.66073e-06 3.28022e-05 9.52781e-05 4.30602e-06 
27 1 1.49517e-06 1.55e-05 7.08e-05 4.77e-06 
2 1 1.92088e-06 3.59e-05 9.2e-05 1.06e-05 
39 1 1.74437e-06 2.15e-05 6.45e-05 1.6e-05 
52 1 1.51352e-06 3.24157e-05 9.37908e-05 4.58122e-06 
55 1 1.55946e-06 3.53229e-05 7.56106e-05 3.30286e-06 
9 1 1.81705e-06 2.88e-05 7.62e-05 2.56e-05 
40 1 1.5367e-06 1.35e-05 6.41e-05 2.76e-05 
44 1 1.7859e-06 8.28e-06 6.91e-05 2.8e-05 
33 1 1.94165e-06 2.85e-05 5.6e-05 2.96e-05 
46 1 1.66073e-06 4.82022e-05 5.95781e-05 3.0656e-05 
4 1 1.94165e-06 1.85e-05 7.22e-05 3.11e-05 
10 1 1.92088e-06 4.08e-05 8.87e-05 3.11e-05 
49 1 1.48479e-06 2.11e-05 7.68e-05 3.41e-05 
5 1 1.73398e-06 9.54e-06 7.94e-05 3.6e-05 
13 1 1.76513e-06 5.11e-06 8.89e-05 3.67e-05 
48 1 1.58862e-06 1.75e-05 8.96e-05 3.79e-05 
53 1 1.51352e-06 4.78157e-05 5.80908e-05 3.09312e-05 
42 1 1.83781e-06 5.14e-05 1.43e-05 3.23e-06 
37 1 1.90011e-06 5.22e-05 1.75e-05 9.72e-06 
38 1 1.81705e-06 8.08e-05 3.53e-05 1.01e-05 
50 1 1.90011e-06 6.43e-05 4.01e-05 1.39e-05 
28 1 1.67168e-06 9.43e-05 1.67e-05 1.52e-05 
17 1 1.7236e-06 8.41e-05 1.29e-05 1.78e-05 
35 1 1.9105e-06 5.73e-05 5.08e-06 2.61e-05 
12 1 1.57824e-06 8.85e-05 2.35e-05 3.17e-05 
14 1 1.63015e-06 5.74e-05 4.43e-05 3.24e-05 
18 1 1.70283e-06 8.03e-05 4.35e-05 3.65e-05 
19 1 1.76513e-06 7.08e-05 1.93e-05 4e-05 
43 1 1.64352e-06 7.66023e-05 1.83784e-05 4.6756e-05 
8 1 1.88973e-06 9.64e-05 4.39e-05 4.71e-05 
54 1 1.49783e-06 7.62156e-05 1.68906e-05 4.70313e-05 
24 1 1.94165e-06 6.37e-05 9.58e-05 2.85e-06 
26 1 1.79628e-06 7.91e-05 5.54e-05 1.1e-05 
16 1 1.80667e-06 6.88e-05 5.25e-05 1.46e-05 
15 1 1.87935e-06 6.86e-05 8.04e-05 1.88e-05 
23 1 1.67168e-06 5.28e-05 8.47e-05 2.09e-05 
21 1 1.55747e-06 7.64e-05 8e-05 2.64e-05 
11 1 1.90011e-06 7.84e-05 6.88e-05 3.07e-05 
34 1 1.74437e-06 5.24e-05 5.67e-05 3.28e-05 
20 1 1.5367e-06 5.26e-05 9.73e-05 3.46e-05 
36 1 1.60939e-06 7.86e-05 9.52e-05 3.7e-05 
25 1 1.63492e-06 8.38023e-05 7.56785e-05 4.1856e-05 
56 1 1.48999e-06 8.34156e-05 7.41905e-05 4.21313e-05 
ITEM: TIMESTEP
800
ITEM: NUMBER OF ATOMS
56
ITEM: BOX BOUNDS ff ff ff
0.0000000000000000e+00 1.0000000000000000e-04
0.0000000000000000e+00 1.0000000000000000e-04
0.0000000000000000e+00 5.0000000000000002e-05
ITEM: ATOMS id type diameter x y z 
47 1 1.48235e-06 3.97e-05 4.63e-05 9.84e-06 
30 1 1.55542e-06 3.7e-05 4.68e-05 9.88e-06 
32 1 1.62849e-06 3.94e-05 4.8e-05 1.52e-05 
31 1 1.5241e-06 1.72e-05 3.44e-05 1.85e-05 
41 1 1.49278e-06 3.15e-06 2.11e-05 2.79e-05 
22 1 1.77464e-06 3.7e-05 3.8e-05 3.04e-05 
45 1 1.74332e-06 4.72e-05 6.1e-06 3.22e-05 
7 1 1.91035e-06 4.72e-05 2.19e-05 4.26e-05 
3 1 1.51366e-06 2.51e-05 2.69e-05 4.54e-05 
29 1 1.66968e-06 1.80072e-05 3.92972e-05 4.63525e-05 
51 1 1.52167e-06 1.76107e-05 3.77718e-05 4.66347e-05 
1 1 1.58058e-06 3.64818e-05 7.45852e-05 3.53809e-06 
6 1 1.66968e-06 3.28072e-05 9.52972e-05 4.30249e-06 
27 1 1.50322e-06 1.55e-05 7.08e-05 4.77e-06 
2 1 1.93123e-06 3.59e-05 9.2e-05 1.06e-05 
39 1 1.75376e-06 2.15e-05 6.45e-05 1.6e-05 
52 1 1.52167e-06 3.24107e-05 9.37718e-05 4.58475e-06 
55 1 1.56785e-06 3.53229e-05 7.56106e-05 3.30286e-06 
9 1 1.82683e-06 2.88e-05 7.62e-05 2.56e-05 
40 1 1.54498e-06 1.35e-05 6.41e-05 2.76e-05 
44 1 1.79552e-06 8.28e-06 6.91e-05 2.8e-05 
33 1 1.9521e-06 2.85e-05 5.6e-05 2.96e-05 
46 1 1.66968e-06 4.82072e-05 5.95972e-05 3.06525e-05 
4 1 1.9521e-06 1.85e-05 7.22e-05 3.11e-05 
10 1 1.93123e-06 4.08e-05 8.87e-05 3.11e-05 
49 1 1.49278e-06 2.11e-05 7.68e-05 3.41e-05 
5 1 1.74332e-06 9.54e-06 7.94e-05 3.6e-05 
13 1 1.77464e-06 5.11e-06 8.89e-05 3.67e-05 
48 1 1.59718e-06 1.75e-05 8.96e-05 3.79e-05 
53 1 1.52167e-06 4.78107e-05 5.80718e-05 3.09347e-05 
42 1 1.84771e-06 5.14e-05 1.43e-05 3.23e-06 
37 1 1.91035e-06 5.22e-05 1.75e-05 9.72e-06 
38 1 1.82683e-06 8.08e-05 3.53e-05 1.01e-05 
50 1 1.91035e-06 6.43e-05 4.01e-05 1.39e-05 
28 1 1.68069e-06 9.43e-05 1.67e-05 1.52e-05 
17 1 1.73288e-06 8.41e-05 1.29e-05 1.78e-05 
35 1 1.92079e-06 5.73e-05 5.08e-06 2.61e-05 
12 1 1.58674e-06 8.85e-05 2.35e-05 3.17e-05 
14 1 1.63893e-06 5.74e-05 4.43e-05 3.24e-05 
18 1 1.71201e-06 8.03e-05 4.35e-05 3.65e-05 
19 1 1.77464e-06 7.08e-05 1.93e-05 4e-05 
43 1 1.65237e-06 7.66023e-05 1.83784e-05 4.6756e-05 
8 1 1.89991e-06 9.64e-05 4.39e-05 4.71e-05 
54 1 1.5059e-06 7.62156e-05 1.68906e-05 4.70313e-05 
24 1 1.9521e-06 6.37e-05 9.58e-05 2.85e-06 
26 1 1.80596e-06 7.91e-05 5.54e-05 1.1e-05 
16 1 1.8164e-06 6.88e-05 5.25e-05 1.46e-05 
15 1 1.88947e-06 6.86e-05 8.04e-05 1.88e-05 
23 1 1.68069e-06 5.28e-05 8.47e-05 2.09e-05 
21 1 1.56586e-06 7.64e-05 8e-05 2.64e-05 
11 1 1.91035e-06 7.84e-05 6.88e-05 3.07e-05 
34 1 1.75376e-06 5.24e-05 5.67e-05 3.28e-05 
20 1 1.54498e-06 5.26e-05 9.73e-05 3.46e-05 
36 1 1.61805e-06 7.86e-05 9.52e-05 3.7e-05 
25 1 1.64372e-06 8.38023e-05 7.56785e-05 4.1856e-05 
56 1 1.49802e-06 8.34156e-05 7.41905e-05 4.21313e-05 
ITEM: TIMESTEP
900
ITEM: NUMBER OF ATOMS
56
ITEM: BOX BOUNDS ff ff ff
0.0000000000000000e+00 1.0000000000000000e-04
0.0000000000000000e+00 1.0000000000000000e-04
0.0000000000000000e+00 5.0000000000000002e-05
ITEM: ATOMS id type diameter x y z 
47 1 1.49033e-06 3.97e-05 4.63e-05 9.84e-06 
30 1 1.5638e-06 3.7e-05 4.68e-05 9.88e-06 
32 1 1.63726e-06 3.94e-05 4.8e-05 1.52e-05 
31 1 1.53231e-06 1.72e-05 3.44e-05 1.85e-05 
41 1 1.50082e-06 3.15e-06 2.11e-05 2.79e-05 
22 1 1.7842e-06 3.7e-05 3.8e-05 3.04e-05 
45 1 1.75271e-06 4.72e-05 6.1e-06 3.22e-05 
7 1 1.92064e-06 4.72e-05 2.19e-05 4.26e-05 
3 1 1.52182e-06 2.51e-05 2.69e-05 4.54e-05 
29 1 1.67867e-06 1.80072e-05 3.92972e-05 4.63525e-05 
51 1 1.52987e-06 1.76107e-05 3.77718e-05 4.66347e-05 
1 1 1.58909e-06 3.64818e-05 7.45852e-05 3.53809e-06 
6 1 1.67867e-06 3.28072e-05 9.52972e-05 4.30249e-06 
27 1 1.51132e-06 1.55e-05 7.08e-05 4.77e-06 
2 1 1.94163e-06 3.59e-05 9.2e-05 1.06e-05 
39 1 1.76321e-06 2.15e-05 6.45e-05 1.6e-05 
52 1 1.52986e-06 3.24107e-05 9.37718e-05 4.58475e-06 
55 1 1.5763e-06 3.53229e-05 7.56106e-05 3.30286e-06 
9 1 1.83667e-06 2.88e-05 7.62e-05 2.56e-05 
40 1 1.5533e-06 1.35e-05 6.41e-05 2.76e-05 
44 1 1.80519e-06 8.28e-06 6.91e-05 2.8e-05 
33 1 1.96262e-06 2.85e-05 5.6e-05 2.96e-05 
46 1 1.67867e-06 4.82072e-05 5.95972e-05 3.06525e-05 
4 1 1.96262e-06 1.85e-05 7.22e-05 3.11e-05 
10 1 1.94163e-06 4.08e-05 8.87e-05 3.11e-05 
49 1 1.50082e-06 2.11e-05 7.68e-05 3.41e-05 
5 1 1.75271e-06 9.54e-06 7.94e-05 3.6e-05 
13 1 1.7842e-06 5.11e-06 8.89e-05 3.67e-05 
48 1 1.60578e-06 1.75e-05 8.96e-05 3.79e-05 
53 1 1.52986e-06 4.78107e-05 5.80718e-05 3.09347e-05 
42 1 1.85766e-06 5.14e-05 1.43e-05 3.23e-06 
37 1 1.92064e-06 5.22e-05 1.75e-05 9.72e-06 
38 1 1.83667e-06 8.08e-05 3.53e-05 1.01e-05 
50 1 1.92064e-06 6.43e-05 4.01e-05 1.39e-05 
28 1 1.68974e-06 9.43e-05 1.67e-05 1.52e-05 
17 1 1.74222e-06 8.41e-05 1.29e-05 1.78e-05 
35 1 1.93113e-06 5.73e-05 5.08e-06 2.61e-05 
12 1 1.59528e-06 8.85e-05 2.35e-05 3.17e-05 
14 1 1.64776e-06 5.74e-05 4.43e-05 3.24e-05 
18 1 1.72123e-06 8.03e-05 4.35e-05 3.65e-05 
19 1 1.7842e-06 7.08e-05 1.93e-05 4e-05 
43 1 1.66127e-06 7.66023e-05 1.83784e-05 4.6756e-05 
8 1 1.91014e-06 9.64e-05 4.39e-05 4.71e-05 
54 1 1.51401e-06 7.62156e-05 1.68906e-05 4.70313e-05 
24 1 1.96262e-06 6.37e-05 9.58e-05 2.85e-06 
26 1 1.81568e-06 7.91e-05 5.54e-05 1.1e-05 
16 1 1.82618e-06 6.88e-05 5.25e-05 1.46e-05 
15 1 1.89964e-06 6.86e-05 8.04e-05 1.88e-05 
23 1 1.68974e-06 5.28e-05 8.47e-05 2.09e-05 
21 1 1.57429e-06 7.64e-05 8e-05 2.64e-05 
11 1 1.92064e-06 7.84e-05 6.88e-05 3.07e-05 
34 1 1.76321e-06 5.24e-05 5.67e-05 3.28e-05 
20 1 1.5533e-06 5.26e-05 9.73e-05 3.46e-05 
36 1 1.62677e-06 7.86e-05 9.52e-05 3.7e-05 
25 1 1.65258e-06 8.38023e-05 7.56785e-05 4.1856e-05 
56 1 1.50608e-06 8.34156e-05 7.41905e-05 4.21313e-05 
ITEM: TIMESTEP
1000
ITEM: NUMBER OF ATOMS
59
ITEM: BOX BOUNDS ff ff ff
0.0000000000000000e+00 1.0000000000000000e-04
0.0000000000000000e+00 1.0000000000000000e-04
0.0000000000000000e+00 5.0000000000000002e-05
ITEM: ATOMS id type diameter x y z 
47 1 1.49836e-06 3.97e-05 4.63e-05 9.84e-06 
30 1 1.57222e-06 3.7e-05 4.68e-05 9.88e-06 
32 1 1.64608e-06 3.94e-05 4.8e-05 1.52e-05 
31 1 1.54056e-06 1.72e-05 3.44e-05 1.85e-05 
41 1 1.50891e-06 3.15e-06 2.11e-05 2.79e-05 
22 1 1.79381e-06 3.7e-05 3.8e-05 3.04e-05 
45 1 1.76215e-06 4.72e-05 6.1e-06 3.22e-05 
7 1 1.93098e-06 4.72e-05 2.19e-05 4.26e-05 
3 1 1.53001e-06 2.51e-05 2.69e-05 4.54e-05 
29 1 1.68771e-06 1.80072e-05 3.92972e-05 4.63525e-05 
51 1 1.5381e-06 1.76107e-05 3.77718e-05 4.66347e-05 
55 1 1.58479e-06 3.53229e-05 7.56106e-05 3.30286e-06 
1 1 1.59765e-06 3.64818e-05 7.45852e-05 3.53809e-06 
6 1 1.68771e-06 3.28072e-05 9.52972e-05 4.30249e-06 
27 1 1.51946e-06 1.55e-05 7.08e-05 4.77e-06 
52 1 1.5381e-06 3.24107e-05 9.37718e-05 4.58475e-06 
2 1 1.95208e-06 3.59e-05 9.2e-05 1.06e-05 
39 1 1.7727e-06 2.15e-05 6.45e-05 1.6e-05 
9 1 1.84656e-06 2.88e-05 7.62e-05 2.56e-05 
40 1 1.56167e-06 1.35e-05 6.41e-05 2.76e-05 
44 1 1.81491e-06 8.28e-06 6.91e-05 2.8e-05 
57 1 1.55976e-06 2.79228e-05 5.65107e-05 2.94828e-05 
33 1 1.57242e-06 2.90819e-05 5.54851e-05 2.97181e-05 
53 1 1.5381e-06 4.78107e-05 5.80718e-05 3.09347e-05 
46 1 1.68771e-06 4.82072e-05 5.95972e-05 3.06525e-05 
58 1 1.57835e-06 1.88481e-05 7.27642e-05 3.06724e-05 
10 1 1.95208e-06 4.08e-05 8.87e-05 3.11e-05 
4 1 1.5537e-06 1.81573e-05 7.16446e-05 3.15209e-05 
49 1 1.50891e-06 2.11e-05 7.68e-05 3.41e-05 
5 1 1.76215e-06 9.54e-06 7.94e-05 3.6e-05 
13 1 1.79381e-06 5.11e-06 8.89e-05 3.67e-05 
48 1 1.61443e-06 1.75e-05 8.96e-05 3.79e-05 
42 1 1.86767e-06 5.14e-05 1.43e-05 3.23e-06 
37 1 1.93098e-06 5.22e-05 1.75e-05 9.72e-06 
38 1 1.84656e-06 8.08e-05 3.53e-05 1.01e-05 
50 1 1.93098e-06 6.43e-05 4.01e-05 1.39e-05 
28 1 1.69884e-06 9.43e-05 1.67e-05 1.52e-05 
17 1 1.7516e-06 8.41e-05 1.29e-05 1.78e-05 
35 1 1.94153e-06 5.73e-05 5.08e-06 2.61e-05 
12 1 1.60387e-06 8.85e-05 2.35e-05 3.17e-05 
14 1 1.65663e-06 5.74e-05 4.43e-05 3.24e-05 
18 1 1.73049e-06 8.03e-05 4.35e-05 3.65e-05 
19 1 1.79381e-06 7.08e-05 1.93e-05 4e-05 
43 1 1.67022e-06 7.66073e-05 1.83974e-05 4.67524e-05 
54 1 1.52217e-06 7.62107e-05 1.68716e-05 4.70348e-05 
8 1 1.92043e-06 9.64e-05 4.39e-05 4.71e-05 
59 1 1.49029e-06 6.35156e-05 9.50904e-05 2.9813e-06 
24 1 1.63524e-06 6.39024e-05 9.65786e-05 2.70592e-06 
26 1 1.82546e-06 7.91e-05 5.54e-05 1.1e-05 
16 1 1.83601e-06 6.88e-05 5.25e-05 1.46e-05 
15 1 1.90988e-06 6.86e-05 8.04e-05 1.88e-05 
23 1 1.69884e-06 5.28e-05 8.47e-05 2.09e-05 
21 1 1.58277e-06 7.64e-05 8e-05 2.64e-05 
11 1 1.93098e-06 7.84e-05 6.88e-05 3.07e-05 
34 1 1.7727e-06 5.24e-05 5.67e-05 3.28e-05 
20 1 1.56167e-06 5.26e-05 9.73e-05 3.46e-05 
36 1 1.63553e-06 7.86e-05 9.52e-05 3.7e-05 
25 1 1.66148e-06 8.38023e-05 7.56785e-05 4.1856e-05 
56 1 1.5142e-06 8.34156e-05 7.41905e-05 4.21313e-05 
ITEM: TIMESTEP
1100
ITEM: NUMBER OF ATOMS
59
ITEM: BOX BOUNDS ff ff ff
0.0000000000000000e+00 1.0000000000000000e-04
0.0000000000000000e+00 1.0000000000000000e-04
0.0000000000000000e+00 5.0000000000000002e-05
ITEM: ATOMS id type diameter x y z 
47 1 1.50642e-06 3.97e-05 4.63e-05 9.84e-06 
30 1 1.58069e-06 3.7e-05 4.68e-05 9.88e-06 
32 1 1.65495e-06 3.94e-05 4.8e-05 1.52e-05 
31 1 1.54886e-06 1.72e-05 3.44e-05 1.85e-05 
41 1 1.51703e-06 3.15e-06 2.11e-05 2.79e-05 
22 1 1.80347e-06 3.7e-05 3.8e-05 3.04e-05 
45 1 1.77164e-06 4.72e-05 6.1e-06 3.22e-05 
7 1 1.94138e-06 4.72e-05 2.19e-05 4.26e-05 
3 1 1.53825e-06 2.51e-05 2.69e-05 4.54e-05 
29 1 1.6968e-06 1.80072e-05 3.92972e-05 4.63525e-05 
51 1 1.54639e-06 1.76107e-05 3.77718e-05 4.66347e-05 