ITEM: TIMESTEP
0
ITEM: NUMBER OF ATOMS
50
ITEM: BOX BOUNDS ff ff ff
0.0000000000000000e+00 1.0000000000000000e-04
0.0000000000000000e+00 1.0000000000000000e-04
0.0000000000000000e+00 5.0000000000000002e-05
ITEM: ATOMS id type diameter x y z 
47 1 1.45e-06 1.45e-05 4.42e-05 2.61e-06 
43 1 1.46e-06 2.97e-05 1.18e-05 7.7e-06 
29 1 1.7e-06 4.83e-05 1.33e-05 9.28e-06 
15 1 1.47e-06 1.05e-05 4.68e-05 1.08e-05 
18 1 1.56e-06 3.45e-05 4.04e-05 1.3e-05 
23 1 1.45e-06 2.93e-05 7.6e-06 1.66e-05 
50 1 1.64e-06 9.49e-06 2.1e-05 1.98e-05 
45 1 1.48e-06 5.13e-06 2.27e-05 2.51e-05 
40 1 1.59e-06 3.35e-05 1.04e-05 2.96e-05 
27 1 1.62e-06 1.16e-05 3.62e-05 3.29e-05 
34 1 1.58e-06 4.32e-05 3.14e-05 3.63e-05 
30 1 1.9e-06 4.58e-05 2.42e-05 4.1e-05 
35 1 1.47e-06 3.35e-05 4.97e-05 4.1e-05 
36 1 1.87e-06 2.27e-05 4.27e-05 4.61e-05 
39 1 1.38e-06 1.71e-05 5.64e-05 1.55e-06 
32 1 1.64e-06 4.53e-05 5.89e-05 4.58e-06 
49 1 1.56e-06 2.59e-05 7.58e-05 6.11e-06 
3 1 1.38e-06 2.64e-05 5.04e-05 1.24e-05 
22 1 1.54e-06 2.74e-06 6.21e-05 1.43e-05 
1 1 1.92e-06 4.1e-05 5.33e-05 1.46e-05 
41 1 1.46e-06 2.71e-05 7e-05 2.16e-05 
20 1 1.65e-06 4.61e-05 6.12e-05 2.77e-05 
48 1 1.57e-06 3.77e-06 7.83e-05 2.85e-05 
33 1 1.52e-06 3.67e-05 8.36e-05 3.18e-05 
46 1 1.38e-06 4.17e-05 7.72e-05 3.32e-05 
16 1 1.82e-06 2.54e-05 8.13e-05 3.35e-05 
25 1 1.38e-06 4.22e-05 7.29e-05 4.12e-05 
4 1 1.61e-06 1.45e-05 5.16e-05 4.25e-05 
13 1 1.42e-06 6.84e-05 3.87e-05 4.76e-06 
24 1 1.4e-06 9.71e-05 3.37e-05 2.03e-05 
42 1 1.68e-06 5.81e-05 3.55e-05 2.01e-05 
7 1 1.5e-06 8.37e-05 8.01e-06 2.11e-05 
6 1 1.44e-06 8.25e-05 2.69e-05 2.95e-05 
12 1 1.45e-06 9.24e-05 4.82e-05 3.35e-05 
2 1 1.45e-06 8.23e-05 4.51e-05 3.61e-05 
10 1 1.61e-06 7.84e-05 1.46e-05 3.73e-05 
31 1 1.41e-06 9.36e-05 4.97e-05 4.61e-05 
11 1 1.42e-06 7.13e-05 3.29e-05 4.66e-05 
38 1 1.92e-06 9.16e-05 8.03e-05 4.8e-06 
8 1 1.76e-06 8.15e-05 5.97e-05 7.4e-06 
19 1 1.39e-06 5.43e-05 8.41e-05 7.92e-06 
37 1 1.77e-06 8.08e-05 9.01e-05 1.13e-05 
9 1 1.53e-06 5.61e-05 8.05e-05 1.45e-05 
14 1 1.9e-06 9.13e-05 8.37e-05 2.35e-05 
26 1 1.88e-06 7.59e-05 6.9e-05 3.02e-05 
28 1 1.9e-06 6.44e-05 5.5e-05 3.65e-05 
44 1 1.47e-06 8.1e-05 5.68e-05 3.82e-05 
17 1 1.64e-06 9.67e-05 7.09e-05 4.02e-05 
21 1 1.55e-06 9.17e-05 8.99e-05 4.04e-05 
5 1 1.61e-06 5.17e-05 9.22e-05 4.8e-05 
ITEM: TIMESTEP
100
ITEM: NUMBER OF ATOMS
50
ITEM: BOX BOUNDS ff ff ff
0.0000000000000000e+00 1.0000000000000000e-04
0.0000000000000000e+00 1.0000000000000000e-04
0.0000000000000000e+00 5.0000000000000002e-05
ITEM: ATOMS id type diameter x y z 
47 1 1.4582e-06 1.45e-05 4.42e-05 2.61e-06 
43 1 1.46825e-06 2.97e-05 1.18e-05 7.7e-06 
29 1 1.70961e-06 4.83e-05 1.33e-05 9.28e-06 
15 1 1.47831e-06 1.05e-05 4.68e-05 1.08e-05 
18 1 1.56882e-06 3.45e-05 4.04e-05 1.3e-05 
23 1 1.4582e-06 2.93e-05 7.6e-06 1.66e-05 
50 1 1.64927e-06 9.49e-06 2.1e-05 1.98e-05 
45 1 1.48837e-06 5.13e-06 2.27e-05 2.51e-05 
40 1 1.59899e-06 3.35e-05 1.04e-05 2.96e-05 
27 1 1.62916e-06 1.16e-05 3.62e-05 3.29e-05 
34 1 1.58893e-06 4.32e-05 3.14e-05 3.63e-05 
30 1 1.91074e-06 4.58e-05 2.42e-05 4.1e-05 
35 1 1.47831e-06 3.35e-05 4.97e-05 4.1e-05 
36 1 1.88057e-06 2.27e-05 4.27e-05 4.61e-05 
39 1 1.3878e-06 1.71e-05 5.64e-05 1.55e-06 
32 1 1.64927e-06 4.53e-05 5.89e-05 4.58e-06 
49 1 1.56882e-06 2.59e-05 7.58e-05 6.11e-06 
3 1 1.3878e-06 2.64e-05 5.04e-05 1.24e-05 
22 1 1.54871e-06 2.74e-06 6.21e-05 1.43e-05 
1 1 1.93085e-06 4.1e-05 5.33e-05 1.46e-05 
41 1 1.46825e-06 2.71e-05 7e-05 2.16e-05 
20 1 1.65933e-06 4.61e-05 6.12e-05 2.77e-05 
48 1 1.57888e-06 3.77e-06 7.83e-05 2.85e-05 
33 1 1.52859e-06 3.67e-05 8.36e-05 3.18e-05 
46 1 1.3878e-06 4.17e-05 7.72e-05 3.32e-05 
16 1 1.83029e-06 2.54e-05 8.13e-05 3.35e-05 
25 1 1.3878e-06 4.22e-05 7.29e-05 4.12e-05 
4 1 1.6191e-06 1.45e-05 5.16e-05 4.25e-05 
13 1 1.42803e-06 6.84e-05 3.87e-05 4.76e-06 
24 1 1.40791e-06 9.71e-05 3.37e-05 2.03e-05 
42 1 1.6895e-06 5.81e-05 3.55e-05 2.01e-05 
7 1 1.50848e-06 8.37e-05 8.01e-06 2.11e-05 
6 1 1.44814e-06 8.25e-05 2.69e-05 2.95e-05 
12 1 1.4582e-06 9.24e-05 4.82e-05 3.35e-05 
2 1 1.4582e-06 8.23e-05 4.51e-05 3.61e-05 
10 1 1.6191e-06 7.84e-05 1.46e-05 3.73e-05 
31 1 1.41797e-06 9.36e-05 4.97e-05 4.61e-05 
11 1 1.42803e-06 7.13e-05 3.29e-05 4.66e-05 
38 1 1.93085e-06 9.16e-05 8.03e-05 4.8e-06 
8 1 1.76995e-06 8.15e-05 5.97e-05 7.4e-06 
19 1 1.39786e-06 5.43e-05 8.41e-05 7.92e-06 
37 1 1.78001e-06 8.08e-05 9.01e-05 1.13e-05 
9 1 1.53865e-06 5.61e-05 8.05e-05 1.45e-05 
14 1 1.91074e-06 9.13e-05 8.37e-05 2.35e-05 
26 1 1.89063e-06 7.59e-05 6.9e-05 3.02e-05 
28 1 1.91074e-06 6.44e-05 5.5e-05 3.65e-05 
44 1 1.47831e-06 8.1e-05 5.68e-05 3.82e-05 
17 1 1.64927e-06 9.67e-05 7.09e-05 4.02e-05 
21 1 1.55876e-06 9.17e-05 8.99e-05 4.04e-05 
5 1 1.6191e-06 5.17e-05 9.22e-05 4.8e-05 
ITEM: TIMESTEP
200
ITEM: NUMBER OF ATOMS
50
ITEM: BOX BOUNDS ff ff ff
0.0000000000000000e+00 1.0000000000000000e-04
0.0000000000000000e+00 1.0000000000000000e-04
0.0000000000000000e+00 5.0000000000000002e-05
ITEM: ATOMS id type diameter x y z 
47 1 1.46644e-06 1.45e-05 4.42e-05 2.61e-06 
43 1 1.47655e-06 2.97e-05 1.18e-05 7.7e-06 
29 1 1.71928e-06 4.83e-05 1.33e-05 9.28e-06 
15 1 1.48667e-06 1.05e-05 4.68e-05 1.08e-05 
18 1 1.57769e-06 3.45e-05 4.04e-05 1.3e-05 
23 1 1.46644e-06 2.93e-05 7.6e-06 1.66e-05 
50 1 1.6586e-06 9.49e-06 2.1e-05 1.98e-05 
45 1 1.49678e-06 5.13e-06 2.27e-05 2.51e-05 
40 1 1.60803e-06 3.35e-05 1.04e-05 2.96e-05 
27 1 1.63837e-06 1.16e-05 3.62e-05 3.29e-05 
34 1 1.59792e-06 4.32e-05 3.14e-05 3.63e-05 
30 1 1.92154e-06 4.58e-05 2.42e-05 4.1e-05 
35 1 1.48667e-06 3.35e-05 4.97e-05 4.1e-05 
36 1 1.8912e-06 2.27e-05 4.27e-05 4.61e-05 
39 1 1.39565e-06 1.71e-05 5.64e-05 1.55e-06 
32 1 1.6586e-06 4.53e-05 5.89e-05 4.58e-06 
49 1 1.57769e-06 2.59e-05 7.58e-05 6.11e-06 
3 1 1.39565e-06 2.64e-05 5.04e-05 1.24e-05 
22 1 1.55746e-06 2.74e-06 6.21e-05 1.43e-05 
1 1 1.94177e-06 4.1e-05 5.33e-05 1.46e-05 
41 1 1.47655e-06 2.71e-05 7e-05 2.16e-05 
20 1 1.66871e-06 4.61e-05 6.12e-05 2.77e-05 
48 1 1.5878e-06 3.77e-06 7.83e-05 2.85e-05 
33 1 1.53723e-06 3.67e-05 8.36e-05 3.18e-05 
46 1 1.39565e-06 4.17e-05 7.72e-05 3.32e-05 
16 1 1.84064e-06 2.54e-05 8.13e-05 3.35e-05 
25 1 1.39565e-06 4.22e-05 7.29e-05 4.12e-05 
4 1 1.62826e-06 1.45e-05 5.16e-05 4.25e-05 
13 1 1.4361e-06 6.84e-05 3.87e-05 4.76e-06 
24 1 1.41587e-06 9.71e-05 3.37e-05 2.03e-05 
42 1 1.69905e-06 5.81e-05 3.55e-05 2.01e-05 
7 1 1.51701e-06 8.37e-05 8.01e-06 2.11e-05 
6 1 1.45633e-06 8.25e-05 2.69e-05 2.95e-05 
12 1 1.46644e-06 9.24e-05 4.82e-05 3.35e-05 
2 1 1.46644e-06 8.23e-05 4.51e-05 3.61e-05 
10 1 1.62826e-06 7.84e-05 1.46e-05 3.73e-05 
31 1 1.42599e-06 9.36e-05 4.97e-05 4.61e-05 
11 1 1.4361e-06 7.13e-05 3.29e-05 4.66e-05 
38 1 1.94177e-06 9.16e-05 8.03e-05 4.8e-06 
8 1 1.77996e-06 8.15e-05 5.97e-05 7.4e-06 
19 1 1.40576e-06 5.43e-05 8.41e-05 7.92e-06 
37 1 1.79007e-06 8.08e-05 9.01e-05 1.13e-05 
9 1 1.54735e-06 5.61e-05 8.05e-05 1.45e-05 
14 1 1.92154e-06 9.13e-05 8.37e-05 2.35e-05 
26 1 1.90132e-06 7.59e-05 6.9e-05 3.02e-05 
28 1 1.92154e-06 6.44e-05 5.5e-05 3.65e-05 
44 1 1.48667e-06 8.1e-05 5.68e-05 3.82e-05 
17 1 1.6586e-06 9.67e-05 7.09e-05 4.02e-05 
21 1 1.56757e-06 9.17e-05 8.99e-05 4.04e-05 
5 1 1.62826e-06 5.17e-05 9.22e-05 4.8e-05 
ITEM: TIMESTEP
300
ITEM: NUMBER OF ATOMS
50
ITEM: BOX BOUNDS ff ff ff
0.0000000000000000e+00 1.0000000000000000e-04
0.0000000000000000e+00 1.0000000000000000e-04
0.0000000000000000e+00 5.0000000000000002e-05
ITEM: ATOMS id type diameter x y z 
47 1 1.47473e-06 1.45e-05 4.42e-05 2.61e-06 
43 1 1.4849e-06 2.97e-05 1.18e-05 7.7e-06 
29 1 1.729e-06 4.83e-05 1.33e-05 9.28e-06 
15 1 1.49507e-06 1.05e-05 4.68e-05 1.08e-05 
18 1 1.58661e-06 3.45e-05 4.04e-05 1.3e-05 
23 1 1.47473e-06 2.93e-05 7.6e-06 1.66e-05 
50 1 1.66797e-06 9.49e-06 2.1e-05 1.98e-05 
45 1 1.50524e-06 5.13e-06 2.27e-05 2.51e-05 
40 1 1.61712e-06 3.35e-05 1.04e-05 2.96e-05 
27 1 1.64763e-06 1.16e-05 3.62e-05 3.29e-05 
34 1 1.60695e-06 4.32e-05 3.14e-05 3.63e-05 
30 1 1.93241e-06 4.58e-05 2.42e-05 4.1e-05 
35 1 1.49507e-06 3.35e-05 4.97e-05 4.1e-05 
36 1 1.90189e-06 2.27e-05 4.27e-05 4.61e-05 
39 1 1.40354e-06 1.71e-05 5.64e-05 1.55e-06 
32 1 1.66797e-06 4.53e-05 5.89e-05 4.58e-06 
49 1 1.58661e-06 2.59e-05 7.58e-05 6.11e-06 
3 1 1.40354e-06 2.64e-05 5.04e-05 1.24e-05 
22 1 1.56627e-06 2.74e-06 6.21e-05 1.43e-05 
1 1 1.95275e-06 4.1e-05 5.33e-05 1.46e-05 
41 1 1.4849e-06 2.71e-05 7e-05 2.16e-05 
20 1 1.67814e-06 4.61e-05 6.12e-05 2.77e-05 
48 1 1.59678e-06 3.77e-06 7.83e-05 2.85e-05 
33 1 1.54593e-06 3.67e-05 8.36e-05 3.18e-05 
46 1 1.40354e-06 4.17e-05 7.72e-05 3.32e-05 
16 1 1.85104e-06 2.54e-05 8.13e-05 3.35e-05 
25 1 1.40354e-06 4.22e-05 7.29e-05 4.12e-05 
4 1 1.63746e-06 1.45e-05 5.16e-05 4.25e-05 
13 1 1.44422e-06 6.84e-05 3.87e-05 4.76e-06 
24 1 1.42388e-06 9.71e-05 3.37e-05 2.03e-05 
42 1 1.70865e-06 5.81e-05 3.55e-05 2.01e-05 
7 1 1.52558e-06 8.37e-05 8.01e-06 2.11e-05 
6 1 1.46456e-06 8.25e-05 2.69e-05 2.95e-05 
12 1 1.47473e-06 9.24e-05 4.82e-05 3.35e-05 
2 1 1.47473e-06 8.23e-05 4.51e-05 3.61e-05 
10 1 1.63746e-06 7.84e-05 1.46e-05 3.73e-05 
31 1 1.43405e-06 9.36e-05 4.97e-05 4.61e-05 
11 1 1.44422e-06 7.13e-05 3.29e-05 4.66e-05 
38 1 1.95275e-06 9.16e-05 8.03e-05 4.8e-06 
8 1 1.79002e-06 8.15e-05 5.97e-05 7.4e-06 
19 1 1.41371e-06 5.43e-05 8.41e-05 7.92e-06 
37 1 1.80019e-06 8.08e-05 9.01e-05 1.13e-05 
9 1 1.5561e-06 5.61e-05 8.05e-05 1.45e-05 
14 1 1.93241e-06 9.13e-05 8.37e-05 2.35e-05 
26 1 1.91207e-06 7.59e-05 6.9e-05 3.02e-05 
28 1 1.93241e-06 6.44e-05 5.5e-05 3.65e-05 
44 1 1.49507e-06 8.1e-05 5.68e-05 3.82e-05 
17 1 1.66797e-06 9.67e-05 7.09e-05 4.02e-05 
21 1 1.57644e-06 9.17e-05 8.99e-05 4.04e-05 
5 1 1.63746e-06 5.17e-05 9.22e-05 4.8e-05 
ITEM: TIMESTEP
400
ITEM: NUMBER OF ATOMS
50
ITEM: BOX BOUNDS ff ff ff
0.0000000000000000e+00 1.0000000000000000e-04
0.0000000000000000e+00 1.0000000000000000e-04
0.0000000000000000e+00 5.0000000000000002e-05
ITEM: ATOMS id type diameter x y z 
47 1 1.48307e-06 1.45e-05 4.42e-05 2.61e-06 
43 1 1.4933e-06 2.97e-05 1.18e-05 7.7e-06 
29 1 1.73877e-06 4.83e-05 1.33e-05 9.28e-06 
15 1 1.50352e-06 1.05e-05 4.68e-05 1.08e-05 
18 1 1.59558e-06 3.45e-05 4.04e-05 1.3e-05 
23 1 1.48307e-06 2.93e-05 7.6e-06 1.66e-05 
50 1 1.6774e-06 9.49e-06 2.1e-05 1.98e-05 
45 1 1.51375e-06 5.13e-06 2.27e-05 2.51e-05 
40 1 1.62626e-06 3.35e-05 1.04e-05 2.96e-05 
27 1 1.65695e-06 1.16e-05 3.62e-05 3.29e-05 
34 1 1.61603e-06 4.32e-05 3.14e-05 3.63e-05 
30 1 1.94333e-06 4.58e-05 2.42e-05 4.1e-05 
35 1 1.50352e-06 3.35e-05 4.97e-05 4.1e-05 
36 1 1.91265e-06 2.27e-05 4.27e-05 4.61e-05 
39 1 1.41147e-06 1.71e-05 5.64e-05 1.55e-06 
32 1 1.6774e-06 4.53e-05 5.89e-05 4.58e-06 
49 1 1.59558e-06 2.59e-05 7.58e-05 6.11e-06 
3 1 1.41147e-06 2.64e-05 5.04e-05 1.24e-05 
22 1 1.57512e-06 2.74e-06 6.21e-05 1.43e-05 
1 1 1.96379e-06 4.1e-05 5.33e-05 1.46e-05 
41 1 1.4933e-06 2.71e-05 7e-05 2.16e-05 
20 1 1.68763e-06 4.61e-05 6.12e-05 2.77e-05 
48 1 1.60581e-06 3.77e-06 7.83e-05 2.85e-05 
33 1 1.55466e-06 3.67e-05 8.36e-05 3.18e-05 
46 1 1.41147e-06 4.17e-05 7.72e-05 3.32e-05 
16 1 1.86151e-06 2.54e-05 8.13e-05 3.35e-05 
25 1 1.41147e-06 4.22e-05 7.29e-05 4.12e-05 
4 1 1.64672e-06 1.45e-05 5.16e-05 4.25e-05 
13 1 1.45238e-06 6.84e-05 3.87e-05 4.76e-06 
24 1 1.43193e-06 9.71e-05 3.37e-05 2.03e-05 
42 1 1.71831e-06 5.81e-05 3.55e-05 2.01e-05 
7 1 1.53421e-06 8.37e-05 8.01e-06 2.11e-05 
6 1 1.47284e-06 8.25e-05 2.69e-05 2.95e-05 
12 1 1.48307e-06 9.24e-05 4.82e-05 3.35e-05 
2 1 1.48307e-06 8.23e-05 4.51e-05 3.61e-05 
10 1 1.64672e-06 7.84e-05 1.46e-05 3.73e-05 
31 1 1.44216e-06 9.36e-05 4.97e-05 4.61e-05 
11 1 1.45238e-06 7.13e-05 3.29e-05 4.66e-05 
38 1 1.96379e-06 9.16e-05 8.03e-05 4.8e-06 
8 1 1.80014e-06 8.15e-05 5.97e-05 7.4e-06 
19 1 1.4217e-06 5.43e-05 8.41e-05 7.92e-06 
37 1 1.81037e-06 8.08e-05 9.01e-05 1.13e-05 
9 1 1.56489e-06 5.61e-05 8.05e-05 1.45e-05 
14 1 1.94333e-06 9.13e-05 8.37e-05 2.35e-05 
26 1 1.92288e-06 7.59e-05 6.9e-05 3.02e-05 
28 1 1.94333e-06 6.44e-05 5.5e-05 3.65e-05 
44 1 1.50352e-06 8.1e-05 5.68e-05 3.82e-05 
17 1 1.6774e-06 9.67e-05 7.09e-05 4.02e-05 
21 1 1.58535e-06 9.17e-05 8.99e-05 4.04e-05 
5 1 1.64672e-06 5.17e-05 9.22e-05 4.8e-05 
ITEM: TIMESTEP
500
ITEM: NUMBER OF ATOMS
52
ITEM: BOX BOUNDS ff ff ff
0.0000000000000000e+00 1.0000000000000000e-04
0.0000000000000000e+00 1.0000000000000000e-04
0.0000000000000000e+00 5.0000000000000002e-05
ITEM: ATOMS id type diameter x y z 
47 1 1.49145e-06 1.45e-05 4.42e-05 2.61e-06 
43 1 1.50174e-06 2.97e-05 1.18e-05 7.7e-06 
29 1 1.7486e-06 4.83e-05 1.33e-05 9.28e-06 
15 1 1.51202e-06 1.05e-05 4.68e-05 1.08e-05 
18 1 1.6046e-06 3.45e-05 4.04e-05 1.3e-05 
23 1 1.49145e-06 2.93e-05 7.6e-06 1.66e-05 
50 1 1.68688e-06 9.49e-06 2.1e-05 1.98e-05 
45 1 1.52231e-06 5.13e-06 2.27e-05 2.51e-05 
40 1 1.63546e-06 3.35e-05 1.04e-05 2.96e-05 
27 1 1.66631e-06 1.16e-05 3.62e-05 3.29e-05 
34 1 1.62517e-06 4.32e-05 3.14e-05 3.63e-05 
30 1 1.95432e-06 4.58e-05 2.42e-05 4.1e-05 
35 1 1.51202e-06 3.35e-05 4.97e-05 4.1e-05 
36 1 1.92346e-06 2.27e-05 4.27e-05 4.61e-05 
39 1 1.41945e-06 1.71e-05 5.64e-05 1.55e-06 
32 1 1.68688e-06 4.53e-05 5.89e-05 4.58e-06 
49 1 1.6046e-06 2.59e-05 7.58e-05 6.11e-06 
3 1 1.41945e-06 2.64e-05 5.04e-05 1.24e-05 
22 1 1.58403e-06 2.74e-06 6.21e-05 1.43e-05 
1 1 1.54917e-06 4.14487e-05 5.38518e-05 1.42944e-05 
51 1 1.58535e-06 4.05408e-05 5.27353e-05 1.49127e-05 
41 1 1.50174e-06 2.71e-05 7e-05 2.16e-05 
20 1 1.69717e-06 4.61e-05 6.12e-05 2.77e-05 
48 1 1.61488e-06 3.77e-06 7.83e-05 2.85e-05 
33 1 1.56345e-06 3.67e-05 8.36e-05 3.18e-05 
46 1 1.41945e-06 4.17e-05 7.72e-05 3.32e-05 
16 1 1.87203e-06 2.54e-05 8.13e-05 3.35e-05 
25 1 1.41945e-06 4.22e-05 7.29e-05 4.12e-05 
4 1 1.65603e-06 1.45e-05 5.16e-05 4.25e-05 
13 1 1.4606e-06 6.84e-05 3.87e-05 4.76e-06 
24 1 1.44002e-06 9.71e-05 3.37e-05 2.03e-05 
42 1 1.72803e-06 5.81e-05 3.55e-05 2.01e-05 
7 1 1.54288e-06 8.37e-05 8.01e-06 2.11e-05 
6 1 1.48117e-06 8.25e-05 2.69e-05 2.95e-05 
12 1 1.49145e-06 9.24e-05 4.82e-05 3.35e-05 
2 1 1.49145e-06 8.23e-05 4.51e-05 3.61e-05 
10 1 1.65603e-06 7.84e-05 1.46e-05 3.73e-05 
31 1 1.45031e-06 9.36e-05 4.97e-05 4.61e-05 
11 1 1.4606e-06 7.13e-05 3.29e-05 4.66e-05 
38 1 1.54917e-06 9.20487e-05 8.08518e-05 4.49442e-06 
8 1 1.81032e-06 8.15e-05 5.97e-05 7.4e-06 
19 1 1.42974e-06 5.43e-05 8.41e-05 7.92e-06 
37 1 1.8206e-06 8.08e-05 9.01e-05 1.13e-05 
9 1 1.57374e-06 5.61e-05 8.05e-05 1.45e-05 
52 1 1.58535e-06 9.11408e-05 7.97353e-05 5.11271e-06 
14 1 1.95432e-06 9.13e-05 8.37e-05 2.35e-05 
26 1 1.93375e-06 7.59e-05 6.9e-05 3.02e-05 
28 1 1.95432e-06 6.44e-05 5.5e-05 3.65e-05 
44 1 1.51202e-06 8.1e-05 5.68e-05 3.82e-05 
17 1 1.68688e-06 9.67e-05 7.09e-05 4.02e-05 
21 1 1.59431e-06 9.17e-05 8.99e-05 4.04e-05 
5 1 1.65603e-06 5.17e-05 9.22e-05 4.8e-05 
ITEM: TIMESTEP
600
ITEM: NUMBER OF ATOMS
52
ITEM: BOX BOUNDS ff ff ff
0.0000000000000000e+00 1.0000000000000000e-04
0.0000000000000000e+00 1.0000000000000000e-04
0.0000000000000000e+00 5.0000000000000002e-05
ITEM: ATOMS id type diameter x y z 
47 1 1.49988e-06 1.45e-05 4.42e-05 2.61e-06 
43 1 1.51023e-06 2.97e-05 1.18e-05 7.7e-06 
29 1 1.75849e-06 4.83e-05 1.33e-05 9.28e-06 
15 1 1.52057e-06 1.05e-05 4.68e-05 1.08e-05 
18 1 1.61367e-06 3.45e-05 4.04e-05 1.3e-05 
23 1 1.49988e-06 2.93e-05 7.6e-06 1.66e-05 
50 1 1.69642e-06 9.49e-06 2.1e-05 1.98e-05 
45 1 1.53092e-06 5.13e-06 2.27e-05 2.51e-05 
40 1 1.6447e-06 3.35e-05 1.04e-05 2.96e-05 
27 1 1.67573e-06 1.16e-05 3.62e-05 3.29e-05 
34 1 1.63436e-06 4.32e-05 3.14e-05 3.63e-05 
30 1 1.96537e-06 4.58e-05 2.42e-05 4.1e-05 
35 1 1.52057e-06 3.35e-05 4.97e-05 4.1e-05 
36 1 1.93433e-06 2.27e-05 4.27e-05 4.61e-05 
39 1 1.42748e-06 1.71e-05 5.64e-05 1.55e-06 
32 1 1.69642e-06 4.53e-05 5.89e-05 4.58e-06 
49 1 1.61367e-06 2.59e-05 7.58e-05 6.11e-06 
3 1 1.42748e-06 2.64e-05 5.04e-05 1.24e-05 
22 1 1.59298e-06 2.74e-06 6.21e-05 1.43e-05 
1 1 1.55793e-06 4.14487e-05 5.38518e-05 1.42944e-05 
51 1 1.59431e-06 4.05408e-05 5.27353e-05 1.49127e-05 
41 1 1.51023e-06 2.71e-05 7e-05 2.16e-05 
20 1 1.70677e-06 4.61e-05 6.12e-05 2.77e-05 
48 1 1.62401e-06 3.77e-06 7.83e-05 2.85e-05 
33 1 1.57229e-06 3.67e-05 8.36e-05 3.18e-05 
46 1 1.42748e-06 4.17e-05 7.72e-05 3.32e-05 
16 1 1.88261e-06 2.54e-05 8.13e-05 3.35e-05 
25 1 1.42748e-06 4.22e-05 7.29e-05 4.12e-05 
4 1 1.66539e-06 1.45e-05 5.16e-05 4.25e-05 
13 1 1.46885e-06 6.84e-05 3.87e-05 4.76e-06 
24 1 1.44816e-06 9.71e-05 3.37e-05 2.03e-05 
42 1 1.7378e-06 5.81e-05 3.55e-05 2.01e-05 
7 1 1.5516e-06 8.37e-05 8.01e-06 2.11e-05 
6 1 1.48954e-06 8.25e-05 2.69e-05 2.95e-05 
12 1 1.49988e-06 9.24e-05 4.82e-05 3.35e-05 
2 1 1.49988e-06 8.23e-05 4.51e-05 3.61e-05 
10 1 1.66539e-06 7.84e-05 1.46e-05 3.73e-05 
31 1 1.45851e-06 9.36e-05 4.97e-05 4.61e-05 
11 1 1.46885e-06 7.13e-05 3.29e-05 4.66e-05 
38 1 1.55793e-06 9.20487e-05 8.08518e-05 4.49442e-06 
8 1 1.82055e-06 8.15e-05 5.97e-05 7.4e-06 
19 1 1.43782e-06 5.43e-05 8.41e-05 7.92e-06 
37 1 1.83089e-06 8.08e-05 9.01e-05 1.13e-05 
9 1 1.58264e-06 5.61e-05 8.05e-05 1.45e-05 
52 1 1.59431e-06 9.11408e-05 7.97353e-05 5.11271e-06 
14 1 1.96537e-06 9.13e-05 8.37e-05 2.35e-05 
26 1 1.94468e-06 7.59e-05 6.9e-05 3.02e-05 
28 1 1.96537e-06 6.44e-05 5.5e-05 3.65e-05 
44 1 1.52057e-06 8.1e-05 5.68e-05 3.82e-05 
17 1 1.69642e-06 9.67e-05 7.09e-05 4.02e-05 
21 1 1.60332e-06 9.17e-05 8.99e-05 4.04e-05 
5 1 1.66539e-06 5.17e-05 9.22e-05 4.8e-05 
ITEM: TIMESTEP
700
ITEM: NUMBER OF ATOMS
55
ITEM: BOX BOUNDS ff ff ff
0.0000000000000000e+00 1.0000000000000000e-04
0.0000000000000000e+00 1.0000000000000000e-04
0.0000000000000000e+00 5.0000000000000002e-05
ITEM: ATOMS id type diameter x y z 
47 1 1.50836e-06 1.45e-05 4.42e-05 2.61e-06 
43 1 1.51877e-06 2.97e-05 1.18e-05 7.7e-06 
29 1 1.76843e-06 4.83e-05 1.33e-05 9.28e-06 
15 1 1.52917e-06 1.05e-05 4.68e-05 1.08e-05 
18 1 1.62279e-06 3.45e-05 4.04e-05 1.3e-05 
23 1 1.50836e-06 2.93e-05 7.6e-06 1.66e-05 
50 1 1.70601e-06 9.49e-06 2.1e-05 1.98e-05 
45 1 1.53957e-06 5.13e-06 2.27e-05 2.51e-05 
40 1 1.654e-06 3.35e-05 1.04e-05 2.96e-05 
27 1 1.68521e-06 1.16e-05 3.62e-05 3.29e-05 
34 1 1.6436e-06 4.32e-05 3.14e-05 3.63e-05 
30 1 1.55042e-06 4.62491e-05 2.47523e-05 4.06942e-05 
35 1 1.52917e-06 3.35e-05 4.97e-05 4.1e-05 
36 1 1.94527e-06 2.27e-05 4.27e-05 4.61e-05 
53 1 1.58663e-06 4.53405e-05 2.36348e-05 4.1313e-05 
39 1 1.43555e-06 1.71e-05 5.64e-05 1.55e-06 
32 1 1.70601e-06 4.53e-05 5.89e-05 4.58e-06 
49 1 1.62279e-06 2.59e-05 7.58e-05 6.11e-06 
3 1 1.43555e-06 2.64e-05 5.04e-05 1.24e-05 
22 1 1.60199e-06 2.74e-06 6.21e-05 1.43e-05 
1 1 1.56674e-06 4.14487e-05 5.38518e-05 1.42944e-05 
51 1 1.60333e-06 4.05408e-05 5.27353e-05 1.49127e-05 
41 1 1.51877e-06 2.71e-05 7e-05 2.16e-05 
20 1 1.71641e-06 4.61e-05 6.12e-05 2.77e-05 
48 1 1.63319e-06 3.77e-06 7.83e-05 2.85e-05 
33 1 1.58118e-06 3.67e-05 8.36e-05 3.18e-05 
46 1 1.43555e-06 4.17e-05 7.72e-05 3.32e-05 
16 1 1.89326e-06 2.54e-05 8.13e-05 3.35e-05 
25 1 1.43555e-06 4.22e-05 7.29e-05 4.12e-05 
4 1 1.6748e-06 1.45e-05 5.16e-05 4.25e-05 
13 1 1.47716e-06 6.84e-05 3.87e-05 4.76e-06 
24 1 1.45635e-06 9.71e-05 3.37e-05 2.03e-05 
42 1 1.74762e-06 5.81e-05 3.55e-05 2.01e-05 
7 1 1.56038e-06 8.37e-05 8.01e-06 2.11e-05 
6 1 1.49796e-06 8.25e-05 2.69e-05 2.95e-05 
12 1 1.50836e-06 9.24e-05 4.82e-05 3.35e-05 
2 1 1.50836e-06 8.23e-05 4.51e-05 3.61e-05 
10 1 1.6748e-06 7.84e-05 1.46e-05 3.73e-05 
31 1 1.46675e-06 9.36e-05 4.97e-05 4.61e-05 
11 1 1.47716e-06 7.13e-05 3.29e-05 4.66e-05 
38 1 1.56674e-06 9.20487e-05 8.08518e-05 4.49442e-06 
8 1 1.83084e-06 8.15e-05 5.97e-05 7.4e-06 
19 1 1.44595e-06 5.43e-05 8.41e-05 7.92e-06 
37 1 1.84124e-06 8.08e-05 9.01e-05 1.13e-05 
9 1 1.59158e-06 5.61e-05 8.05e-05 1.45e-05 
52 1 1.60333e-06 9.11408e-05 7.97353e-05 5.11271e-06 
14 1 1.55042e-06 9.17491e-05 8.42523e-05 2.31942e-05 
26 1 1.95567e-06 7.59e-05 6.9e-05 3.02e-05 
28 1 1.5659e-06 6.5011e-05 5.54049e-05 3.62262e-05 
44 1 1.52917e-06 8.1e-05 5.68e-05 3.82e-05 
17 1 1.70601e-06 9.67e-05 7.09e-05 4.02e-05 
21 1 1.61239e-06 9.17e-05 8.99e-05 4.04e-05 
5 1 1.6748e-06 5.17e-05 9.22e-05 4.8e-05 
54 1 1.58663e-06 9.08405e-05 8.31348e-05 2.3813e-05 
55 1 1.57156e-06 6.37868e-05 5.45936e-05 3.67748e-05 
ITEM: TIMESTEP
800
ITEM: NUMBER OF ATOMS
55
ITEM: BOX BOUNDS ff ff ff
0.0000000000000000e+00 1.0000000000000000e-04
0.0000000000000000e+00 1.0000000000000000e-04
0.0000000000000000e+00 5.0000000000000002e-05
ITEM: ATOMS id type diameter x y z 
47 1 1.51689e-06 1.45e-05 4.42e-05 2.61e-06 
43 1 1.52735e-06 2.97e-05 1.18e-05 7.7e-06 
29 1 1.77842e-06 4.83e-05 1.33e-05 9.28e-06 
15 1 1.53781e-06 1.05e-05 4.68e-05 1.08e-05 
18 1 1.63197e-06 3.45e-05 4.04e-05 1.3e-05 
23 1 1.51689e-06 2.93e-05 7.6e-06 1.66e-05 
50 1 1.71566e-06 9.49e-06 2.1e-05 1.98e-05 
45 1 1.54828e-06 5.13e-06 2.27e-05 2.51e-05 
40 1 1.66335e-06 3.35e-05 1.04e-05 2.96e-05 
27 1 1.69473e-06 1.16e-05 3.62e-05 3.29e-05 
34 1 1.65289e-06 4.32e-05 3.14e-05 3.63e-05 
30 1 1.55918e-06 4.62491e-05 2.47523e-05 4.06942e-05 
35 1 1.53781e-06 3.35e-05 4.97e-05 4.1e-05 
36 1 1.95627e-06 2.27e-05 4.27e-05 4.61e-05 
53 1 1.5956e-06 4.53405e-05 2.36348e-05 4.1313e-05 
39 1 1.44366e-06 1.71e-05 5.64e-05 1.55e-06 
32 1 1.71566e-06 4.53e-05 5.89e-05 4.58e-06 
49 1 1.63197e-06 2.59e-05 7.58e-05 6.11e-06 
3 1 1.44366e-06 2.64e-05 5.04e-05 1.24e-05 
22 1 1.61104e-06 2.74e-06 6.21e-05 1.43e-05 
1 1 1.5756e-06 4.14487e-05 5.38518e-05 1.42944e-05 
51 1 1.61239e-06 4.05408e-05 5.27353e-05 1.49127e-05 
41 1 1.52735e-06 2.71e-05 7e-05 2.16e-05 
20 1 1.72612e-06 4.61e-05 6.12e-05 2.77e-05 
48 1 1.64243e-06 3.77e-06 7.83e-05 2.85e-05 
33 1 1.59012e-06 3.67e-05 8.36e-05 3.18e-05 
46 1 1.44366e-06 4.17e-05 7.72e-05 3.32e-05 
16 1 1.90396e-06 2.54e-05 8.13e-05 3.35e-05 
25 1 1.44366e-06 4.22e-05 7.29e-05 4.12e-05 
4 1 1.68427e-06 1.45e-05 5.16e-05 4.25e-05 
13 1 1.48551e-06 6.84e-05 3.87e-05 4.76e-06 
24 1 1.46458e-06 9.71e-05 3.37e-05 2.03e-05 
42 1 1.7575e-06 5.81e-05 3.55e-05 2.01e-05 
7 1 1.5692e-06 8.37e-05 8.01e-06 2.11e-05 
6 1 1.50643e-06 8.25e-05 2.69e-05 2.95e-05 
12 1 1.51689e-06 9.24e-05 4.82e-05 3.35e-05 
2 1 1.51689e-06 8.23e-05 4.51e-05 3.61e-05 
10 1 1.68427e-06 7.84e-05 1.46e-05 3.73e-05 
31 1 1.47505e-06 9.36e-05 4.97e-05 4.61e-05 
11 1 1.48551e-06 7.13e-05 3.29e-05 4.66e-05 
38 1 1.5756e-06 9.20487e-05 8.08518e-05 4.49442e-06 
8 1 1.84119e-06 8.15e-05 5.97e-05 7.4e-06 
19 1 1.45412e-06 5.43e-05 8.41e-05 7.92e-06 
37 1 1.85165e-06 8.08e-05 9.01e-05 1.13e-05 
9 1 1.60058e-06 5.61e-05 8.05e-05 1.45e-05 
52 1 1.61239e-06 9.11408e-05 7.97353e-05 5.11271e-06 
14 1 1.55918e-06 9.17491e-05 8.42523e-05 2.31942e-05 
26 1 1.96673e-06 7.59e-05 6.9e-05 3.02e-05 
28 1 1.57475e-06 6.5011e-05 5.54049e-05 3.62262e-05 
44 1 1.53781e-06 8.1e-05 5.68e-05 3.82e-05 
17 1 1.71566e-06 9.67e-05 7.09e-05 4.02e-05 
21 1 1.6215e-06 9.17e-05 8.99e-05 4.04e-05 
5 1 1.68427e-06 5.17e-05 9.22e-05 4.8e-05 
54 1 1.5956e-06 9.08405e-05 8.31348e-05 2.3813e-05 
55 1 1.58044e-06 6.37868e-05 5.45936e-05 3.67748e-05 
ITEM: TIMESTEP
900
ITEM: NUMBER OF ATOMS
56
ITEM: BOX BOUNDS ff ff ff
0.0000000000000000e+00 1.0000000000000000e-04
0.0000000000000000e+00 1.0000000000000000e-04
0.0000000000000000e+00 5.0000000000000002e-05
ITEM: ATOMS id type diameter x y z 
47 1 1.52547e-06 1.45e-05 4.42e-05 2.61e-06 
43 1 1.53599e-06 2.97e-05 1.18e-05 7.7e-06 
29 1 1.78848e-06 4.83e-05 1.33e-05 9.28e-06 
15 1 1.54651e-06 1.05e-05 4.68e-05 1.08e-05 
18 1 1.64119e-06 3.45e-05 4.04e-05 1.3e-05 
23 1 1.52547e-06 2.93e-05 7.6e-06 1.66e-05 
50 1 1.72536e-06 9.49e-06 2.1e-05 1.98e-05 
45 1 1.55703e-06 5.13e-06 2.27e-05 2.51e-05 
40 1 1.67275e-06 3.35e-05 1.04e-05 2.96e-05 
27 1 1.70431e-06 1.16e-05 3.62e-05 3.29e-05 
34 1 1.66223e-06 4.32e-05 3.14e-05 3.63e-05 
30 1 1.568e-06 4.62491e-05 2.47523e-05 4.06942e-05 
35 1 1.54651e-06 3.35e-05 4.97e-05 4.1e-05 
36 1 1.96733e-06 2.27e-05 4.27e-05 4.61e-05 
53 1 1.60462e-06 4.53405e-05 2.36348e-05 4.1313e-05 
39 1 1.45182e-06 1.71e-05 5.64e-05 1.55e-06 
32 1 1.72536e-06 4.53e-05 5.89e-05 4.58e-06 
49 1 1.64119e-06 2.59e-05 7.58e-05 6.11e-06 
3 1 1.45182e-06 2.64e-05 5.04e-05 1.24e-05 
22 1 1.62015e-06 2.74e-06 6.21e-05 1.43e-05 
1 1 1.5845e-06 4.14603e-05 5.38661e-05 1.42865e-05 
51 1 1.62151e-06 4.05292e-05 5.2721e-05 1.49206e-05 
41 1 1.53599e-06 2.71e-05 7e-05 2.16e-05 
20 1 1.73588e-06 4.61e-05 6.12e-05 2.77e-05 
48 1 1.65171e-06 3.77e-06 7.83e-05 2.85e-05 
33 1 1.59911e-06 3.67e-05 8.36e-05 3.18e-05 
46 1 1.45182e-06 4.17e-05 7.72e-05 3.32e-05 
16 1 1.91472e-06 2.54e-05 8.13e-05 3.35e-05 
25 1 1.45182e-06 4.22e-05 7.29e-05 4.12e-05 
4 1 1.69379e-06 1.45e-05 5.16e-05 4.25e-05 
13 1 1.49391e-06 6.84e-05 3.87e-05 4.76e-06 
24 1 1.47286e-06 9.71e-05 3.37e-05 2.03e-05 
42 1 1.76744e-06 5.81e-05 3.55e-05 2.01e-05 
7 1 1.57807e-06 8.37e-05 8.01e-06 2.11e-05 
6 1 1.51495e-06 8.25e-05 2.69e-05 2.95e-05 
12 1 1.52547e-06 9.24e-05 4.82e-05 3.35e-05 
2 1 1.52547e-06 8.23e-05 4.51e-05 3.61e-05 
10 1 1.69379e-06 7.84e-05 1.46e-05 3.73e-05 
31 1 1.48338e-06 9.36e-05 4.97e-05 4.61e-05 
11 1 1.49391e-06 7.13e-05 3.29e-05 4.66e-05 
38 1 1.5845e-06 9.20603e-05 8.08661e-05 4.48653e-06 
8 1 1.8516e-06 8.15e-05 5.97e-05 7.4e-06 
19 1 1.46234e-06 5.43e-05 8.41e-05 7.92e-06 
37 1 1.86212e-06 8.08e-05 9.01e-05 1.13e-05 
9 1 1.60963e-06 5.61e-05 8.05e-05 1.45e-05 
52 1 1.62151e-06 9.11292e-05 7.9721e-05 5.12061e-06 
14 1 1.568e-06 9.17491e-05 8.42523e-05 2.31942e-05 
26 1 1.54149e-06 7.54505e-05 6.92362e-05 3.07792e-05 
28 1 1.58365e-06 6.5011e-05 5.54049e-05 3.62262e-05 
44 1 1.54651e-06 8.1e-05 5.68e-05 3.82e-05 
17 1 1.72536e-06 9.67e-05 7.09e-05 4.02e-05 
21 1 1.63067e-06 9.17e-05 8.99e-05 4.04e-05 
5 1 1.69379e-06 5.17e-05 9.22e-05 4.8e-05 
54 1 1.60462e-06 9.08405e-05 8.31348e-05 2.3813e-05 
55 1 1.58937e-06 6.37868e-05 5.45936e-05 3.67748e-05 
56 1 1.59716e-06 7.63657e-05 6.87553e-05 2.95999e-05 
ITEM: TIMESTEP
1000
ITEM: NUMBER OF ATOMS
57
ITEM: BOX BOUNDS ff ff ff
0.0000000000000000e+00 1.0000000000000000e-04
0.0000000000000000e+00 1.0000000000000000e-04
0.0000000000000000e+00 5.0000000000000002e-05
ITEM: ATOMS id type diameter x y z 
47 1 1.53409e-06 1.45e-05 4.42e-05 2.61e-06 
43 1 1.54467e-06 2.97e-05 1.18e-05 7.7e-06 
29 1 1.79859e-06 4.83e-05 1.33e-05 9.28e-06 
15 1 1.55525e-06 1.05e-05 4.68e-05 1.08e-05 
18 1 1.65047e-06 3.45e-05 4.04e-05 1.3e-05 
23 1 1.53409e-06 2.93e-05 7.6e-06 1.66e-05 
50 1 1.73511e-06 9.49e-06 2.1e-05 1.98e-05 
45 1 1.56583e-06 5.13e-06 2.27e-05 2.51e-05 
40 1 1.68221e-06 3.35e-05 1.04e-05 2.96e-05 
27 1 1.71395e-06 1.16e-05 3.62e-05 3.29e-05 
34 1 1.67163e-06 4.32e-05 3.14e-05 3.63e-05 
30 1 1.57686e-06 4.62491e-05 2.47523e-05 4.06942e-05 
53 1 1.61369e-06 4.53405e-05 2.36348e-05 4.1313e-05 
35 1 1.55525e-06 3.35e-05 4.97e-05 4.1e-05 
36 1 1.56746e-06 2.33116e-05 4.31053e-05 4.58259e-05 
57 1 1.57312e-06 2.20862e-05 4.22932e-05 4.63751e-05 
39 1 1.46003e-06 1.71e-05 5.64e-05 1.55e-06 
32 1 1.73511e-06 4.53e-05 5.89e-05 4.58e-06 
49 1 1.65047e-06 2.59e-05 7.58e-05 6.11e-06 
3 1 1.46003e-06 2.64e-05 5.04e-05 1.24e-05 
1 1 1.59346e-06 4.14603e-05 5.38661e-05 1.42865e-05 
22 1 1.62931e-06 2.74e-06 6.21e-05 1.43e-05 
51 1 1.63067e-06 4.05292e-05 5.2721e-05 1.49206e-05 
41 1 1.54467e-06 2.71e-05 7e-05 2.16e-05 
20 1 1.74569e-06 4.61e-05 6.12e-05 2.77e-05 
48 1 1.66105e-06 3.77e-06 7.83e-05 2.85e-05 
33 1 1.60815e-06 3.67e-05 8.36e-05 3.18e-05 
46 1 1.46003e-06 4.17e-05 7.72e-05 3.32e-05 
16 1 1.92555e-06 2.54e-05 8.13e-05 3.35e-05 
25 1 1.46003e-06 4.22e-05 7.29e-05 4.12e-05 
4 1 1.70337e-06 1.45e-05 5.16e-05 4.25e-05 
13 1 1.50235e-06 6.84e-05 3.87e-05 4.76e-06 
24 1 1.48119e-06 9.71e-05 3.37e-05 2.03e-05 
42 1 1.77743e-06 5.81e-05 3.55e-05 2.01e-05 
7 1 1.58699e-06 8.37e-05 8.01e-06 2.11e-05 
6 1 1.52351e-06 8.25e-05 2.69e-05 2.95e-05 
12 1 1.53409e-06 9.24e-05 4.82e-05 3.35e-05 
2 1 1.53409e-06 8.23e-05 4.51e-05 3.61e-05 
10 1 1.70337e-06 7.84e-05 1.46e-05 3.73e-05 
31 1 1.49177e-06 9.36e-05 4.97e-05 4.61e-05 
11 1 1.50235e-06 7.13e-05 3.29e-05 4.66e-05 
38 1 1.59346e-06 9.20603e-05 8.08661e-05 4.48653e-06 
52 1 1.63067e-06 9.11292e-05 7.9721e-05 5.12061e-06 
8 1 1.86207e-06 8.15e-05 5.97e-05 7.4e-06 
19 1 1.47061e-06 5.43e-05 8.41e-05 7.92e-06 
37 1 1.87265e-06 8.08e-05 9.01e-05 1.13e-05 
9 1 1.61873e-06 5.61e-05 8.05e-05 1.45e-05 
14 1 1.57686e-06 9.17491e-05 8.42523e-05 2.31942e-05 
54 1 1.61369e-06 9.08405e-05 8.31348e-05 2.3813e-05 
56 1 1.60619e-06 7.63657e-05 6.87553e-05 2.95999e-05 
26 1 1.5502e-06 7.54505e-05 6.92362e-05 3.07792e-05 
28 1 1.5926e-06 6.5011e-05 5.54049e-05 3.62262e-05 
55 1 1.59836e-06 6.37868e-05 5.45936e-05 3.67748e-05 
44 1 1.55525e-06 8.1e-05 5.68e-05 3.82e-05 
17 1 1.73511e-06 9.67e-05 7.09e-05 4.02e-05 
21 1 1.63989e-06 9.17e-05 8.99e-05 4.04e-05 
5 1 1.70337e-06 5.17e-05 9.22e-05 4.8e-05 
ITEM: TIMESTEP
1100
ITEM: NUMBER OF ATOMS
57
ITEM: BOX BOUNDS ff ff ff
0.0000000000000000e+00 1.0000000000000000e-04
0.0000000000000000e+00 1.0000000000000000e-04
0.0000000000000000e+00 5.0000000000000002e-05
ITEM: ATOMS id type diameter x y z 
47 1 1.54276e-06 1.45e-05 4.42e-05 2.61e-06 
43 1 1.5534e-06 2.97e-05 1.18e-05 7.7e-06 
29 1 1.80876e-06 4.83e-05 1.33e-05 9.28e-06 
15 1 1.56404e-06 1.05e-05 4.68e-05 1.08e-05 
18 1 1.6598e-06 3.45e-05 4.04e-05 1.3e-05 
23 1 1.54276e-06 2.93e-05 7.6e-06 1.66e-05 
50 1 1.74492e-06 9.49e-06 2.1e-05 1.98e-05 
45 1 1.57468e-06 5.13e-06 2.27e-05 2.51e-05 
40 1 1.69172e-06 3.35e-05 1.04e-05 2.96e-05 
27 1 1.72364e-06 1.16e-05 3.62e-05 3.29e-05 
34 1 1.68108e-06 4.32e-05 3.14e-05 3.63e-05 
30 1 1.58578e-06 4.62606e-05 2.47665e-05 4.06863e-05 
53 1 1.62281e-06 4.53289e-05 2.36206e-05 4.13209e-05 
35 1 1.56404e-06 3.35e-05 4.97e-05 4.1e-05 
36 1 1.57632e-06 2.33116e-05 4.31053e-05 4.58259e-05 
57 1 1.58202e-06 2.20862e-05 4.22932e-05 4.63751e-05 
39 1 1.46829e-06 1.71e-05 5.64e-05 1.55e-06 
32 1 1.74492e-06 4.53e-05 5.89e-05 4.58e-06 
49 1 1.6598e-06 2.59e-05 7.58e-05 6.11e-06 
3 1 1.46829e-06 2.64e-05 5.04e-05 1.24e-05 
1 1 1.60247e-06 4.14603e-05 5.38661e-05 1.42865e-05 
22 1 1.63852e-06 2.74e-06 6.21e-05 1.43e-05 
51 1 1.63989e-06 4.05292e-05 5.2721e-05 1.49206e-05 