 NUFEB Simulation

     100 atoms 
     2 atom types 
     4 nutrients 

  0.0e-4   1.00e-04  xlo xhi 
  0.0e-4   1.00e-04  ylo yhi 
  0.0e-4   1.00e-05  zlo zhi 

 Atoms 

     1 1 1.90e-06  370 8.99e-06 5.65e-05 6.81e-06 1.90e-06 
     2 1 1.61e-06  370 1.24e-05 6.97e-06 3.10e-06 1.61e-06 
     3 1 1.92e-06  370 2.68e-06 5.22e-05 2.22e-06 1.92e-06 
     4 1 1.87e-06  370 7.66e-05 8.65e-06 2.49e-06 1.87e-06 
     5 1 1.57e-06  370 6.55e-05 3.74e-05 7.73e-06 1.57e-06 
     6 1 1.72e-06  370 7.76e-05 6.51e-05 6.80e-06 1.72e-06 
     7 1 1.68e-06  370 9.64e-05 8.25e-05 6.55e-06 1.68e-06 
     8 1 1.53e-06  370 4.99e-05 2.08e-05 4.56e-06 1.53e-06 
     9 1 1.67e-06  370 6.78e-05 1.82e-05 5.36e-06 1.67e-06 
     10 1 1.76e-06  370 9.09e-05 4.65e-05 7.14e-06 1.76e-06 
     11 1 1.45e-06  370 7.00e-05 2.97e-06 3.48e-06 1.45e-06 
     12 1 1.89e-06  370 6.19e-05 2.44e-05 7.99e-06 1.89e-06 
     13 1 1.55e-06  370 3.05e-05 4.48e-05 2.37e-06 1.55e-06 
     14 1 1.55e-06  370 7.65e-05 9.44e-05 8.33e-06 1.55e-06 
     15 1 1.71e-06  370 8.70e-05 3.14e-06 6.29e-06 1.71e-06 
     16 1 1.47e-06  370 9.99e-06 5.20e-05 2.52e-06 1.47e-06 
     17 1 1.62e-06  370 7.03e-05 7.77e-06 7.84e-06 1.62e-06 
     18 1 1.55e-06  370 5.35e-06 9.46e-05 1.92e-06 1.55e-06 
     19 1 1.52e-06  370 1.62e-05 3.97e-05 2.67e-06 1.52e-06 
     20 1 1.88e-06  370 3.66e-05 3.12e-05 6.43e-06 1.88e-06 
     21 1 1.59e-06  370 7.27e-05 1.56e-05 7.15e-06 1.59e-06 
     22 1 1.86e-06  370 3.38e-05 7.88e-05 2.74e-06 1.86e-06 
     23 1 1.86e-06  370 7.26e-05 7.54e-05 5.95e-06 1.86e-06 
     24 1 1.75e-06  370 4.53e-05 5.26e-05 6.04e-06 1.75e-06 
     25 1 1.79e-06  370 1.55e-05 7.91e-06 4.06e-06 1.79e-06 
     26 1 1.59e-06  370 1.92e-06 3.69e-05 5.13e-06 1.59e-06 
     27 1 1.92e-06  370 2.26e-05 6.34e-05 7.67e-06 1.92e-06 
     28 1 1.60e-06  370 2.67e-05 2.89e-05 2.76e-06 1.60e-06 
     29 1 1.43e-06  370 7.64e-05 2.35e-05 6.81e-06 1.43e-06 
     30 1 1.76e-06  370 5.53e-05 8.33e-05 5.34e-06 1.76e-06 
     31 1 1.64e-06  370 4.28e-05 3.21e-05 2.49e-06 1.64e-06 
     32 1 1.81e-06  370 8.51e-05 2.44e-05 3.35e-06 1.81e-06 
     33 1 1.73e-06  370 6.47e-06 3.80e-06 7.02e-06 1.73e-06 
     34 1 1.57e-06  370 9.10e-05 7.19e-05 2.70e-06 1.57e-06 
     35 1 1.93e-06  370 2.67e-05 9.34e-05 7.80e-06 1.93e-06 
     36 1 1.92e-06  370 3.81e-05 8.93e-05 3.91e-06 1.92e-06 
     37 1 1.77e-06  370 2.86e-05 7.46e-05 3.48e-06 1.77e-06 
     38 1 1.59e-06  370 5.46e-05 7.07e-05 7.18e-06 1.59e-06 
     39 1 1.93e-06  370 5.11e-05 3.20e-05 5.47e-06 1.93e-06 
     40 1 1.90e-06  370 3.23e-05 8.20e-05 2.91e-06 1.90e-06 
     41 1 1.87e-06  370 8.01e-05 3.32e-05 5.32e-06 1.87e-06 
     42 1 1.78e-06  370 3.98e-05 6.12e-05 2.91e-06 1.78e-06 
     43 1 1.48e-06  370 8.86e-06 8.20e-05 7.00e-06 1.48e-06 
     44 1 1.62e-06  370 3.99e-05 8.07e-05 5.20e-06 1.62e-06 
     45 1 1.38e-06  370 9.12e-05 2.36e-05 6.46e-06 1.38e-06 
     46 1 1.62e-06  370 6.01e-05 2.36e-05 5.30e-06 1.62e-06 
     47 1 1.70e-06  370 6.10e-06 6.68e-05 5.41e-06 1.70e-06 
     48 1 1.83e-06  370 1.26e-05 5.34e-05 4.95e-06 1.83e-06 
     49 1 1.44e-06  370 3.58e-06 4.46e-05 5.63e-06 1.44e-06 
     50 1 1.63e-06  370 1.74e-05 5.23e-05 3.29e-06 1.63e-06 
     51 2 1.34e-06  230 2.03e-05 5.02e-05 6.25e-06 1.34e-06 
     52 2 1.14e-06  230 2.66e-05 2.12e-05 3.92e-06 1.14e-06 
     53 2 1.32e-06  230 3.03e-05 6.96e-05 5.34e-06 1.32e-06 
     54 2 1.04e-06  230 5.91e-05 6.18e-05 6.29e-06 1.04e-06 
     55 2 9.94e-07  230 7.87e-05 2.16e-05 2.92e-06 9.94e-07 
     56 2 1.21e-06  230 2.54e-05 8.42e-05 8.07e-06 1.21e-06 
     57 2 1.15e-06  230 4.62e-05 3.64e-05 3.16e-06 1.15e-06 
     58 2 1.11e-06  230 1.86e-05 7.86e-05 3.95e-06 1.11e-06 
     59 2 1.35e-06  230 5.26e-05 6.71e-05 6.73e-06 1.35e-06 
     60 2 1.12e-06  230 3.48e-05 9.65e-05 3.15e-06 1.12e-06 
     61 2 9.71e-07  230 7.38e-05 1.01e-05 2.90e-06 9.71e-07 
     62 2 1.32e-06  230 7.88e-05 9.07e-05 3.94e-06 1.32e-06 
     63 2 1.22e-06  230 3.84e-05 4.29e-05 3.73e-06 1.22e-06 
     64 2 9.38e-07  230 9.01e-05 1.90e-05 6.90e-06 9.38e-07 
     65 2 9.87e-07  230 7.12e-05 3.43e-05 3.01e-06 9.87e-07 
     66 2 1.22e-06  230 8.54e-06 3.45e-06 1.76e-06 1.22e-06 
     67 2 1.26e-06  230 7.10e-06 2.42e-05 3.66e-06 1.26e-06 
     68 2 1.21e-06  230 7.72e-05 5.44e-05 1.61e-06 1.21e-06 
     69 2 1.34e-06  230 4.90e-05 4.42e-06 4.52e-06 1.34e-06 
     70 2 1.22e-06  230 1.43e-05 8.22e-05 4.91e-06 1.22e-06 
     71 2 1.09e-06  230 4.71e-05 2.16e-05 7.35e-06 1.09e-06 
     72 2 9.05e-07  230 3.45e-06 7.12e-05 8.38e-06 9.05e-07 
     73 2 9.19e-07  230 1.37e-05 2.80e-06 6.65e-06 9.19e-07 
     74 2 1.15e-06  230 3.74e-05 1.92e-06 3.60e-06 1.15e-06 
     75 2 1.29e-06  230 5.97e-05 7.02e-05 8.29e-06 1.29e-06 
     76 2 1.31e-06  230 6.54e-05 9.16e-05 8.30e-06 1.31e-06 
     77 2 9.16e-07  230 2.42e-05 1.66e-05 1.16e-06 9.16e-07 
     78 2 1.39e-06  230 7.14e-05 8.11e-05 5.78e-06 1.39e-06 
     79 2 1.38e-06  230 8.55e-05 3.81e-05 4.93e-06 1.38e-06 
     80 2 1.02e-06  230 1.39e-05 3.93e-05 1.67e-06 1.02e-06 
     81 2 1.07e-06  230 6.34e-05 2.03e-05 5.80e-06 1.07e-06 
     82 2 1.23e-06  230 7.41e-05 8.48e-05 6.39e-06 1.23e-06 
     83 2 1.15e-06  230 9.20e-05 1.48e-05 1.84e-06 1.15e-06 
     84 2 9.64e-07  230 7.29e-05 5.66e-05 4.31e-06 9.64e-07 
     85 2 1.16e-06  230 8.45e-05 5.04e-05 8.20e-06 1.16e-06 
     86 2 1.16e-06  230 2.52e-05 4.77e-05 7.56e-06 1.16e-06 
     87 2 1.24e-06  230 5.00e-05 4.94e-05 5.05e-06 1.24e-06 
     88 2 1.24e-06  230 5.71e-05 1.49e-05 7.23e-06 1.24e-06 
     89 2 1.12e-06  230 2.46e-05 5.79e-05 5.80e-06 1.12e-06 
     90 2 1.09e-06  230 9.53e-06 4.10e-05 7.35e-06 1.09e-06 
     91 2 1.02e-06  230 6.03e-06 5.19e-05 3.43e-06 1.02e-06 
     92 2 1.11e-06  230 1.89e-05 9.18e-05 6.76e-06 1.11e-06 
     93 2 1.15e-06  230 9.69e-05 7.34e-06 8.04e-06 1.15e-06 
     94 2 1.02e-06  230 3.80e-05 7.18e-05 1.80e-06 1.02e-06 
     95 2 1.13e-06  230 8.84e-05 6.19e-05 2.03e-06 1.13e-06 
     96 2 1.30e-06  230 8.82e-05 2.17e-05 5.11e-06 1.30e-06 
     97 2 8.95e-07  230 7.43e-05 7.84e-05 5.77e-06 8.95e-07 
     98 2 1.00e-06  230 3.74e-05 3.30e-05 1.81e-06 1.00e-06 
     99 2 1.04e-06  230 4.14e-05 8.80e-05 1.16e-06 1.04e-06 
     100 2 8.87e-07  230 4.72e-05 1.61e-05 1.85e-06 8.87e-07 

 Nutrients 

     1 sub g nn nn nn 1.00e-01 1.00e-01 
     2 o2 l nn nn nd 9.00e-03 9.00e-03 
     3 suc l nn nn nn 3.42e-20 3.42e-20 
     4 co2 l nn nn nd 2.99e-02 2.99e-02 

 Type Name 

     1 cyano  
     2 ecw  

 Diffusion Coeffs 

     sub 0 
     o2 2.3e-09 
     suc 5.2e-10 
     co2 1.9e-09 

 Growth Rate 

     cyano 1.67e-05 
     ecw 1.2e-05 

 Ks 

     cyano 0.00035 0.0002 0.01 0.000138 
     ecw 0 0.001 3.6 0.05 

 Yield 

     cyano 0.55 
     ecw 0.43 

 Maintenance 

     cyano 0 
     ecw 9.5e-07 

 Decay 

     cyano 0 
     ecw 0 



