LAMMPS (20 Nov 2019)
Reading data file ...
  orthogonal box = (0 0 0) to (0.0001 0.0001 1e-05)
  8 by 4 by 1 MPI processor grid
  reading atoms ...
  100 atoms
  4 nutrients
Lattice spacing in x,y,z = 100 100 100
50 atoms in group CYANO
50 atoms in group ECW
Model is defined as a closed system. 
Neighbor list info ...
  update every 1 steps, delay 0 steps, check yes
  max neighbors/atom: 5000, page size: 100000
  master list distance cutoff = 2.43e-06
  ghost atom cutoff = 2.43e-06
  binsize = 1.215e-06, bins = 83 83 9
  1 neighbor lists, perpetual/occasional/extra = 1 0 0
  (1) pair gran/hooke/history, perpetual
      attributes: half, newton off, size, history
      pair build: half/size/bin/newtoff
      stencil: half/bin/3d/newtoff
      bin: standard
Setting up Verlet run ...
  Unit style    : lj
  Current step  : 0
  Time step     : 10
Per MPI rank memory allocation (min/avg/max) = 6.793 | 10.97 | 12.11 Mbytes
Step CPU Atoms c_myNtypes[1] c_myNtypes[2] c_myMass[1] c_myMass[2] c_myCon[1] c_myCon[2] c_myCon[3] c_myCon[4] 
       0            0      100           50           50 4.8302773e-14 9.2304743e-15          0.1        0.009     3.42e-20       0.0299 
number of iterations: 325988 
     100    15.807617      136           50           86 4.8942891e-14 9.2236456e-15          0.1 0.0090008309  0.038815247  0.029898616 
number of iterations: 4495 
     200    16.148987      149           50           99 4.9591493e-14 9.2178487e-15          0.1 0.0090008418  0.076897082  0.029898598 
number of iterations: 3199 
     300    16.430878      149           50           99 5.024869e-14 9.2130652e-15          0.1 0.0090008529   0.11545571  0.029898579 
number of iterations: 2604 
     400    16.702381      149           50           99 5.0914597e-14 9.2092851e-15          0.1 0.0090008642   0.15450059   0.02989856 
number of iterations: 2230 
     500    17.087882      151           52           99 5.1589328e-14 9.2064988e-15          0.1 0.0090008639   0.19403952  0.029898561 
number of iterations: 1961 
     600    17.323688      154           55           99 5.2273001e-14 9.204697e-15          0.1 0.0090008665   0.23407989  0.029898556 
number of iterations: 1754 
     700    17.533582      154           55           99 5.2965734e-14 9.2038711e-15          0.1 0.0090008779   0.27462905  0.029898537 
number of iterations: 1587 
     800    17.768649      154           55           99 5.3667647e-14 9.2040124e-15          0.1 0.0090008895   0.31569437  0.029898518 
number of iterations: 1509 
     900    17.985615      156           57           99 5.4378862e-14 9.2051131e-15          0.1 0.0090009012   0.35728316  0.029898498 
number of iterations: 1438 
    1000    18.330038      157           58           99 5.5099502e-14 9.2071649e-15          0.1 0.0090009079   0.39940299  0.029898487 
number of iterations: 1496 
    1100    18.538144      158           59           99 5.5829693e-14 9.2101604e-15          0.1 0.0090009233   0.44206138  0.029898462 
number of iterations: 1448 
    1200    18.735825      160           61           99 5.656956e-14 9.2140924e-15          0.1 0.0090009316   0.48526597  0.029898448 
number of iterations: 1426 
    1300     18.91825      162           63           99 5.7319232e-14 9.2189535e-15          0.1 0.0090009389   0.52902447  0.029898435 
number of iterations: 1454 
    1400    19.122612      162           63           99 5.8078839e-14 9.2247377e-15          0.1 0.0090009513   0.57334467  0.029898415 
number of iterations: 1457 
    1500    19.333018      162           63           99 5.8848512e-14 9.2314389e-15          0.1 0.0090009639   0.61823444  0.029898394 
number of iterations: 1459 
    1600    19.526592      162           63           99 5.9628385e-14 9.239051e-15          0.1 0.0090009766   0.66370177  0.029898372 
number of iterations: 1494 
    1700    19.730846      163           64           99 6.0418593e-14 9.2475686e-15          0.1 0.0090009895   0.70975468  0.029898351 
number of iterations: 1465 
    1800    19.937346      163           64           99 6.1219273e-14 9.2569863e-15          0.1 0.0090010026   0.75640138  0.029898329 
number of iterations: 1468 
    1900    20.124618      163           64           99 6.2030564e-14 9.2672991e-15          0.1 0.0090010159   0.80365013  0.029898307 
number of iterations: 1471 
    2000    20.328761      164           65           99 6.2852606e-14 9.2785024e-15          0.1 0.0090010293   0.85150932  0.029898284 
number of iterations: 1474 
    2100    20.507375      164           65           99 6.3685542e-14 9.2905919e-15          0.1 0.0090010429   0.89998743  0.029898262 
number of iterations: 1618 
    2200    20.716444      165           66           99 6.4529517e-14 9.3035637e-15          0.1  0.009001059   0.94909317  0.029898235 
number of iterations: 1479 
    2300    20.917747      166           67           99 6.5384676e-14 9.3174132e-15          0.1  0.009001073   0.99883506  0.029898212 
number of iterations: 1482 
    2400    21.139365      166           67           99 6.6251167e-14 9.3321367e-15          0.1 0.0090010871    1.0492219  0.029898188 
number of iterations: 1433 
    2500    21.336892      167           68           99 6.7129142e-14 9.3477304e-15          0.1 0.0090010984    1.1002625  0.029898169 
number of iterations: 1477 
    2600    21.530456      169           70           99 6.8018751e-14 9.3641912e-15          0.1 0.0090011079     1.151966  0.029898153 
number of iterations: 1544 
    2700    21.702692      170           71           99 6.892015e-14 9.381516e-15          0.1  0.009001127    1.2043415  0.029898121 
number of iterations: 1493 
    2800    21.996892      170           71           99 6.9833495e-14 9.3997018e-15          0.1 0.0090011419    1.2573981  0.029898096 
number of iterations: 1495 
    2900     22.17354      170           71           99 7.0758943e-14 9.4187459e-15          0.1  0.009001157    1.3111452  0.029898071 
number of iterations: 1498 
    3000     22.38943      171           72           99 7.1696655e-14 9.438646e-15          0.1 0.0090011723    1.3655923  0.029898046 
number of iterations: 1501 
    3100    22.565693      172           73           99 7.2646795e-14 9.4593999e-15          0.1 0.0090011879     1.420749   0.02989802 
number of iterations: 1504 
    3200    22.754565      172           73           99 7.3609525e-14 9.4810054e-15          0.1 0.0090012036     1.476625  0.029897994 
number of iterations: 1681 
    3300    22.938596      173           74           99 7.4585014e-14 9.5034608e-15          0.1 0.0090012229    1.5332301  0.029897961 
number of iterations: 1524 
    3400    23.123396      174           75           99 7.557343e-14 9.5267644e-15          0.1 0.0090012391     1.590574  0.029897934 
number of iterations: 1512 
    3500    23.301112      175           75          100 7.6574945e-14 9.5509146e-15          0.1 0.0090012555    1.6486671  0.029897907 
number of iterations: 1515 
    3600    23.519861      177           75          102 7.7589732e-14 9.5759104e-15          0.1 0.0090012721    1.7075195  0.029897879 
number of iterations: 1624 
    3700    23.742484      178           76          102 7.8617968e-14 9.6017511e-15          0.1 0.0090012923    1.7671416  0.029897846 
number of iterations: 1519 
    3800    23.918472      179           77          102 7.9659829e-14 9.6284356e-15          0.1 0.0090013045    1.8275439  0.029897825 
number of iterations: 1523 
    3900    24.136774      179           77          102 8.0715498e-14 9.6559632e-15          0.1 0.0090013217    1.8887369  0.029897796 
number of iterations: 1526 
    4000    24.353157      179           77          102 8.1785156e-14 9.6843334e-15          0.1 0.0090013392    1.9507314  0.029897767 
number of iterations: 1529 
    4100     24.56818      179           77          102 8.286899e-14 9.7135459e-15          0.1  0.009001357    2.0135384  0.029897738 
number of iterations: 1551 
    4200    24.742941      180           78          102 8.3967187e-14 9.7435999e-15          0.1 0.0090013667    2.0771687  0.029897721 
number of iterations: 1534 
    4300    24.924464      181           78          103 8.5079938e-14 9.774497e-15          0.1 0.0090013848    2.1416336  0.029897691 
number of iterations: 1558 
    4400    25.106661      187           81          106 8.6207435e-14 9.8062378e-15          0.1  0.009001407    2.2069444  0.029897654 
number of iterations: 1647 
    4500    25.299058      190           84          106 8.7349873e-14 9.8388216e-15          0.1 0.0090014201    2.2731128  0.029897632 
number of iterations: 1663 
    4600    25.497484      194           88          106 8.8507452e-14 9.8722493e-15          0.1 0.0090014439    2.3401499  0.029897593 
number of iterations: 1478 
    4700    25.689194      194           88          106 8.9680371e-14 9.9065209e-15          0.1 0.0090014598    2.4080677  0.029897566 
number of iterations: 1548 
    4800    25.861249      195           89          106 9.0868834e-14 9.9416375e-15          0.1 0.0090014791    2.4768781  0.029897534 
number of iterations: 1551 
    4900    26.031113      198           92          106 9.2073046e-14 9.9776002e-15          0.1 0.0090014987    2.5465933  0.029897501 
number of iterations: 1554 
    5000    26.252338      199           93          106 9.3293217e-14 1.001441e-14          0.1 0.0090015186    2.6172253  0.029897468 
number of iterations: 1556 
    5100    26.422861      200           93          107 9.4529558e-14 1.0052069e-14          0.1 0.0090015387    2.6887866  0.029897435 
number of iterations: 1556 
    5200    26.621412      206           97          109 9.5782283e-14 1.0090576e-14          0.1 0.0090015575    2.7612898  0.029897403 
number of iterations: 1563 
    5300    26.843427      207           98          109 9.7051609e-14 1.0129935e-14          0.1 0.0090015781    2.8347474  0.029897369 
number of iterations: 1549 
    5400    27.091425      207           98          109 9.8337757e-14 1.0170149e-14          0.1 0.0090015919    2.9091723  0.029897346 
number of iterations: 1624 
    5500    27.280141      210          101          109 9.9640949e-14 1.0211218e-14          0.1 0.0090016159    2.9845776  0.029897306 
number of iterations: 1570 
    5600     27.46655      210          101          109 1.0096141e-13 1.0253145e-14          0.1 0.0090016373    3.0609765   0.02989727 
number of iterations: 1663 
    5700    27.654094      212          103          109 1.0229937e-13 1.0295933e-14          0.1 0.0090016624    3.1383822  0.029897228 
number of iterations: 1583 
    5800    27.842346      216          105          111 1.0365506e-13 1.0339582e-14          0.1 0.0090016915    3.2168085   0.02989718 
number of iterations: 1611 
    5900    28.030647      218          106          112 1.0502872e-13 1.0384095e-14          0.1 0.0090017151     3.296269   0.02989714 
number of iterations: 1583 
    6000    28.229809      219          106          113 1.0642058e-13 1.0429476e-14          0.1 0.0090017378    3.3767777  0.029897102 
number of iterations: 1560 
    6100    28.430319      221          107          114 1.0783089e-13 1.0475726e-14          0.1 0.0090017578    3.4583486  0.029897069 
number of iterations: 1603 
    6200     28.62695      223          108          115 1.0925989e-13 1.0522849e-14          0.1 0.0090017811    3.5409963   0.02989703 
number of iterations: 1541 
    6300    28.806929      226          109          117 1.1070782e-13 1.0570849e-14          0.1 0.0090018017    3.6247349  0.029896996 
number of iterations: 1612 
    6400    28.984632      228          109          119 1.1217495e-13 1.0619729e-14          0.1  0.009001827    3.7095792  0.029896954 
number of iterations: 1649 
    6500    29.174843      231          112          119 1.1366151e-13 1.0669492e-14          0.1 0.0090018571    3.7955439  0.029896904 
number of iterations: 1589 
    6600    29.349379      235          115          120 1.1516778e-13 1.0720142e-14          0.1 0.0090018817    3.8826441  0.029896862 
number of iterations: 1668 
    6700     29.52219      237          117          120  1.16694e-13 1.0771681e-14          0.1 0.0090019147    3.9708953  0.029896807 
number of iterations: 1607 
    6800    29.727599      238          118          120 1.1824045e-13 1.0824113e-14          0.1 0.0090019401    4.0603127  0.029896765 
number of iterations: 1598 
    6900    29.928261      241          120          121 1.198074e-13 1.0877442e-14          0.1 0.0090019606    4.1509116  0.029896731 
number of iterations: 1575 
    7000    30.163221      242          121          121 1.2139511e-13 1.0931672e-14          0.1 0.0090019769    4.2427082  0.029896704 
number of iterations: 1646 
    7100    30.384234      244          123          121 1.2300387e-13 1.0986809e-14          0.1 0.0090020044    4.3357185  0.029896658 
number of iterations: 1609 
    7200    30.570253      246          125          121 1.2463394e-13 1.1042856e-14          0.1  0.009002031     4.429959  0.029896614 
number of iterations: 1617 
    7300    30.770424      247          126          121 1.2628561e-13 1.1099818e-14          0.1 0.0090020579    4.5254459  0.029896569 
number of iterations: 1712 
    7400    30.953144      250          129          121 1.2795917e-13 1.1157699e-14          0.1  0.009002092    4.6221964  0.029896512 
number of iterations: 1586 
    7500    31.168387      253          132          121 1.2965491e-13 1.1216505e-14          0.1 0.0090021069    4.7202265  0.029896487 
number of iterations: 1599 
    7600     31.35444      255          134          121 1.3137313e-13 1.1276239e-14          0.1 0.0090021301    4.8195541  0.029896448 
number of iterations: 1629 
    7700    31.556188      258          136          122 1.3311411e-13 1.1336907e-14          0.1 0.0090021587    4.9201962  0.029896401 
number of iterations: 1631 
    7800    31.741287      258          136          122 1.3487817e-13 1.1398513e-14          0.1 0.0090021873    5.0221703  0.029896353 
number of iterations: 1633 
    7900    31.917755      258          136          122 1.366656e-13 1.1461062e-14          0.1 0.0090022163    5.1254945  0.029896305 
number of iterations: 1615 
    8000    32.107277      259          137          122 1.3847672e-13 1.1524561e-14          0.1  0.009002241    5.2301866  0.029896263 
number of iterations: 1638 
    8100    32.313751      262          140          122 1.4031184e-13 1.1589012e-14          0.1 0.0090022713     5.336265  0.029896213 
number of iterations: 1597 
    8200    32.528055      264          142          122 1.4217128e-13 1.1654424e-14          0.1 0.0090022971    5.4437481   0.02989617 
number of iterations: 1639 
    8300    32.707145      266          142          124 1.4405536e-13 1.1720802e-14          0.1 0.0090023193    5.5526547  0.029896133 
number of iterations: 1649 
    8400    32.905558      267          143          124 1.4596441e-13 1.1788151e-14          0.1 0.0090023539    5.6630041  0.029896075 
number of iterations: 1663 
    8500    33.086384      269          145          124 1.4789876e-13 1.1856477e-14          0.1 0.0090023886    5.7748153  0.029896017 
number of iterations: 1669 
    8600    33.280306      270          146          124 1.4985874e-13 1.1925787e-14          0.1 0.0090024217    5.8881079  0.029895962 
number of iterations: 1633 
    8700    33.457628      271          147          124 1.518447e-13 1.1996086e-14          0.1 0.0090024508    6.0029018  0.029895913 
number of iterations: 1657 
    8800    33.643123      274          147          127 1.5385698e-13 1.2067382e-14          0.1 0.0090024833     6.119217  0.029895859 
number of iterations: 1737 
    8900    33.837469      277          149          128 1.5589592e-13 1.2139679e-14          0.1 0.0090025261    6.2370739  0.029895788 
number of iterations: 1609 
    9000    34.043236      281          152          129 1.5796188e-13 1.2212986e-14          0.1 0.0090025575    6.3564929  0.029895736 
number of iterations: 1738 
    9100    34.228303      285          156          129 1.6005522e-13 1.2287307e-14          0.1 0.0090025984     6.477495  0.029895667 
number of iterations: 1679 
    9200    34.453555      288          159          129 1.6217631e-13 1.2362651e-14          0.1  0.009002634    6.6001014  0.029895608 
number of iterations: 1675 
    9300    34.637997      292          162          130 1.643255e-13 1.2439024e-14          0.1 0.0090026689    6.7243335   0.02989555 
number of iterations: 1675 
    9400    34.823278      294          164          130 1.6650317e-13 1.2516433e-14          0.1 0.0090026948    6.8502129  0.029895507 
number of iterations: 1684 
    9500    35.004425      297          167          130 1.687097e-13 1.2594884e-14          0.1 0.0090027344    6.9777614  0.029895441 
number of iterations: 1680 
    9600    35.205209      298          167          131 1.7094548e-13 1.2674388e-14          0.1 0.0090027707    7.1070015   0.02989538 
number of iterations: 1607 
    9700    35.389831      304          170          134 1.7321088e-13 1.2754949e-14          0.1 0.0090027961    7.2379553  0.029895338 
number of iterations: 1665 
    9800    35.585494      307          172          135 1.755063e-13 1.2836576e-14          0.1 0.0090028266    7.3706462  0.029895287 
number of iterations: 1778 
    9900     35.79619      312          176          136 1.7783215e-13 1.2919276e-14          0.1 0.0090028743    7.5050969  0.029895207 
number of iterations: 1699 
   10000    35.988149      317          178          139 1.8018881e-13 1.3003058e-14          0.1  0.009002908     7.641332  0.029895151 
number of iterations: 1687 
   10100    36.193544      322          181          141 1.8257671e-13 1.3087928e-14          0.1 0.0090029456    7.7793745  0.029895089 
number of iterations: 1758 
   10200     36.39966      325          184          141 1.8499625e-13 1.3173896e-14          0.1 0.0090029893    7.9192482  0.029895016 
number of iterations: 1724 
   10300    36.608427      329          186          143 1.8744786e-13 1.3260969e-14          0.1  0.009003033     8.060978  0.029894943 
number of iterations: 1693 
   10400    36.798765      333          187          146 1.8993195e-13 1.3349155e-14          0.1 0.0090030699    8.2045885  0.029894881 
number of iterations: 1701 
   10500    36.984562      337          188          149 1.9244897e-13 1.3438463e-14          0.1 0.0090031061    8.3501044  0.029894821 
number of iterations: 1713 
   10600    37.186642      339          190          149 1.9499934e-13 1.3528902e-14          0.1 0.0090031523    8.4975514  0.029894744 
number of iterations: 1773 
   10700    37.390948      343          194          149 1.9758351e-13 1.362048e-14          0.1 0.0090031985    8.6469551  0.029894667 
number of iterations: 1710 
   10800    37.590817      345          195          150 2.0020192e-13 1.3713206e-14          0.1 0.0090032409    8.7983418  0.029894596 
number of iterations: 1720 
   10900    37.797723      348          198          150 2.0285503e-13 1.380709e-14          0.1 0.0090032779    8.9517376  0.029894535 
number of iterations: 1717 
   11000     37.98309      351          200          151 2.0554331e-13 1.390214e-14          0.1 0.0090033168    9.1071698   0.02989447 
number of iterations: 1802 
   11100     38.19444      353          202          151 2.0826721e-13 1.3998364e-14          0.1 0.0090033687    9.2646653  0.029894383 
number of iterations: 1734 
   11200    38.405187      355          203          152 2.110272e-13 1.4095773e-14          0.1 0.0090034145    9.4242516  0.029894307 
number of iterations: 1666 
   11300    38.618774      357          204          153 2.1382377e-13 1.4194377e-14          0.1 0.0090034539    9.5859569  0.029894241 
number of iterations: 1823 
   11400    38.819188      361          208          153 2.1665741e-13 1.4294184e-14          0.1 0.0090035068    9.7498089  0.029894153 
number of iterations: 1788 
   11500    39.013993      367          212          155 2.1952859e-13 1.4395205e-14          0.1 0.0090035616    9.9158364  0.029894062 
number of iterations: 1775 
   11600    39.227614      371          215          156 2.2243783e-13 1.449745e-14          0.1 0.0090036141    10.084068  0.029893974 
number of iterations: 1743 
   11700     39.41555      373          216          157 2.2538561e-13 1.4600928e-14          0.1 0.0090036543    10.254534  0.029893907 
number of iterations: 1749 
   11800    39.606647      382          224          158 2.2837246e-13 1.4705649e-14          0.1 0.0090036906    10.427263  0.029893847 
number of iterations: 1781 
   11900    39.811574      384          226          158 2.313989e-13 1.4811624e-14          0.1 0.0090037359    10.602286  0.029893771 
number of iterations: 1643 
   12000    40.000113      393          232          161 2.3446544e-13 1.4918863e-14          0.1 0.0090037701    10.779633  0.029893714 
number of iterations: 1751 
   12100    40.205498      403          239          164 2.3757262e-13 1.5027376e-14          0.1 0.0090038185    10.959336  0.029893633 
number of iterations: 1753 
   12200    40.393638      405          240          165 2.4072098e-13 1.5137174e-14          0.1  0.009003871    11.141425  0.029893546 
number of iterations: 1717 
   12300    40.591537      409          243          166 2.4391105e-13 1.5248269e-14          0.1 0.0090039211    11.325933  0.029893462 
number of iterations: 1694 
   12400    40.797726      418          252          166 2.4714341e-13 1.536067e-14          0.1 0.0090039637    11.512891  0.029893391 
number of iterations: 1834 
   12500    41.019462      420          254          166 2.504186e-13 1.5474389e-14          0.1 0.0090040234    11.702332  0.029893292 
number of iterations: 1767 
   12600    41.242008      422          256          166 2.5373719e-13 1.5589438e-14          0.1 0.0090040781    11.894289  0.029893201 
number of iterations: 1750 
   12700    41.490009      426          259          167 2.5709976e-13 1.5705827e-14          0.1 0.0090041275    12.088797  0.029893118 
number of iterations: 1776 
   12800    41.678615      429          262          167 2.605069e-13 1.5823569e-14          0.1 0.0090041742    12.285887   0.02989304 
number of iterations: 1771 
   12900    41.913604      432          265          167 2.6395918e-13 1.5942675e-14          0.1 0.0090042295    12.485596  0.029892948 
number of iterations: 1776 
   13000    42.109979      434          266          168 2.6745722e-13 1.6063155e-14          0.1 0.0090042856    12.687958  0.029892855 
number of iterations: 1774 
   13100    42.327474      439          268          171 2.7100161e-13 1.6185023e-14          0.1 0.0090043424    12.893008   0.02989276 
number of iterations: 1833 
   13200    42.514006      444          273          171 2.7459297e-13 1.630829e-14          0.1  0.009004406    13.100782  0.029892654 
number of iterations: 1801 
   13300    42.708625      448          276          172 2.7823193e-13 1.6432968e-14          0.1 0.0090044652    13.311316  0.029892555 
number of iterations: 1621 
   13400    42.891083      454          279          175 2.8191911e-13 1.655907e-14          0.1  0.009004499    13.524648  0.029892499 
number of iterations: 1880 
   13500    43.088989      460          284          176 2.8565515e-13 1.6686609e-14          0.1 0.0090045605    13.740813  0.029892396 
number of iterations: 1840 
   13600    43.288936      462          285          177 2.894407e-13 1.6815598e-14          0.1 0.0090046274    13.959849  0.029892285 
number of iterations: 1726 
   13700    43.493284      467          290          177 2.9327642e-13 1.6946049e-14          0.1 0.0090046693    14.181796  0.029892215 
number of iterations: 1743 
   13800    43.693733      473          292          181 2.9716297e-13 1.7077974e-14          0.1 0.0090047289    14.406691  0.029892116 
number of iterations: 1865 
   13900      43.8889      479          296          183 3.0110103e-13 1.7211388e-14          0.1 0.0090047993    14.634575  0.029891998 
number of iterations: 1801 
   14000    44.105979      486          299          187 3.0509127e-13 1.7346304e-14          0.1 0.0090048676    14.865486  0.029891885 
number of iterations: 1812 
   14100    44.348905      488          301          187 3.091344e-13 1.7482734e-14          0.1  0.009004938    15.099465  0.029891767 
number of iterations: 1811 
   14200    44.567805      497          310          187 3.132311e-13 1.7620693e-14          0.1 0.0090049968    15.336554  0.029891669 
number of iterations: 1815 
   14300    44.786323      506          314          192 3.1738209e-13 1.7760195e-14          0.1 0.0090050713    15.576792  0.029891545 
number of iterations: 1856 
   14400    45.001003      511          318          193 3.215881e-13 1.7901254e-14          0.1  0.009005154    15.820223  0.029891407 
number of iterations: 1767 
   14500    45.185336      518          322          196 3.2584984e-13 1.8043881e-14          0.1 0.0090052105    16.066888  0.029891313 
number of iterations: 1855 
   14600    45.387441      526          328          198 3.3016805e-13 1.8188094e-14          0.1 0.0090052817    16.316831  0.029891194 
number of iterations: 1796 
   14700    45.582106      528          330          198 3.345435e-13 1.8333904e-14          0.1 0.0090053461    16.570096  0.029891087 
number of iterations: 1839 
   14800    45.791518      533          334          199 3.3897693e-13 1.8481327e-14          0.1  0.009005419    16.826726  0.029890965 
number of iterations: 1830 
   14900    45.998727      538          337          201 3.4346911e-13 1.8630379e-14          0.1 0.0090054933    17.086766  0.029890842 
number of iterations: 1878 
   15000    46.211395      543          341          202 3.4802082e-13 1.8781073e-14          0.1 0.0090055801    17.350261  0.029890697 
number of iterations: 1864 
   15100     46.44297      546          344          202 3.5263285e-13 1.8933425e-14          0.1 0.0090056527    17.617259  0.029890576 
number of iterations: 1825 
   15200     46.65482      555          349          206  3.57306e-13 1.9087451e-14          0.1 0.0090057171    17.887805  0.029890469 
number of iterations: 1813 
   15300    46.868433      561          355          206 3.6204108e-13 1.9243165e-14          0.1 0.0090057914    18.161947  0.029890345 
number of iterations: 1883 
   15400    47.306601      563          357          206 3.6683891e-13 1.9400584e-14          0.1 0.0090058735    18.439733  0.029890208 
number of iterations: 1827 
   15500    47.512522      567          360          207 3.7170032e-13 1.9559723e-14          0.1 0.0090059479    18.721211  0.029890084 
number of iterations: 1830 
   15600    47.706139      573          364          209 3.7662615e-13 1.9720598e-14          0.1  0.009006016     19.00643  0.029889971 
number of iterations: 1882 
   15700    47.913463      580          369          211 3.8161727e-13 1.9883224e-14          0.1  0.009006103    19.295439  0.029889825 
number of iterations: 1803 
   15800    48.109414      589          378          211 3.8667452e-13 2.0047618e-14          0.1 0.0090061627    19.588289  0.029889726 
number of iterations: 1817 
   15900    48.303524      593          381          212 3.9179879e-13 2.0213797e-14          0.1 0.0090062349    19.885031  0.029889606 
number of iterations: 1844 
   16000    48.512745      601          387          214 3.9699098e-13 2.0381776e-14          0.1 0.0090063025    20.185716  0.029889493 
number of iterations: 1926 
   16100    48.701919      606          391          215 4.0225197e-13 2.0551573e-14          0.1 0.0090064091    20.490397  0.029889315 
number of iterations: 1901 
   16200    48.900464      617          397          220 4.0758267e-13 2.0723205e-14          0.1 0.0090064829    20.799126  0.029889192 
number of iterations: 1897 
   16300    49.117755      628          405          223 4.1298403e-13 2.0896688e-14          0.1 0.0090065693    21.111959  0.029889048 
number of iterations: 1907 
   16400    49.318493      632          408          224 4.1845696e-13 2.1072042e-14          0.1 0.0090066733    21.428949  0.029888875 
number of iterations: 1881 
   16500    49.533603      639          414          225 4.2400242e-13 2.1249281e-14          0.1 0.0090067552    21.750152  0.029888738 
number of iterations: 1874 
   16600    49.742508      646          421          225 4.2962136e-13 2.1428425e-14          0.1 0.0090068444    22.075622   0.02988859 
number of iterations: 1842 
   16700    49.941208      654          427          227 4.3531478e-13 2.1609491e-14          0.1 0.0090069146    22.405418  0.029888473 
number of iterations: 1903 
   16800    50.149509      662          433          229 4.4108364e-13 2.1792496e-14          0.1 0.0090070089    22.739597  0.029888316 
number of iterations: 1820 
   16900    50.349669      674          444          230 4.4692895e-13 2.197746e-14          0.1  0.009007095    23.078218  0.029888172 
number of iterations: 1913 
   17000    50.567425      683          452          231 4.5285172e-13  2.21644e-14          0.1 0.0090071892    23.421337  0.029888015 
number of iterations: 1921 
   17100    50.797784      695          458          237 4.5885298e-13 2.2353335e-14          0.1 0.0090072753    23.769017  0.029887872 
number of iterations: 1870 
   17200    50.986586      705          465          240 4.6493377e-13 2.2544285e-14          0.1 0.0090073602    24.121318   0.02988773 
number of iterations: 1854 
   17300    51.229618      714          470          244 4.7109515e-13 2.2737267e-14          0.1 0.0090074531    24.478301  0.029887575 
number of iterations: 1900 
   17400    51.508596      724          475          249 4.7733818e-13 2.2932304e-14          0.1 0.0090075512    24.840028  0.029887412 
number of iterations: 1866 
   17500    51.710345      733          482          251 4.8366394e-13 2.3129412e-14          0.1 0.0090076526    25.206563  0.029887243 
number of iterations: 1941 
   17600    51.917447      742          490          252 4.9007353e-13 2.3328612e-14          0.1 0.0090077552     25.57797  0.029887072 
number of iterations: 1905 
   17700    52.323469      751          498          253 4.9656806e-13 2.3529924e-14          0.1 0.0090078591    25.954312  0.029886899 
number of iterations: 1923 
   17800    52.530134      756          502          254 5.0314865e-13 2.3733368e-14          0.1  0.009007966    26.335656   0.02988672 
number of iterations: 1886 
   17900    52.731258      762          506          256 5.0981645e-13 2.3938965e-14          0.1 0.0090080533    26.722069  0.029886575 
number of iterations: 1912 
   18000    53.000873      767          511          256 5.1657262e-13 2.4146735e-14          0.1 0.0090081602    27.113617  0.029886397 
number of iterations: 1912 
   18100    53.216674      772          516          256 5.2341832e-13 2.4356698e-14          0.1 0.0090082696    27.510369  0.029886214 
number of iterations: 1915 
   18200    53.420974      779          520          259 5.3035473e-13 2.4568875e-14          0.1 0.0090083793    27.912394  0.029886031 
number of iterations: 1925 
   18300    53.624233      788          526          262 5.3738307e-13 2.4783289e-14          0.1 0.0090084893    28.319762  0.029885848 
number of iterations: 1923 
   18400    53.821117      796          533          263 5.4450455e-13 2.4999959e-14          0.1 0.0090086024    28.732544   0.02988566 
number of iterations: 1950 
   18500    54.021695      804          536          268 5.5172041e-13 2.5218908e-14          0.1 0.0090087219    29.150812  0.029885461 
number of iterations: 1894 
   18600    54.208961      814          544          270 5.5903189e-13 2.5440158e-14          0.1 0.0090088365    29.574639   0.02988527 
number of iterations: 1933 
   18700     54.46746      830          556          274 5.6644026e-13 2.566373e-14          0.1 0.0090089496    30.004098  0.029885081 
number of iterations: 1884 
   18800    54.704605      840          564          276 5.7394681e-13 2.5889648e-14          0.1 0.0090090451    30.439265  0.029884922 
number of iterations: 1980 
   18900    54.930485      851          572          279 5.8155283e-13 2.6117932e-14          0.1  0.009009174    30.880215  0.029884707 
number of iterations: 1944 
   19000    55.134013      861          580          281 5.8925966e-13 2.6348607e-14          0.1 0.0090093004    31.327026  0.029884497 
number of iterations: 1945 
   19100    55.334443      869          585          284 5.9706861e-13 2.6581696e-14          0.1 0.0090094365    31.779775   0.02988427 
number of iterations: 2009 
   19200    55.556999      874          589          285 6.0498104e-13 2.681722e-14          0.1 0.0090095909     32.23854  0.029884013 
number of iterations: 1937 
   19300    55.779968      880          594          286 6.1299834e-13 2.7055205e-14          0.1 0.0090097111    32.703402  0.029883812 
number of iterations: 1927 
   19400    55.978342      891          604          287 6.2112188e-13 2.7295672e-14          0.1 0.0090098331    33.174442  0.029883609 
number of iterations: 1944 
   19500    56.206016      904          611          293 6.2935307e-13 2.7538648e-14          0.1 0.0090099493    33.651743  0.029883415 
number of iterations: 1930 
   19600    56.413851      918          621          297 6.3769334e-13 2.7784156e-14          0.1   0.00901008    34.135386  0.029883197 
number of iterations: 1950 
   19700    56.629769      931          634          297 6.4614414e-13 2.8032221e-14          0.1 0.0090101686    34.625459   0.02988305 
number of iterations: 1948 
   19800     56.83522      940          641          299 6.5470693e-13 2.8282867e-14          0.1 0.0090102954    35.122044  0.029882838 
number of iterations: 1987 
   19900    57.208489      949          647          302 6.633832e-13 2.8536119e-14          0.1 0.0090104398    35.625228  0.029882598 
number of iterations: 1968 
   20000    57.428736      962          657          305 6.7217444e-13 2.8792003e-14          0.1 0.0090105904    36.135099  0.029882347 
number of iterations: 1988 
   20100    57.626627      981          672          309 6.8108218e-13 2.9050543e-14          0.1 0.0090107363    36.651745  0.029882103 
number of iterations: 1959 
   20200    57.872803      992          680          312 6.9010797e-13 2.9311767e-14          0.1 0.0090108846    37.175257  0.029881856 
number of iterations: 1977 
   20300    58.101263     1006          689          317 6.9925337e-13 2.9575698e-14          0.1 0.0090110321    37.705726  0.029881611 
number of iterations: 2007 
   20400    58.325226     1016          698          318 7.0851997e-13 2.9842364e-14          0.1 0.0090111867    38.243244  0.029881353 
number of iterations: 1948 
   20500    58.527937     1023          705          318 7.1790937e-13 3.0111792e-14          0.1 0.0090113212    38.787906  0.029881129 
number of iterations: 2010 
   20600    58.756438     1035          712          323 7.2742319e-13 3.0384007e-14          0.1 0.0090114733    39.339805  0.029880875 
number of iterations: 1979 
   20700    58.980966     1043          720          323 7.3706309e-13 3.0659039e-14          0.1 0.0090116219    39.899039  0.029880628 
number of iterations: 2032 
   20800    59.217034     1059          732          327 7.4683075e-13 3.0936912e-14          0.1 0.0090117924    40.465706  0.029880344 
number of iterations: 1983 
   20900      59.4416     1075          743          332 7.5672784e-13 3.1217656e-14          0.1 0.0090119502    41.039901  0.029880081 
number of iterations: 2011 
   21000     59.66171     1087          752          335 7.6675609e-13 3.1501298e-14          0.1 0.0090121174    41.621727  0.029879802 
number of iterations: 2021 
   21100    59.863198     1105          764          341 7.7691723e-13 3.1787867e-14          0.1 0.0090122734    42.211285  0.029879542 
number of iterations: 1999 
   21200    60.071111     1122          774          348 7.8721303e-13 3.207739e-14          0.1 0.0090124403    42.808677  0.029879264 
number of iterations: 2014 
   21300    60.277712     1140          787          353 7.9764527e-13 3.2369897e-14          0.1 0.0090126115    43.414008  0.029878979 
number of iterations: 2014 
   21400    60.496797     1159          802          357 8.0821576e-13 3.2665416e-14          0.1 0.0090127621    44.027384  0.029878728 
number of iterations: 2039 
   21500    60.701898     1172          814          358 8.1892633e-13 3.2963978e-14          0.1 0.0090129387    44.648911  0.029878433 
number of iterations: 2045 
   21600     60.90697     1188          828          360 8.2977883e-13 3.3265613e-14          0.1 0.0090131214    45.278697  0.029878129 
number of iterations: 2032 
   21700     61.17081     1201          838          363 8.4077515e-13 3.3570349e-14          0.1 0.0090132995    45.916855  0.029877832 
number of iterations: 2022 
   21800     61.41118     1220          852          368 8.519172e-13 3.3878217e-14          0.1 0.0090134821    46.563492  0.029877528 
number of iterations: 2012 
   21900    61.640506     1228          858          370 8.632069e-13 3.4189249e-14          0.1 0.0090136469    47.218723  0.029877253 
number of iterations: 2027 
   22000    61.849053     1245          872          373 8.7464621e-13 3.4503474e-14          0.1 0.0090138022    47.882662  0.029876994 
number of iterations: 2021 
   22100    62.328311     1255          880          375 8.8623712e-13 3.4820924e-14          0.1 0.0090139957    48.555424  0.029876672 
number of iterations: 2044 
   22200     62.54413     1265          888          377 8.9798163e-13 3.514163e-14          0.1 0.0090141725    49.237128  0.029876377 
number of iterations: 2034 
   22300    62.752963     1285          905          380 9.0988178e-13 3.5465625e-14          0.1 0.0090143816    49.927891  0.029876029 
number of iterations: 2015 
   22400    62.980148     1296          915          381 9.2193963e-13 3.579294e-14          0.1 0.0090145512    50.627832  0.029875746 
number of iterations: 2042 
   22500    63.189859     1308          923          385 9.3415727e-13 3.6123608e-14          0.1 0.0090147438    51.337074  0.029875425 
number of iterations: 2024 
   22600    63.403838     1324          935          389 9.4653681e-13 3.6457662e-14          0.1 0.0090149521    52.055741  0.029875078 
number of iterations: 2037 
   22700    63.639675     1341          949          392 9.5908042e-13 3.6795135e-14          0.1 0.0090151338    52.783957  0.029874775 
number of iterations: 2056 
   22800    63.852196     1353          959          394 9.7179025e-13 3.7136062e-14          0.1 0.0090153465    53.521849  0.029874421 
number of iterations: 2076 
   22900    64.068576     1369          972          397 9.8466851e-13 3.7480475e-14          0.1 0.0090155553    54.269546  0.029874073 
number of iterations: 2081 
   23000     64.30345     1380          981          399 9.9771743e-13 3.7828409e-14          0.1  0.009015782    55.027177  0.029873695 
number of iterations: 2051 
   23100    64.557796     1398          996          402 1.0109393e-12 3.8179898e-14          0.1 0.0090160098    55.794876  0.029873316 
number of iterations: 2039 
   23200    64.767781     1412         1007          405 1.0243363e-12 3.8534977e-14          0.1 0.0090162324    56.572776  0.029872945 
number of iterations: 2081 
   23300    64.984267     1438         1025          413 1.0379109e-12 3.8893681e-14          0.1 0.0090164439    57.361012  0.029872592 
number of iterations: 2066 
   23400    65.231823     1456         1036          420 1.0516654e-12 3.9256046e-14          0.1 0.0090166524    58.159723  0.029872245 
number of iterations: 2083 
   23500    65.459597     1473         1050          423 1.0656022e-12 3.9622108e-14          0.1 0.0090168916    58.969046  0.029871846 
number of iterations: 2070 
   23600    65.716566     1493         1064          429 1.0797236e-12 3.9991904e-14          0.1 0.0090171332    59.789123  0.029871444 
number of iterations: 2052 
   23700    65.942888     1506         1074          432 1.0940322e-12 4.0365469e-14          0.1 0.0090173367    60.620096  0.029871104 
number of iterations: 2101 
   23800    66.160652     1524         1088          436 1.1085304e-12 4.0742841e-14          0.1 0.0090175825    61.462111  0.029870695 
number of iterations: 2087 
   23900    66.380896     1530         1093          437 1.1232208e-12 4.1124057e-14          0.1 0.0090178343    62.315313  0.029870275 
number of iterations: 2108 
   24000    66.592926     1551         1112          439 1.1381058e-12 4.1509156e-14          0.1 0.0090180786    63.179853  0.029869868 
number of iterations: 2047 
   24100    66.821321     1573         1128          445 1.1531881e-12 4.1898174e-14          0.1 0.0090182916    64.055881  0.029869513 
number of iterations: 2078 
   24200     67.29326     1594         1145          449 1.1684702e-12 4.2291152e-14          0.1 0.0090185275    64.943548   0.02986912 
number of iterations: 2066 
   24300    67.502951     1613         1161          452 1.1839548e-12 4.2688128e-14          0.1  0.009018769     65.84301  0.029868718 
number of iterations: 2086 
   24400    67.724334     1633         1174          459 1.1996447e-12 4.3089141e-14          0.1  0.009018997    66.754423  0.029868338 
number of iterations: 2091 
   24500    67.987929     1654         1191          463 1.2155425e-12 4.3494231e-14          0.1 0.0090192452    67.677945  0.029867924 
number of iterations: 2040 
   24600     68.20899     1679         1214          465 1.2316509e-12 4.3903439e-14          0.1 0.0090194774    68.613737  0.029867537 
number of iterations: 2037 
   24700    68.441512     1689         1222          467 1.2458948e-12 4.4316804e-14          0.1 0.0090196793    69.560369  0.029867201 
number of iterations: 2089 
   24800    68.672587     1709         1238          471 1.2624055e-12 4.4734367e-14          0.1 0.0090199301     70.51958  0.029866783 
number of iterations: 2071 
   24900    68.909461     1734         1259          475 1.2791349e-12 4.5156169e-14          0.1 0.0090201743    71.491535  0.029866376 
number of iterations: 2094 
   25000    69.132686     1749         1270          479 1.2960861e-12 4.5582254e-14          0.1  0.009020443    72.476403  0.029865928 
number of iterations: 2087 
   25100    69.368197     1771         1288          483 1.3132619e-12 4.6012662e-14          0.1 0.0090207157    73.474356  0.029865474 
number of iterations: 2160 
   25200    69.612855     1794         1306          488 1.3306654e-12 4.6447437e-14          0.1 0.0090210373    74.485569  0.029864938 
number of iterations: 2110 
   25300    69.858503     1815         1323          492 1.3482994e-12 4.6886621e-14          0.1 0.0090213206    75.510217  0.029864466 
number of iterations: 2087 
   25400    70.104266     1843         1345          498 1.3661672e-12 4.7330257e-14          0.1 0.0090215914    76.548478  0.029864015 
number of iterations: 2109 
   25500    70.342813     1864         1357          507 1.3832491e-12 4.7778391e-14          0.1 0.0090218778     77.59975  0.029863538 
number of iterations: 2139 
   25600    70.565433     1889         1377          512  1.40158e-12 4.8231065e-14          0.1 0.0090221596     78.66499  0.029863068 
number of iterations: 2096 
   25700     70.79765     1920         1403          517 1.4201539e-12 4.8688325e-14          0.1 0.0090224372    79.744382  0.029862605 
number of iterations: 2152 
   25800    71.012633     1946         1422          524 1.4389738e-12 4.9150216e-14          0.1 0.0090227383    80.838114  0.029862104 
number of iterations: 2131 
   25900     71.30835     1964         1436          528 1.4580432e-12 4.9616785e-14          0.1 0.0090230281    81.946377  0.029861621 
number of iterations: 2158 
   26000    71.550567     1994         1460          534 1.4773652e-12 5.0088076e-14          0.1 0.0090233646    83.069363   0.02986106 
number of iterations: 2081 
   26100    71.788222     2007         1468          539 1.4969433e-12 5.0564137e-14          0.1 0.0090236428    84.207269  0.029860597 
number of iterations: 2138 
   26200    72.052717     2029         1487          542 1.5167809e-12 5.1045014e-14          0.1 0.0090239461    85.360292  0.029860091 
number of iterations: 2168 
   26300    72.423349     2050         1502          548 1.5368814e-12 5.1530756e-14          0.1 0.0090242718    86.528634  0.029859548 
number of iterations: 2139 
   26400    72.684965     2078         1526          552 1.5572482e-12 5.202141e-14          0.1  0.009024605    87.712498  0.029858993 
number of iterations: 2151 
   26500      72.9474     2101         1545          556 1.5778849e-12 5.2517024e-14          0.1 0.0090249334     88.91209  0.029858446 
number of iterations: 2171 
   26600    73.170263     2138         1579          559 1.5987951e-12 5.3017649e-14          0.1 0.0090252609    90.127621    0.0298579 
number of iterations: 2156 
   26700     73.45377     2178         1609          569 1.6199824e-12 5.3523334e-14          0.1 0.0090256359      91.3593  0.029857276 
number of iterations: 2140 
   26800    73.685941     2200         1628          572 1.6414504e-12 5.4034128e-14          0.1 0.0090259666    92.607341  0.029856725 
number of iterations: 2149 
   26900    73.931695     2235         1655          580 1.663203e-12 5.4550082e-14          0.1 0.0090263141    93.871962  0.029856146 
number of iterations: 2143 
   27000    74.164279     2262         1674          588 1.6852438e-12 5.5071248e-14          0.1  0.009026668    95.153382  0.029855556 
number of iterations: 2170 
   27100    74.429147     2284         1691          593 1.706552e-12 5.5597677e-14          0.1 0.0090270274    96.451037  0.029854957 
number of iterations: 2150 
   27200    74.682596     2322         1721          601 1.7291672e-12 5.6129421e-14          0.1 0.0090273537    97.765931  0.029854413 
number of iterations: 2175 
   27300    74.923536     2353         1748          605 1.7520822e-12 5.6666532e-14          0.1  0.009027731    99.098292  0.029853785 
number of iterations: 2173 
   27400    75.170874     2374         1764          610 1.7753008e-12 5.7209063e-14          0.1 0.0090280888    100.44835  0.029853189 
number of iterations: 2190 
   27500    75.427402     2400         1786          614 1.7988272e-12 5.7757068e-14          0.1 0.0090284469    101.81635  0.029852592 
number of iterations: 2188 
   27600     75.66326     2442         1820          622 1.8226653e-12 5.8310603e-14          0.1 0.0090288643    103.20252  0.029851896 
number of iterations: 2196 
   27700    75.923195     2469         1840          629 1.8468192e-12 5.886972e-14          0.1 0.0090292683     104.6071  0.029851223 
number of iterations: 2191 
   27800    76.180897     2498         1860          638 1.8712933e-12 5.9434476e-14          0.1 0.0090296723    106.03035   0.02985055 
number of iterations: 2195 
   27900    76.533195     2533         1885          648 1.8960917e-12 6.0004926e-14          0.1 0.0090300615     107.4725  0.029849902 
number of iterations: 2195 
   28000    76.764101     2562         1909          653 1.9212187e-12 6.0581127e-14          0.1 0.0090304498     108.9338  0.029849255 
number of iterations: 2171 
   28100    77.012595     2587         1930          657 1.9466787e-12 6.1163135e-14          0.1 0.0090308451    110.41452  0.029848596 
number of iterations: 2179 
   28200      77.3471     2626         1968          658 1.9724761e-12 6.1751008e-14          0.1  0.009031265     111.9149  0.029847896 
number of iterations: 2187 
   28300    77.585154     2656         1994          662 1.9986154e-12 6.2344805e-14          0.1 0.0090316634    113.43522  0.029847233 
number of iterations: 2200 
   28400    77.830923     2685         2016          669 2.025101e-12 6.2944584e-14          0.1 0.0090321106    114.97573  0.029846488 
number of iterations: 2200 
   28500    78.089251     2708         2034          674 2.0519377e-12 6.3550405e-14          0.1 0.0090325126    116.53671  0.029845818 
number of iterations: 2180 
   28600    78.340802     2734         2052          682 2.0791299e-12 6.4162326e-14          0.1 0.0090329333    118.11842  0.029845117 
number of iterations: 2226 
   28700    78.631912     2764         2074          690 2.1066825e-12 6.4780409e-14          0.1 0.0090333811    119.72114  0.029844371 
number of iterations: 2174 
   28800    78.887351     2797         2099          698 2.1332703e-12 6.5404715e-14          0.1  0.009033795    121.34414  0.029843681 
number of iterations: 2207 
   28900    79.143374     2835         2126          709 2.1615404e-12 6.6035306e-14          0.1 0.0090342616    122.98868  0.029842904 
number of iterations: 2225 
   29000    79.418797     2856         2140          716 2.1901851e-12 6.6672243e-14          0.1 0.0090347497    124.65508   0.02984209 
number of iterations: 2220 
   29100    79.668484     2896         2169          727 2.2192094e-12 6.7315591e-14          0.1 0.0090352048     126.3436  0.029841332 
number of iterations: 2219 
   29200    79.917719     2931         2194          737 2.2486183e-12 6.7965412e-14          0.1 0.0090356455    128.05456  0.029840598 
number of iterations: 2225 
   29300    80.180683     2974         2228          746 2.2784169e-12 6.8621769e-14          0.1 0.0090360979    129.78824  0.029839844 
number of iterations: 2231 
   29400    80.429553     3004         2254          750 2.3086104e-12 6.928473e-14          0.1 0.0090366044    131.54495     0.029839 
number of iterations: 2268 
   29500    80.716796     3039         2281          758 2.3392041e-12 6.9954358e-14          0.1 0.0090371063      133.325  0.029838164 
number of iterations: 2229 
   29600    80.967329     3080         2313          767 2.3702031e-12 7.0630721e-14          0.1  0.009037596    135.12868  0.029837348 
number of iterations: 2256 
   29700    81.262932     3126         2349          777 2.401613e-12 7.1313886e-14          0.1 0.0090381477    136.95633  0.029836429 
number of iterations: 2224 
   29800    81.505847     3164         2384          780 2.4334391e-12 7.200392e-14          0.1  0.009038656    138.80824  0.029835582 
number of iterations: 2244 
   29900     81.76794     3201         2416          785 2.4656869e-12 7.2700891e-14          0.1 0.0090391423    140.68476  0.029834772 
number of iterations: 2236 
   30000    82.016929     3237         2444          793 2.4983621e-12 7.3404866e-14          0.1 0.0090396497     142.5862  0.029833926 
number of iterations: 2247 
   30100    82.487961     3284         2487          797 2.5306325e-12 7.4115915e-14          0.1 0.0090401178    144.51225  0.029833147 
number of iterations: 2258 
   30200    82.747461     3321         2517          804 2.5618298e-12 7.4834109e-14          0.1 0.0090406513     146.4621  0.029832258 
number of iterations: 2196 
   30300     83.02921     3347         2536          811 2.5957791e-12 7.5559517e-14          0.1 0.0090411051    148.43784  0.029831502 
number of iterations: 2245 
   30400    83.290361     3392         2568          824 2.6287147e-12 7.6292213e-14          0.1 0.0090416201     150.4387  0.029830643 
number of iterations: 2258 
   30500    83.561003     3429         2601          828 2.6635502e-12 7.7032268e-14          0.1 0.0090421828    152.46614  0.029829706 
number of iterations: 2254 
   30600    83.829215     3492         2659          833 2.6988474e-12 7.7779756e-14          0.1 0.0090427619    154.52051  0.029828741 
number of iterations: 2228 
   30700    84.084489     3534         2696          838 2.7335968e-12 7.8534751e-14          0.1 0.0090433182    156.60139  0.029827814 
number of iterations: 2243 
   30800    84.374921     3578         2735          843 2.7698222e-12 7.9297326e-14          0.1 0.0090438693     158.7099  0.029826896 
number of iterations: 2275 
   30900    84.633541     3622         2772          850 2.8065277e-12 8.0067559e-14          0.1 0.0090444534    160.84642  0.029825923 
number of iterations: 2273 
   31000    84.916308     3658         2798          860 2.8437196e-12 8.0845524e-14          0.1 0.0090450647    163.01132  0.029824905 
number of iterations: 2274 
   31100     85.27443     3705         2838          867 2.8814044e-12 8.1631299e-14          0.1 0.0090456374    165.20497   0.02982395 
number of iterations: 2265 
   31200    85.535011     3740         2868          872 2.9195885e-12 8.2424959e-14          0.1 0.0090462255    167.42775   0.02982297 
number of iterations: 2277 
   31300    85.808402     3800         2916          884 2.9573936e-12 8.3226585e-14          0.1  0.009046849    169.67938  0.029821932 
number of iterations: 2292 
   31400    86.070767     3854         2963          891 2.9965847e-12 8.4036257e-14          0.1  0.009047519    171.96092  0.029820816 
number of iterations: 2281 
   31500    86.324644     3905         3011          894 3.0362952e-12 8.4854054e-14          0.1  0.009048153    174.27276  0.029819759 
number of iterations: 2273 
   31600    86.601027     3940         3039          901 3.0753662e-12 8.5680056e-14          0.1 0.0090487568     176.6144  0.029818753 
number of iterations: 2272 
   31700    86.864447     3981         3074          907 3.1161207e-12 8.6514346e-14          0.1 0.0090493725    178.98715  0.029817727 
number of iterations: 2296 
   31800    87.226254     4030         3116          914 3.1574152e-12 8.7357007e-14          0.1 0.0090500104    181.39141  0.029816665 
number of iterations: 2294 
   31900    87.585769     4093         3169          924 3.199257e-12 8.820812e-14          0.1 0.0090506508     183.8276  0.029815598 
number of iterations: 2282 
   32000    87.863678     4150         3218          932 3.2416532e-12 8.9067769e-14          0.1  0.009051302    186.29615  0.029814513 
number of iterations: 2319 
   32100    88.163283     4194         3250          944 3.2846112e-12 8.993604e-14          0.1 0.0090519759    188.79748   0.02981339 
number of iterations: 2298 
   32200    88.441036     4239         3286          953 3.3271075e-12 9.0813017e-14          0.1 0.0090526503    191.33124  0.029812266 
number of iterations: 2312 
   32300    88.740407     4288         3328          960 3.371198e-12 9.1698788e-14          0.1 0.0090533476    193.89865  0.029811105 
number of iterations: 2303 
   32400    89.020466     4348         3375          973 3.4158727e-12 9.259344e-14          0.1  0.009054056    196.50016  0.029809924 
number of iterations: 2294 
   32500    89.281148     4399         3416          983 3.4611394e-12 9.3497061e-14          0.1 0.0090547274    199.13622  0.029808806 
number of iterations: 2298 
   32600    89.607246     4464         3467          997 3.5056487e-12 9.440974e-14          0.1 0.0090554447    201.80625  0.029807611 
number of iterations: 2280 
   32700    89.850808     4518         3511         1007 3.5507891e-12 9.5331565e-14          0.1 0.0090560888    204.51075  0.029806538 
number of iterations: 2311 
   32800    90.148291     4582         3560         1022 3.5969089e-12 9.6262629e-14          0.1 0.0090567909    207.25044  0.029805368 
number of iterations: 2333 
   32900    90.431247     4639         3600         1039 3.6445746e-12 9.7203026e-14          0.1 0.0090575934    210.02654  0.029804031 
number of iterations: 2319 
   33000    90.708696     4698         3651         1047 3.692872e-12 9.8152847e-14          0.1 0.0090583648    212.83953  0.029802746 
number of iterations: 2280 
   33100    90.966967     4755         3699         1056 3.7393922e-12 9.9112185e-14          0.1 0.0090590451    215.68803  0.029801612 
number of iterations: 2304 
   33200    91.263573     4796         3737         1059 3.7889461e-12 1.0008114e-13          0.1 0.0090598128    218.57435  0.029800333 
number of iterations: 2336 
   33300    91.549754     4856         3783         1073 3.8377559e-12 1.0105979e-13          0.1 0.0090606057    221.49794  0.029799012 
number of iterations: 2326 
   33400    91.864461     4912         3824         1088 3.8875805e-12 1.0204826e-13          0.1 0.0090613674    224.45955  0.029797743 
number of iterations: 2360 
   33500    92.196665     4979         3884         1095 3.9378789e-12 1.0304662e-13          0.1 0.0090621684    227.45958  0.029796409 
number of iterations: 2336 
   33600    92.541224     5036         3931         1105 3.990063e-12 1.0405499e-13          0.1 0.0090629375    230.49944  0.029795127 
number of iterations: 2339 
   33700    92.806111     5105         3986         1119 4.0429387e-12 1.0507346e-13          0.1  0.009063792    233.57967  0.029793704 
number of iterations: 2361 
   33800    93.099661     5173         4047         1126 4.096515e-12 1.0610213e-13          0.1 0.0090646903     236.7008  0.029792207 
number of iterations: 2330 
   33900     93.36205     5233         4103         1130 4.1495364e-12 1.071411e-13          0.1 0.0090655216     239.8624  0.029790822 
number of iterations: 2304 
   34000     93.69447     5302         4157         1145 4.1997526e-12 1.0819048e-13          0.1 0.0090662899    243.06236  0.029789542 
number of iterations: 2345 
   34100    93.971973     5363         4206         1157 4.255407e-12 1.0925037e-13          0.1 0.0090671579    246.30482  0.029788096 
number of iterations: 2352 
   34200    94.252795     5427         4254         1173 4.3105968e-12 1.1032088e-13          0.1 0.0090680489    249.58942  0.029786612 
number of iterations: 2327 
   34300    94.608031     5492         4302         1190 4.3650337e-12 1.114021e-13          0.1 0.0090688736    252.91556  0.029785238 
number of iterations: 2378 
   34400    94.924017     5548         4346         1202 4.4228783e-12 1.1249415e-13          0.1 0.0090698645    256.28587  0.029783587 
number of iterations: 2355 
   34500    95.203512     5632         4414         1218 4.4802916e-12 1.1359714e-13          0.1 0.0090707684    259.70002  0.029782081 
number of iterations: 2338 
   34600    95.579122     5698         4462         1236 4.5370987e-12 1.1471116e-13          0.1 0.0090716449    263.15754  0.029780621 
number of iterations: 2366 
   34700    95.863195     5756         4507         1249 4.5939451e-12 1.1583634e-13          0.1 0.0090725366    266.65849  0.029779135 
number of iterations: 2374 
   34800    96.165529     5829         4567         1262 4.6535575e-12 1.1697278e-13          0.1 0.0090735209    270.20495  0.029777495 
number of iterations: 2378 
   34900    96.465895     5890         4615         1275 4.7116201e-12 1.181206e-13          0.1 0.0090744532    273.79573  0.029775942 
number of iterations: 2389 
   35000    96.780708     5964         4686         1278 4.7728997e-12 1.1927991e-13          0.1 0.0090754655     277.4333  0.029774256 
Loop time of 96.7808 on 32 procs for 35000 steps with 5964 atoms

Performance: 312458825.092 tau/day, 361.642 timesteps/s
92.0% CPU use with 32 MPI tasks x no OpenMP threads

MPI task timing breakdown:
Section |  min time  |  avg time  |  max time  |%varavg| %total
---------------------------------------------------------------
Pair    | 0.014844   | 0.087513   | 0.25809    |  18.2 |  0.09
Neigh   | 0.0063201  | 0.027221   | 0.070943   |   8.7 |  0.03
Comm    | 0.11259    | 0.21147    | 0.29137    |  10.6 |  0.22
Output  | 25.194     | 25.194     | 25.205     |   0.0 | 26.03
Modify  | 70.705     | 70.755     | 70.841     |   0.4 | 73.11
Other   |            | 0.5056     |            |       |  0.52

Nlocal:    186.375 ave 448 max 33 min
Histogram: 2 4 8 7 4 3 1 2 0 1
Nghost:    114.125 ave 221 max 28 min
Histogram: 6 1 1 7 4 3 4 2 2 2
Neighs:    705.188 ave 1841 max 97 min
Histogram: 2 6 6 10 1 2 2 0 2 1

Total # of neighbors = 22566
Ave neighs/atom = 3.7837
Neighbor list builds = 719
Dangerous builds = 0
Total wall time: 0:01:36
