 NUFEB Simulation

     100 atoms 
     2 atom types 
     4 nutrients 

  0.0e-4   1.00e-04  xlo xhi 
  0.0e-4   1.00e-04  ylo yhi 
  0.0e-4   1.00e-05  zlo zhi 

 Atoms 

     1 1 1.44e-06  370 3.61e-05 5.23e-05 2.22e-06 1.44e-06 
     2 1 1.84e-06  370 8.40e-05 9.77e-05 4.26e-06 1.84e-06 
     3 1 1.93e-06  370 4.50e-05 5.62e-05 4.86e-06 1.93e-06 
     4 1 1.61e-06  370 5.66e-05 8.95e-05 4.90e-06 1.61e-06 
     5 1 1.85e-06  370 5.55e-05 7.46e-05 2.63e-06 1.85e-06 
     6 1 1.47e-06  370 9.38e-05 2.32e-05 1.80e-06 1.47e-06 
     7 1 1.43e-06  370 4.26e-05 8.34e-05 2.66e-06 1.43e-06 
     8 1 1.49e-06  370 8.57e-05 6.34e-05 7.83e-06 1.49e-06 
     9 1 1.56e-06  370 1.50e-05 9.38e-05 7.25e-06 1.56e-06 
     10 1 1.47e-06  370 1.51e-05 4.91e-05 5.80e-06 1.47e-06 
     11 1 1.45e-06  370 4.67e-05 4.62e-06 8.46e-06 1.45e-06 
     12 1 1.85e-06  370 7.83e-05 9.71e-05 6.20e-06 1.85e-06 
     13 1 1.43e-06  370 6.44e-05 1.91e-05 3.73e-06 1.43e-06 
     14 1 1.83e-06  370 3.21e-05 3.28e-05 6.28e-06 1.83e-06 
     15 1 1.63e-06  370 4.98e-05 7.43e-06 2.32e-06 1.63e-06 
     16 1 1.65e-06  370 5.77e-05 5.70e-05 6.91e-06 1.65e-06 
     17 1 1.47e-06  370 4.86e-05 1.32e-05 4.61e-06 1.47e-06 
     18 1 1.58e-06  370 3.30e-05 7.50e-05 4.72e-06 1.58e-06 
     19 1 1.40e-06  370 9.33e-05 7.53e-05 8.38e-06 1.40e-06 
     20 1 1.48e-06  370 7.93e-05 9.45e-05 6.82e-06 1.48e-06 
     21 1 1.82e-06  370 8.58e-05 5.46e-05 4.38e-06 1.82e-06 
     22 1 1.91e-06  370 1.53e-05 9.51e-05 7.07e-06 1.91e-06 
     23 1 1.39e-06  370 7.41e-05 1.48e-05 8.22e-06 1.39e-06 
     24 1 1.78e-06  370 8.01e-05 4.11e-05 4.97e-06 1.78e-06 
     25 1 1.48e-06  370 1.43e-05 6.74e-05 8.08e-06 1.48e-06 
     26 1 1.43e-06  370 5.66e-05 3.48e-05 3.79e-06 1.43e-06 
     27 1 1.62e-06  370 5.50e-05 6.33e-05 8.16e-06 1.62e-06 
     28 1 1.92e-06  370 3.21e-05 8.15e-06 4.01e-06 1.92e-06 
     29 1 1.41e-06  370 5.24e-05 4.79e-05 2.20e-06 1.41e-06 
     30 1 1.62e-06  370 2.07e-05 7.23e-05 3.00e-06 1.62e-06 
     31 1 1.60e-06  370 7.92e-05 8.65e-05 4.46e-06 1.60e-06 
     32 1 1.81e-06  370 7.48e-05 1.92e-05 8.05e-06 1.81e-06 
     33 1 1.86e-06  370 7.06e-05 2.19e-05 4.45e-06 1.86e-06 
     34 1 1.78e-06  370 5.43e-05 9.13e-05 7.53e-06 1.78e-06 
     35 1 1.44e-06  370 6.54e-06 9.56e-06 5.25e-06 1.44e-06 
     36 1 1.58e-06  370 2.30e-05 3.77e-05 5.29e-06 1.58e-06 
     37 1 1.47e-06  370 4.30e-05 6.50e-05 8.14e-06 1.47e-06 
     38 1 1.64e-06  370 6.79e-05 2.08e-05 5.83e-06 1.64e-06 
     39 1 1.48e-06  370 9.16e-05 6.90e-05 1.59e-06 1.48e-06 
     40 1 1.48e-06  370 6.25e-05 6.01e-05 6.54e-06 1.48e-06 
     41 1 1.87e-06  370 6.91e-05 4.96e-05 5.80e-06 1.87e-06 
     42 1 1.65e-06  370 7.98e-05 2.88e-05 3.00e-06 1.65e-06 
     43 1 1.47e-06  370 1.51e-05 5.34e-05 7.13e-06 1.47e-06 
     44 1 1.63e-06  370 5.40e-05 2.71e-05 6.19e-06 1.63e-06 
     45 1 1.85e-06  370 5.87e-05 9.73e-05 5.12e-06 1.85e-06 
     46 1 1.54e-06  370 5.34e-05 7.71e-05 4.06e-06 1.54e-06 
     47 1 1.74e-06  370 1.17e-05 4.10e-05 3.55e-06 1.74e-06 
     48 1 1.39e-06  370 5.25e-05 5.95e-05 2.09e-06 1.39e-06 
     49 1 1.81e-06  370 7.09e-05 2.77e-05 7.30e-06 1.81e-06 
     50 1 1.39e-06  370 4.65e-05 2.44e-05 4.88e-06 1.39e-06 
     51 2 1.33e-06  230 1.50e-05 8.44e-05 7.65e-06 1.33e-06 
     52 2 8.84e-07  230 1.37e-05 6.39e-05 6.58e-06 8.84e-07 
     53 2 1.07e-06  230 7.88e-05 1.59e-05 2.56e-06 1.07e-06 
     54 2 1.22e-06  230 4.61e-05 9.18e-05 2.66e-06 1.22e-06 
     55 2 1.25e-06  230 1.15e-05 8.06e-05 5.43e-06 1.25e-06 
     56 2 9.55e-07  230 4.70e-05 6.66e-05 6.90e-06 9.55e-07 
     57 2 1.22e-06  230 6.42e-05 1.80e-05 6.34e-06 1.22e-06 
     58 2 1.19e-06  230 5.18e-05 3.71e-05 2.51e-06 1.19e-06 
     59 2 9.81e-07  230 5.21e-05 5.71e-06 5.28e-06 9.81e-07 
     60 2 9.03e-07  230 1.27e-05 2.48e-05 4.53e-06 9.03e-07 
     61 2 1.03e-06  230 1.13e-05 2.62e-05 6.29e-06 1.03e-06 
     62 2 1.20e-06  230 4.84e-05 4.53e-05 2.84e-06 1.20e-06 
     63 2 1.38e-06  230 5.62e-05 5.64e-05 8.05e-06 1.38e-06 
     64 2 9.22e-07  230 7.95e-05 2.48e-05 3.06e-06 9.22e-07 
     65 2 1.24e-06  230 2.54e-05 6.23e-05 1.85e-06 1.24e-06 
     66 2 1.23e-06  230 1.32e-05 4.35e-05 5.11e-06 1.23e-06 
     67 2 9.12e-07  230 9.55e-05 4.94e-05 4.98e-06 9.12e-07 
     68 2 9.36e-07  230 1.78e-05 1.59e-05 6.33e-06 9.36e-07 
     69 2 1.13e-06  230 8.30e-05 8.00e-05 2.87e-06 1.13e-06 
     70 2 1.33e-06  230 2.31e-05 4.28e-05 1.49e-06 1.33e-06 
     71 2 9.05e-07  230 4.99e-05 1.20e-05 3.92e-06 9.05e-07 
     72 2 1.19e-06  230 4.55e-05 9.17e-05 1.42e-06 1.19e-06 
     73 2 1.31e-06  230 6.46e-05 8.93e-06 7.79e-06 1.31e-06 
     74 2 1.04e-06  230 9.39e-05 8.71e-05 3.96e-06 1.04e-06 
     75 2 9.62e-07  230 9.63e-05 6.33e-05 7.62e-06 9.62e-07 
     76 2 1.29e-06  230 2.50e-05 1.83e-05 3.26e-06 1.29e-06 
     77 2 1.33e-06  230 4.43e-05 4.15e-05 5.23e-06 1.33e-06 
     78 2 1.14e-06  230 9.47e-05 2.43e-05 6.85e-06 1.14e-06 
     79 2 9.84e-07  230 7.19e-05 6.71e-06 4.86e-06 9.84e-07 
     80 2 1.03e-06  230 3.51e-05 5.96e-05 4.21e-06 1.03e-06 
     81 2 1.36e-06  230 7.18e-05 4.26e-05 4.18e-06 1.36e-06 
     82 2 1.31e-06  230 2.00e-05 6.90e-06 2.71e-06 1.31e-06 
     83 2 1.35e-06  230 3.86e-05 7.27e-05 4.07e-06 1.35e-06 
     84 2 9.23e-07  230 8.63e-06 2.51e-05 1.20e-06 9.23e-07 
     85 2 1.25e-06  230 5.60e-05 6.63e-05 5.14e-06 1.25e-06 
     86 2 1.02e-06  230 5.11e-05 3.41e-05 8.10e-06 1.02e-06 
     87 2 1.11e-06  230 1.70e-05 6.77e-05 4.99e-06 1.11e-06 
     88 2 1.18e-06  230 6.57e-05 5.95e-05 6.64e-06 1.18e-06 
     89 2 1.33e-06  230 5.84e-05 8.91e-05 5.76e-06 1.33e-06 
     90 2 1.32e-06  230 8.35e-05 3.49e-05 4.43e-06 1.32e-06 
     91 2 1.01e-06  230 2.82e-05 2.52e-05 3.73e-06 1.01e-06 
     92 2 1.20e-06  230 1.58e-05 8.59e-05 1.50e-06 1.20e-06 
     93 2 1.29e-06  230 6.55e-05 9.60e-05 4.53e-06 1.29e-06 
     94 2 1.28e-06  230 1.52e-05 5.08e-05 3.74e-06 1.28e-06 
     95 2 1.26e-06  230 2.15e-05 9.05e-05 3.85e-06 1.26e-06 
     96 2 1.23e-06  230 1.45e-05 2.46e-05 2.88e-06 1.23e-06 
     97 2 1.06e-06  230 8.21e-05 7.68e-05 7.51e-06 1.06e-06 
     98 2 1.16e-06  230 8.59e-05 4.65e-05 7.02e-06 1.16e-06 
     99 2 1.01e-06  230 1.68e-05 6.16e-05 5.23e-06 1.01e-06 
     100 2 1.33e-06  230 8.38e-05 2.58e-05 3.53e-06 1.33e-06 

 Nutrients 

     1 sub g nn nn nn 1.00e-01 1.00e-01 
     2 o2 l nn nn nd 9.00e-03 9.00e-03 
     3 suc l nn nn nn 3.42e-20 3.42e-20 
     4 co2 l nn nn nd 2.99e-02 2.99e-02 

 Type Name 

     1 cyano  
     2 ecw  

 Diffusion Coeffs 

     sub 0 
     o2 2.3e-09 
     suc 5.2e-10 
     co2 1.9e-09 

 Growth Rate 

     cyano 1.67e-05 
     ecw 9e-06 

 Ks 

     cyano 0.00035 0.0002 0.01 0.000138 
     ecw 0 0.001 3.6 0.05 

 Yield 

     cyano 0.55 
     ecw 0.43 

 Maintenance 

     cyano 0 
     ecw 9.5e-07 

 Decay 

     cyano 0 
     ecw 0 



