LAMMPS (20 Nov 2019)
Reading data file ...
  orthogonal box = (0 0 0) to (0.0001 0.0001 1e-05)
  8 by 4 by 1 MPI processor grid
  reading atoms ...
  100 atoms
  4 nutrients
Lattice spacing in x,y,z = 100 100 100
50 atoms in group CYANO
50 atoms in group ECW
Model is defined as a closed system. 
Neighbor list info ...
  update every 1 steps, delay 0 steps, check yes
  max neighbors/atom: 5000, page size: 100000
  master list distance cutoff = 2.43e-06
  ghost atom cutoff = 2.43e-06
  binsize = 1.215e-06, bins = 83 83 9
  1 neighbor lists, perpetual/occasional/extra = 1 0 0
  (1) pair gran/hooke/history, perpetual
      attributes: half, newton off, size, history
      pair build: half/size/bin/newtoff
      stencil: half/bin/3d/newtoff
      bin: standard
Setting up Verlet run ...
  Unit style    : lj
  Current step  : 0
  Time step     : 10
Per MPI rank memory allocation (min/avg/max) = 5.792 | 10.47 | 12.11 Mbytes
Step CPU Atoms c_myNtypes[1] c_myNtypes[2] c_myMass[1] c_myMass[2] c_myCon[1] c_myCon[2] c_myCon[3] c_myCon[4] 
       0            0      100           50           50 4.2178975e-14 9.6180895e-15          0.1        0.009     3.42e-20       0.0299 
number of iterations: 325667 
     100    15.858782      134           50           84 4.273794e-14 9.6105926e-15          0.1 0.0090006731  0.033893384  0.029898879 
number of iterations: 4265 
     200     16.19663      151           50          101 4.3304313e-14 9.6038001e-15          0.1 0.0090006819  0.067153873  0.029898864 
number of iterations: 2780 
     300    16.460756      151           50          101 4.3878191e-14 9.5977143e-15          0.1 0.0090006909   0.10083541  0.029898849 
number of iterations: 2265 
     400    16.698341      151           50          101 4.4459674e-14 9.5923274e-15          0.1 0.0090007001   0.13494653  0.029898834 
number of iterations: 1978 
     500    16.915627      152           51          101 4.5048863e-14 9.587633e-15          0.1 0.0090007093   0.16949382  0.029898818 
number of iterations: 1789 
     600    17.300343      153           52          101 4.5645861e-14 9.5836254e-15          0.1 0.0090007211   0.20448361  0.029898798 
number of iterations: 1653 
     700    17.532032      154           53          101 4.625077e-14 9.5802993e-15          0.1 0.0090007306    0.2399222  0.029898783 
number of iterations: 1545 
     800    17.740836      154           53          101 4.6863695e-14 9.5776498e-15          0.1 0.0090007403    0.2758159  0.029898766 
number of iterations: 1457 
     900    17.935225      154           53          101 4.7484743e-14 9.575672e-15          0.1 0.0090007501   0.31217109   0.02989875 
number of iterations: 1387 
    1000    18.200445      154           53          101 4.8114021e-14 9.5743612e-15          0.1   0.00900076   0.34899422  0.029898734 
number of iterations: 1376 
    1100    18.385554      154           53          101 4.8751638e-14 9.573713e-15          0.1   0.00900077   0.38629179  0.029898717 
number of iterations: 1338 
    1200    18.567633      155           54          101 4.9397705e-14 9.573723e-15          0.1 0.0090007755   0.42407041  0.029898708 
number of iterations: 1488 
    1300    18.783218      156           55          101 5.0052334e-14 9.5743872e-15          0.1 0.0090007881   0.46233674  0.029898687 
number of iterations: 1384 
    1400    19.040233      156           55          101 5.0715639e-14 9.5757016e-15          0.1 0.0090007986   0.50109753  0.029898669 
number of iterations: 1646 
    1500    19.260179      159           58          101 5.1387733e-14 9.5776623e-15          0.1  0.009000814   0.54035961  0.029898643 
number of iterations: 1684 
    1600    19.471167      160           59          101 5.2068735e-14 9.5802656e-15          0.1 0.0090008279   0.58012979   0.02989862 
number of iterations: 1483 
    1700    19.661147      161           60          101 5.2758761e-14 9.5835078e-15          0.1 0.0090008425    0.6204152  0.029898596 
number of iterations: 1512 
    1800    19.863331      162           61          101 5.3457931e-14 9.5873855e-15          0.1 0.0090008561   0.66122293  0.029898573 
number of iterations: 1407 
    1900    20.064396      162           61          101 5.4166367e-14 9.5918954e-15          0.1 0.0090008674   0.70256017  0.029898554 
number of iterations: 1573 
    2000    20.281809      164           63          101 5.4884192e-14 9.597034e-15          0.1 0.0090008838   0.74443419  0.029898527 
number of iterations: 1412 
    2100    20.472638      164           63          101 5.5611529e-14 9.6027985e-15          0.1 0.0090008955   0.78685237  0.029898508 
number of iterations: 1415 
    2200    20.670423      164           63          101 5.6348505e-14 9.6091856e-15          0.1 0.0090009073   0.82982217  0.029898488 
number of iterations: 1372 
    2300    20.859261      166           65          101 5.7095247e-14 9.6161925e-15          0.1 0.0090009145   0.87335115  0.029898476 
number of iterations: 1417 
    2400    21.038228      166           65          101 5.7851886e-14 9.6238164e-15          0.1 0.0090009266   0.91744697  0.029898456 
number of iterations: 1420 
    2500    21.233464      166           65          101 5.8618551e-14 9.6320546e-15          0.1 0.0090009389   0.96211739  0.029898435 
number of iterations: 1423 
    2600    21.445874      166           65          101 5.9395377e-14 9.6409045e-15          0.1 0.0090009513    1.0073703  0.029898414 
number of iterations: 1425 
    2700    21.646141      166           65          101 6.0182497e-14 9.6503636e-15          0.1 0.0090009639    1.0532135  0.029898393 
number of iterations: 1428 
    2800    21.832556      166           65          101 6.0980048e-14 9.6604295e-15          0.1 0.0090009766    1.0996552  0.029898372 
number of iterations: 1431 
    2900    22.035087      167           66          101 6.1788169e-14 9.6710999e-15          0.1 0.0090009864    1.1467036  0.029898356 
number of iterations: 1434 
    3000    22.419817      167           66          101 6.2606999e-14 9.6823726e-15          0.1 0.0090009994    1.1943669  0.029898334 
number of iterations: 1437 
    3100    22.597857      167           66          101 6.343668e-14 9.6942455e-15          0.1 0.0090010127    1.2426534  0.029898312 
number of iterations: 1462 
    3200    22.780673      167           66          101 6.4277356e-14 9.7067164e-15          0.1 0.0090010261    1.2915716   0.02989829 
number of iterations: 1442 
    3300    22.949557      167           66          101 6.5129174e-14 9.7197835e-15          0.1 0.0090010396    1.3411301  0.029898267 
number of iterations: 1445 
    3400    23.124687      169           66          103 6.5992279e-14 9.733445e-15          0.1 0.0090010534    1.3913376  0.029898244 
number of iterations: 1448 
    3500    23.303231      169           66          103 6.6866823e-14 9.7476992e-15          0.1 0.0090010674    1.4422031  0.029898221 
number of iterations: 1452 
    3600    23.496132      170           66          104 6.7752956e-14 9.7625443e-15          0.1 0.0090010815    1.4937353  0.029898197 
number of iterations: 1534 
    3700    23.705084      170           66          104 6.8650832e-14 9.7779788e-15          0.1 0.0090010995    1.5459434  0.029898167 
number of iterations: 1457 
    3800    23.902802      170           66          104 6.9560608e-14 9.7940012e-15          0.1 0.0090011141    1.5988365  0.029898143 
number of iterations: 1460 
    3900    24.078271      170           66          104 7.0482439e-14 9.8106101e-15          0.1 0.0090011288    1.6524238  0.029898118 
number of iterations: 1462 
    4000    24.300839      170           66          104 7.1416487e-14 9.8278042e-15          0.1 0.0090011438    1.7067149  0.029898093 
number of iterations: 1475 
    4100    24.485046      172           68          104 7.2362914e-14 9.8455826e-15          0.1 0.0090011589    1.7617192  0.029898068 
number of iterations: 1467 
    4200    24.698908      173           69          104 7.3321882e-14 9.8639442e-15          0.1 0.0090011706    1.8174463  0.029898049 
number of iterations: 1470 
    4300    24.865938      173           69          104 7.4293559e-14 9.8828874e-15          0.1 0.0090011861    1.8739061  0.029898023 
number of iterations: 1597 
    4400    25.042836      175           71          104 7.5278113e-14 9.9024112e-15          0.1 0.0090012067    1.9311084  0.029897988 
number of iterations: 1749 
    4500    25.250474      178           73          105 7.6275714e-14 9.9225146e-15          0.1 0.0090012186    1.9890633  0.029897968 
number of iterations: 1479 
    4600    25.456378      180           74          106 7.7286536e-14 9.9431966e-15          0.1 0.0090012347    2.0477811  0.029897942 
number of iterations: 1482 
    4700    25.652592      181           74          107 7.8310753e-14 9.9644566e-15          0.1  0.009001251    2.1072718  0.029897914 
number of iterations: 1650 
    4800     25.91108      183           75          108 7.9348544e-14 9.9862936e-15          0.1 0.0090012708    2.1675461  0.029897881 
number of iterations: 1474 
    4900    26.099805      184           76          108 8.0400087e-14 1.0008707e-14          0.1 0.0090012839    2.2286144   0.02989786 
number of iterations: 1492 
    5000    26.307131      186           77          109 8.1465566e-14 1.0031698e-14          0.1 0.0090013009    2.2904874  0.029897831 
number of iterations: 1739 
    5100    26.503222      189           80          109 8.2545165e-14 1.0055263e-14          0.1  0.009001322     2.353176  0.029897796 
number of iterations: 1499 
    5200    26.688793      189           80          109 8.363907e-14 1.0079404e-14          0.1 0.0090013396    2.4166912  0.029897767 
number of iterations: 1501 
    5300     26.86457      189           80          109 8.4747473e-14 1.010412e-14          0.1 0.0090013573    2.4810441  0.029897737 
number of iterations: 1512 
    5400    27.059379      190           81          109 8.5870564e-14 1.012941e-14          0.1 0.0090013753    2.5462462  0.029897707 
number of iterations: 1566 
    5500    27.379308      190           81          109 8.7008538e-14 1.0155274e-14          0.1 0.0090013886    2.6123087  0.029897685 
number of iterations: 1600 
    5600    27.558718      192           83          109 8.8161593e-14 1.0181712e-14          0.1 0.0090014103    2.6792434  0.029897649 
number of iterations: 1514 
    5700    27.757046      193           84          109 8.9329929e-14 1.0208724e-14          0.1 0.0090014254    2.7470618  0.029897624 
number of iterations: 1465 
    5800    27.954353      196           86          110 9.0513748e-14 1.023631e-14          0.1 0.0090014419    2.8157759  0.029897596 
number of iterations: 1535 
    5900    28.151183      197           87          110 9.1713255e-14 1.0264469e-14          0.1  0.009001461    2.8853976  0.029897564 
number of iterations: 1522 
    6000    28.323201      198           87          111 9.2928658e-14 1.0293202e-14          0.1 0.0090014804    2.9559393  0.029897532 
number of iterations: 1482 
    6100    28.528245      201           89          112 9.4160167e-14 1.0322509e-14          0.1 0.0090014977    3.0274133  0.029897503 
number of iterations: 1526 
    6200    28.776336      202           90          112 9.5407997e-14 1.0352391e-14          0.1 0.0090015176     3.099832   0.02989747 
number of iterations: 1528 
    6300    28.996117      203           91          112 9.6672364e-14 1.0382847e-14          0.1 0.0090015377    3.1732081  0.029897436 
number of iterations: 1486 
    6400    29.183165      205           93          112 9.7953486e-14 1.0413878e-14          0.1 0.0090015532    3.2475546   0.02989741 
number of iterations: 1533 
    6500    29.356191      205           93          112 9.9251586e-14 1.0445484e-14          0.1 0.0090015738    3.3228844  0.029897376 
number of iterations: 1634 
    6600    29.552732      211           98          113 1.0056689e-13 1.0477664e-14          0.1  0.009001603    3.3992106  0.029897327 
number of iterations: 1591 
    6700    29.766802      217          104          113 1.0189962e-13 1.0510421e-14          0.1 0.0090016217    3.4765468  0.029897296 
number of iterations: 1612 
    6800    29.975739      219          105          114 1.0325002e-13 1.0543753e-14          0.1 0.0090016447    3.5549065  0.029897258 
number of iterations: 1545 
    6900     30.15728      223          106          117 1.0461831e-13 1.0577663e-14          0.1 0.0090016665    3.6343032  0.029897222 
number of iterations: 1683 
    7000    30.370483      225          108          117 1.0600473e-13 1.061215e-14          0.1 0.0090016989     3.714751  0.029897168 
number of iterations: 1551 
    7100    30.588557      225          108          117 1.0740953e-13 1.0647216e-14          0.1 0.0090017214     3.796264   0.02989713 
number of iterations: 1575 
    7200    30.782088      228          111          117 1.0883294e-13 1.0682862e-14          0.1 0.0090017412    3.8788566  0.029897097 
number of iterations: 1584 
    7300    30.984569      232          114          118 1.1027522e-13 1.0719089e-14          0.1 0.0090017601    3.9625432  0.029897066 
number of iterations: 1560 
    7400       31.177      234          114          120 1.1173661e-13 1.0755897e-14          0.1 0.0090017834    4.0473383  0.029897027 
number of iterations: 1600 
    7500    31.364674      235          115          120 1.1321736e-13 1.0793286e-14          0.1 0.0090018104    4.1332569  0.029896982 
number of iterations: 1636 
    7600    31.588483      237          117          120 1.1471774e-13 1.0831258e-14          0.1 0.0090018402    4.2203139  0.029896932 
number of iterations: 1557 
    7700    31.779111      239          119          120  1.16238e-13 1.0869814e-14          0.1 0.0090018623    4.3085245  0.029896895 
number of iterations: 1654 
    7800    31.958285      242          122          120 1.1777841e-13 1.0908955e-14          0.1 0.0090018919    4.3979043  0.029896846 
number of iterations: 1574 
    7900    32.198965      242          122          120 1.1933924e-13 1.0948682e-14          0.1 0.0090019169    4.4884689  0.029896804 
number of iterations: 1688 
    8000     32.46035      246          126          120 1.2092075e-13 1.0988997e-14          0.1 0.0090019503    4.5802341  0.029896748 
number of iterations: 1578 
    8100    32.667668      249          128          121 1.2252321e-13  1.10299e-14          0.1 0.0090019714     4.673216  0.029896713 
number of iterations: 1582 
    8200     32.83997      249          128          121 1.2414691e-13 1.1071393e-14          0.1 0.0090019976    4.7674308   0.02989667 
number of iterations: 1585 
    8300    33.034525      250          129          121 1.2579213e-13 1.1113477e-14          0.1 0.0090020241    4.8628951  0.029896626 
number of iterations: 1558 
    8400    33.227125      251          130          121 1.2745916e-13 1.1156154e-14          0.1 0.0090020451    4.9596255  0.029896591 
number of iterations: 1591 
    8500    33.419456      252          131          121 1.2914827e-13 1.1199426e-14          0.1 0.0090020735    5.0576391  0.029896543 
number of iterations: 1589 
    8600    33.621678      253          132          121 1.3085977e-13 1.1243292e-14          0.1 0.0090020988     5.156953  0.029896501 
number of iterations: 1713 
    8700    33.848102      257          136          121 1.3259395e-13 1.1287756e-14          0.1 0.0090021326    5.2575845  0.029896445 
number of iterations: 1607 
    8800    34.029607      257          136          121 1.3435111e-13 1.1332818e-14          0.1 0.0090021609     5.359551  0.029896397 
number of iterations: 1597 
    8900    34.220935      258          137          121 1.3613156e-13 1.1378481e-14          0.1 0.0090021866    5.4628706  0.029896355 
number of iterations: 1587 
    9000    34.396946      260          138          122 1.379356e-13 1.1424745e-14          0.1 0.0090022133    5.5675613   0.02989631 
number of iterations: 1608 
    9100    34.591062      261          139          122 1.3976355e-13 1.1471613e-14          0.1 0.0090022427    5.6736416  0.029896261 
number of iterations: 1611 
    9200    34.773201      265          140          125 1.4161573e-13 1.1519086e-14          0.1  0.009002274    5.7811298  0.029896209 
number of iterations: 1617 
    9300    34.957402      267          141          126 1.4349245e-13 1.1567166e-14          0.1 0.0090023041    5.8900449  0.029896159 
number of iterations: 1600 
    9400    35.131878      270          143          127 1.4539404e-13 1.1615856e-14          0.1 0.0090023321    6.0004059  0.029896112 
number of iterations: 1634 
    9500    35.325739      272          145          127 1.4732083e-13 1.1665156e-14          0.1 0.0090023631    6.1122322  0.029896061 
number of iterations: 1578 
    9600    35.539298      275          148          127 1.4927315e-13 1.171507e-14          0.1  0.009002387     6.225543  0.029896021 
number of iterations: 1735 
    9700    35.767321      275          148          127 1.5125135e-13 1.1765598e-14          0.1 0.0090024239    6.3403582  0.029895959 
number of iterations: 1628 
    9800    35.957535      276          148          128 1.5325576e-13 1.1816743e-14          0.1  0.009002456    6.4566981  0.029895906 
number of iterations: 1637 
    9900    36.166508      279          150          129 1.5528674e-13 1.1868508e-14          0.1 0.0090024886    6.5745829  0.029895851 
number of iterations: 1633 
   10000    36.354809      281          152          129 1.5734463e-13 1.1920894e-14          0.1 0.0090025216    6.6940332  0.029895796 
number of iterations: 1647 
   10100    36.595824      281          152          129 1.5942979e-13 1.1973903e-14          0.1  0.009002555    6.8150698  0.029895741 
number of iterations: 1678 
   10200    36.787351      284          155          129 1.6154259e-13 1.2027539e-14          0.1 0.0090025908    6.9377137  0.029895681 
number of iterations: 1643 
   10300    36.960303      285          155          130 1.6368338e-13 1.2081802e-14          0.1 0.0090026252    7.0619867  0.029895624 
number of iterations: 1604 
   10400    37.179877      287          157          130 1.6585254e-13 1.2136696e-14          0.1 0.0090026525    7.1879106  0.029895578 
number of iterations: 1648 
   10500    37.508533      290          158          132 1.6805045e-13 1.2192223e-14          0.1 0.0090026876    7.3155074   0.02989552 
number of iterations: 1702 
   10600     37.69961      294          161          133 1.7027749e-13 1.2248384e-14          0.1 0.0090027273    7.4447993  0.029895453 
number of iterations: 1760 
   10700    37.897166      297          164          133 1.7253404e-13 1.2305184e-14          0.1 0.0090027669    7.5758089  0.029895388 
number of iterations: 1609 
   10800    38.098873      302          168          134 1.748205e-13 1.2362623e-14          0.1 0.0090027964    7.7085592  0.029895338 
number of iterations: 1727 
   10900    38.300501      304          170          134 1.7713725e-13 1.2420704e-14          0.1  0.009002837    7.8430733  0.029895271 
number of iterations: 1706 
   11000     38.49093      313          175          138 1.7948471e-13 1.2479431e-14          0.1 0.0090028826    7.9793748  0.029895195 
number of iterations: 1653 
   11100    38.716855      316          178          138 1.8186327e-13 1.2538806e-14          0.1 0.0090029041    8.1174872  0.029895159 
number of iterations: 1730 
   11200    38.915269      320          182          138 1.8427336e-13 1.2598831e-14          0.1 0.0090029468    8.2574353  0.029895088 
number of iterations: 1671 
   11300    39.093574      323          184          139 1.8671539e-13 1.265951e-14          0.1 0.0090029859    8.3992432  0.029895023 
number of iterations: 1674 
   11400    39.284329      328          189          139 1.8918977e-13 1.2720845e-14          0.1 0.0090030264    8.5429357  0.029894955 
number of iterations: 1760 
   11500     39.47561      331          191          140 1.9169695e-13 1.2782839e-14          0.1 0.0090030805    8.6885377  0.029894865 
number of iterations: 1679 
   11600    39.675345      331          191          140 1.9423736e-13 1.2845495e-14          0.1 0.0090031213    8.8360749  0.029894797 
number of iterations: 1700 
   11700    39.868974      335          195          140 1.9681143e-13 1.2908815e-14          0.1 0.0090031688    8.9855729  0.029894718 
number of iterations: 1684 
   11800    40.074275      336          196          140 1.9941961e-13 1.2972803e-14          0.1 0.0090032108    9.1370579  0.029894648 
number of iterations: 1678 
   11900    40.256204      339          198          141 2.0206236e-13 1.3037462e-14          0.1 0.0090032486    9.2905566  0.029894585 
number of iterations: 1778 
   12000    40.449377      346          203          143 2.0474013e-13 1.3102793e-14          0.1 0.0090032863    9.4460954  0.029894522 
number of iterations: 1651 
   12100    40.709504      347          204          143 2.0745338e-13 1.3168801e-14          0.1 0.0090033188    9.6037015  0.029894468 
number of iterations: 1694 
   12200    40.913111      349          206          143 2.1020259e-13 1.3235489e-14          0.1 0.0090033584    9.7634031  0.029894402 
number of iterations: 1717 
   12300    41.093852      359          215          144 2.1298824e-13 1.3302861e-14          0.1 0.0090034048    9.9252276  0.029894324 
number of iterations: 1746 
   12400    41.290572      362          217          145 2.158108e-13 1.3370918e-14          0.1 0.0090034494    10.089204   0.02989425 
number of iterations: 1742 
   12500    41.488343      366          219          147 2.1867076e-13 1.3439666e-14          0.1 0.0090035003     10.25536  0.029894165 
number of iterations: 1708 
   12600    41.696815      368          221          147 2.2156863e-13 1.3509106e-14          0.1 0.0090035468    10.423724  0.029894088 
number of iterations: 1710 
   12700    41.890474      369          222          147 2.245049e-13 1.3579243e-14          0.1 0.0090035938    10.594327   0.02989401 
number of iterations: 1710 
   12800    42.108405      374          226          148 2.2748008e-13 1.365008e-14          0.1 0.0090036414    10.767199   0.02989393 
number of iterations: 1719 
   12900    42.376221      379          230          149 2.3049469e-13 1.372162e-14          0.1 0.0090036945    10.942369  0.029893842 
number of iterations: 1716 
   13000    42.595206      382          232          150 2.3354925e-13 1.3793867e-14          0.1 0.0090037435    11.119868   0.02989376 
number of iterations: 1706 
   13100    42.820803      388          237          151 2.3664428e-13 1.3866824e-14          0.1 0.0090037916    11.299727   0.02989368 
number of iterations: 1785 
   13200    43.021328      391          239          152 2.3978034e-13 1.3940495e-14          0.1 0.0090038464    11.481978  0.029893589 
number of iterations: 1741 
   13300    43.215318      393          240          153 2.4295795e-13 1.4014884e-14          0.1 0.0090039005    11.666651  0.029893499 
number of iterations: 1728 
   13400    43.436109      398          245          153 2.4617767e-13 1.4089994e-14          0.1 0.0090039507    11.853781  0.029893415 
number of iterations: 1811 
   13500    43.628293      404          251          153 2.4944007e-13 1.4165828e-14          0.1 0.0090040173    12.043399  0.029893304 
number of iterations: 1716 
   13600    43.805274      408          254          154 2.5274569e-13 1.424239e-14          0.1 0.0090040613    12.235539  0.029893231 
number of iterations: 1746 
   13700    44.007801      411          256          155 2.5609512e-13 1.4319685e-14          0.1 0.0090041133    12.430233  0.029893144 
number of iterations: 1737 
   13800    44.199915      415          259          156 2.5948894e-13 1.4397717e-14          0.1 0.0090041643    12.627517  0.029893059 
number of iterations: 1762 
   13900    44.393845      417          261          156 2.6292774e-13 1.4476488e-14          0.1 0.0090042257    12.827424  0.029892957 
number of iterations: 1736 
   14000    44.597389      419          263          156 2.664121e-13 1.4556003e-14          0.1 0.0090042767    13.029989  0.029892872 
number of iterations: 1787 
   14100    44.810742      425          267          158 2.6994265e-13 1.4636266e-14          0.1 0.0090043317    13.235248   0.02989278 
number of iterations: 1745 
   14200    45.021391      429          269          160 2.7351997e-13 1.4717281e-14          0.1 0.0090043879    13.443237  0.029892686 
number of iterations: 1760 
   14300     45.22839      437          277          160 2.7714471e-13 1.4799051e-14          0.1 0.0090044496    13.653991  0.029892584 
number of iterations: 1764 
   14400    45.413829      444          283          161 2.8081748e-13 1.4881581e-14          0.1 0.0090045055    13.867547  0.029892491 
number of iterations: 1757 
   14500    45.677081      451          288          163 2.8453893e-13 1.4964875e-14          0.1 0.0090045626    14.083944  0.029892395 
number of iterations: 1782 
   14600    45.875575      456          293          163 2.8830969e-13 1.5048937e-14          0.1 0.0090046265    14.303218  0.029892289 
number of iterations: 1764 
   14700    46.088135      460          296          164 2.9213042e-13 1.5133772e-14          0.1 0.0090046879    14.525407  0.029892187 
number of iterations: 1769 
   14800     46.28837      460          296          164 2.9600178e-13 1.5219384e-14          0.1 0.0090047501    14.750552  0.029892083 
number of iterations: 1736 
   14900    46.497864      464          298          166 2.9992445e-13 1.5305778e-14          0.1 0.0090048105     14.97869  0.029891982 
number of iterations: 1775 
   15000    46.684478      468          300          168 3.038991e-13 1.5392957e-14          0.1 0.0090048743    15.209863  0.029891876 
number of iterations: 1826 
   15100    46.916561      473          304          169 3.0792643e-13 1.5480926e-14          0.1 0.0090049417    15.444109  0.029891764 
number of iterations: 1774 
   15200    47.113977      480          310          170 3.1200712e-13 1.556969e-14          0.1 0.0090049956    15.681471  0.029891674 
number of iterations: 1781 
   15300    47.406604      484          313          171 3.161419e-13 1.5659252e-14          0.1 0.0090050564    15.921989  0.029891573 
number of iterations: 1790 
   15400    47.632146      489          317          172 3.2033146e-13 1.5749618e-14          0.1  0.009005116    16.165705  0.029891473 
number of iterations: 1810 
   15500    47.829103      497          324          173 3.2457655e-13 1.5840792e-14          0.1 0.0090051867    16.412663  0.029891355 
number of iterations: 1806 
   15600    48.028119      502          328          174 3.288779e-13 1.5932778e-14          0.1 0.0090052646    16.662904  0.029891226 
number of iterations: 1790 
   15700    48.217993      503          329          174 3.3323624e-13 1.6025582e-14          0.1 0.0090053344    16.916474  0.029891109 
number of iterations: 1787 
   15800    48.424361      507          332          175 3.3765235e-13 1.6119208e-14          0.1 0.0090054044    17.173415  0.029890993 
number of iterations: 1803 
   15900    48.640467      511          336          175 3.4212698e-13 1.6213661e-14          0.1   0.00900547    17.433773  0.029890884 
number of iterations: 1828 
   16000    48.901365      517          339          178 3.466609e-13 1.6308946e-14          0.1 0.0090055565    17.697593  0.029890739 
number of iterations: 1864 
   16100    49.127988      525          344          181 3.5125491e-13 1.6405066e-14          0.1 0.0090056359    17.964922  0.029890607 
number of iterations: 1830 
   16200    49.327066      532          351          181 3.559098e-13 1.6502028e-14          0.1 0.0090057204    18.235807  0.029890466 
number of iterations: 1842 
   16300    49.542133      533          352          181 3.6062638e-13 1.6599837e-14          0.1 0.0090057922    18.510293  0.029890347 
number of iterations: 1814 
   16400    49.732395      538          355          183 3.6540546e-13 1.6698498e-14          0.1  0.009005869    18.788429  0.029890219 
number of iterations: 1828 
   16500    49.940988      541          358          183 3.7024787e-13 1.6798015e-14          0.1 0.0090059474    19.070263  0.029890088 
number of iterations: 1870 
   16600    50.148131      545          362          183 3.7515446e-13 1.6898395e-14          0.1 0.0090060411    19.355846  0.029889932 
number of iterations: 1779 
   16700    50.335227      551          368          183 3.8012607e-13 1.6999641e-14          0.1 0.0090061029    19.645225  0.029889829 
number of iterations: 1817 
   16800    50.531504      558          373          185 3.8516356e-13 1.710176e-14          0.1 0.0090061823    19.938453  0.029889697 
number of iterations: 1820 
   16900    50.739181      566          380          186 3.9026781e-13 1.7204756e-14          0.1 0.0090062543    20.235581  0.029889577 
number of iterations: 1869 
   17000    50.959507      571          384          187 3.9543971e-13 1.7308635e-14          0.1 0.0090063399    20.536659  0.029889434 
number of iterations: 1801 
   17100    51.180783      575          388          187 4.0068014e-13 1.7413402e-14          0.1 0.0090064117     20.84174  0.029889315 
number of iterations: 1841 
   17200     51.37352      580          392          188 4.0599002e-13 1.7519063e-14          0.1 0.0090064975    21.150878  0.029889172 
number of iterations: 1890 
   17300    51.587105      587          399          188 4.1137026e-13 1.7625623e-14          0.1 0.0090065942    21.464127  0.029889011 
number of iterations: 1799 
   17400     51.79803      594          406          188 4.1682181e-13 1.7733087e-14          0.1   0.00900667    21.781541  0.029888884 
number of iterations: 1814 
   17500     52.00935      596          408          188 4.223456e-13 1.7841461e-14          0.1 0.0090067536    22.103176  0.029888745 
number of iterations: 1849 
   17600    52.207053      605          416          189 4.2794259e-13 1.7950752e-14          0.1 0.0090068476    22.429088  0.029888589 
number of iterations: 1849 
   17700    52.496502      617          425          192 4.3361375e-13 1.8060964e-14          0.1 0.0090069441    22.759334  0.029888428 
number of iterations: 1825 
   17800    52.689694      629          436          193 4.3936007e-13 1.8172103e-14          0.1 0.0090070147    23.093971   0.02988831 
number of iterations: 1872 
   17900    52.910286      635          442          193 4.4518254e-13 1.8284175e-14          0.1 0.0090070984    23.433058  0.029888171 
number of iterations: 1866 
   18000     53.12931      640          444          196 4.5108217e-13 1.8397186e-14          0.1 0.0090072002    23.776654  0.029888001 
number of iterations: 1864 
   18100    53.330507      643          447          196 4.5705998e-13 1.8511142e-14          0.1 0.0090072969    24.124818   0.02988784 
number of iterations: 1851 
   18200     53.52856      653          455          198 4.6311701e-13 1.8626048e-14          0.1 0.0090073938    24.477611  0.029887679 
number of iterations: 1861 
   18300    53.735424      665          467          198 4.6925431e-13 1.8741911e-14          0.1 0.0090074769    24.835095   0.02988754 
number of iterations: 1967 
   18400    53.953605      672          473          199 4.7547294e-13 1.8858736e-14          0.1  0.009007596    25.197333  0.029887342 
number of iterations: 1890 
   18500    54.175926      682          482          200 4.8177398e-13 1.8976531e-14          0.1 0.0090077044    25.564386  0.029887161 
number of iterations: 1817 
   18600    54.370506      687          486          201 4.8815853e-13  1.90953e-14          0.1 0.0090077866    25.936319  0.029887024 
number of iterations: 1893 
   18700     54.57504      694          490          204 4.9462768e-13 1.921505e-14          0.1 0.0090078946    26.313198  0.029886844 
number of iterations: 1890 
   18800    54.810769      704          500          204 5.0118256e-13 1.9335788e-14          0.1 0.0090079975    26.695086  0.029886673 
number of iterations: 1878 
   18900    55.038369      708          503          205 5.0782431e-13 1.9457519e-14          0.1 0.0090080926    27.082052  0.029886514 
number of iterations: 1919 
   19000    55.259364      717          510          207 5.1455407e-13 1.958025e-14          0.1  0.009008202    27.474163  0.029886332 
number of iterations: 1896 
   19100    55.541054      728          519          209 5.2137302e-13 1.9703987e-14          0.1 0.0090083091    27.871487  0.029886154 
number of iterations: 1908 
   19200    55.737784      736          526          210 5.2828233e-13 1.9828737e-14          0.1 0.0090084284    28.274093  0.029885955 
number of iterations: 1909 
   19300    55.941446      742          530          212 5.3528321e-13 1.9954506e-14          0.1  0.009008544    28.682052  0.029885762 
number of iterations: 1898 
   19400    56.161412      754          539          215 5.4237686e-13 2.0081302e-14          0.1 0.0090086575    29.095435  0.029885573 
number of iterations: 1973 
   19500    56.376052      764          547          217 5.4956452e-13 2.0209129e-14          0.1 0.0090087817    29.514314  0.029885366 
number of iterations: 1863 
   19600    56.594405      769          552          217 5.5684742e-13 2.0337995e-14          0.1 0.0090088824    29.938761  0.029885199 
number of iterations: 1931 
   19700     56.82411      778          559          219 5.6422685e-13 2.0467906e-14          0.1 0.0090090085    30.368851  0.029884989 
number of iterations: 1891 
   19800    57.036804      783          564          219 5.7170406e-13 2.0598871e-14          0.1 0.0090091195    30.804659  0.029884804 
number of iterations: 1899 
   19900    57.254784      790          571          219 5.7928037e-13 2.0730894e-14          0.1 0.0090092391     31.24626  0.029884604 
number of iterations: 1944 
   20000    57.532692      803          583          220 5.8695707e-13 2.0863984e-14          0.1 0.0090093683    31.693731  0.029884389 
number of iterations: 1928 
   20100     57.74241      808          588          220 5.9473551e-13 2.0998146e-14          0.1 0.0090094937     32.14715   0.02988418 
number of iterations: 1918 
   20200    57.959799      818          593          225 6.0261703e-13 2.1133389e-14          0.1 0.0090096144    32.606597  0.029883979 
number of iterations: 1962 
   20300    58.163868      832          605          227 6.1060299e-13 2.1269719e-14          0.1 0.0090097559    33.072151  0.029883744 
number of iterations: 1938 
   20400    58.364065      841          613          228 6.1869479e-13 2.1407143e-14          0.1 0.0090099023    33.543895    0.0298835 
number of iterations: 1937 
   20500    58.579852      848          620          228 6.2689382e-13 2.1545669e-14          0.1 0.0090100266    34.021909  0.029883293 
number of iterations: 1901 
   20600    58.818216      855          627          228 6.352015e-13 2.1685304e-14          0.1 0.0090101485    34.506277   0.02988309 
number of iterations: 1901 
   20700    59.037121      864          636          228 6.4361928e-13 2.1826056e-14          0.1 0.0090102733    34.997084  0.029882882 
number of iterations: 1964 
   20800    59.257158      873          645          228 6.5214861e-13 2.1967931e-14          0.1  0.009010412    35.494415  0.029882651 
number of iterations: 1939 
   20900    59.495876      881          652          229 6.6079097e-13 2.2110936e-14          0.1  0.009010544    35.998356  0.029882431 
number of iterations: 1939 
   21000    59.692945      894          662          232 6.6954786e-13 2.225508e-14          0.1 0.0090106796    36.508995  0.029882205 
number of iterations: 1946 
   21100    59.896173      907          673          234 6.7842079e-13 2.240037e-14          0.1  0.009010812    37.026423  0.029881984 
number of iterations: 1911 
   21200    60.120159      915          680          235 6.8741131e-13 2.2546814e-14          0.1 0.0090109441    37.550728  0.029881764 
number of iterations: 1973 
   21300    60.347225      925          688          237 6.9652098e-13 2.2694419e-14          0.1 0.0090110931    38.082003  0.029881516 
number of iterations: 1959 
   21400    60.551656      933          693          240 7.0575137e-13 2.2843193e-14          0.1 0.0090112417    38.620339  0.029881269 
number of iterations: 2031 
   21500    60.768304      944          702          242 7.1510407e-13 2.2993143e-14          0.1 0.0090114113     39.16583  0.029880986 
number of iterations: 1981 
   21600    60.969494      956          713          243 7.2458072e-13 2.3144278e-14          0.1  0.009011571    39.718572   0.02988072 
number of iterations: 1944 
   21700    61.204312      970          722          248 7.3418296e-13 2.3296606e-14          0.1 0.0090117104    40.278661  0.029880488 
number of iterations: 2007 
   21800    61.438602      981          730          251 7.4391244e-13 2.3450134e-14          0.1 0.0090118807    40.846194  0.029880204 
number of iterations: 1980 
   21900    61.664267      991          737          254 7.5377086e-13 2.360487e-14          0.1  0.009012037     41.42127  0.029879944 
number of iterations: 1974 
   22000    61.872674     1008          751          257 7.6375992e-13 2.3760823e-14          0.1 0.0090122022     42.00399  0.029879669 
number of iterations: 1963 
   22100    62.087025     1015          756          259 7.7388136e-13 2.3918001e-14          0.1 0.0090123493    42.594454  0.029879424 
number of iterations: 1994 
   22200    62.288536     1021          762          259 7.8413693e-13 2.4076411e-14          0.1   0.00901252    43.192764  0.029879139 
number of iterations: 1974 
   22300    62.545072     1038          779          259 7.9452841e-13 2.4236063e-14          0.1 0.0090126768    43.799026  0.029878878 
number of iterations: 2008 
   22400    62.752358     1054          791          263 8.0505759e-13 2.4396965e-14          0.1  0.009012859    44.413346  0.029878575 
number of iterations: 2001 
   22500    62.987499     1064          799          265 8.157263e-13 2.4559125e-14          0.1 0.0090130262     45.03583  0.029878296 
number of iterations: 2037 
   22600    63.199914     1084          817          267 8.265364e-13 2.4722552e-14          0.1 0.0090132181    45.666587  0.029877977 
number of iterations: 1989 
   22700    63.416763     1099          829          270 8.3748976e-13 2.4887254e-14          0.1 0.0090133967    46.305726  0.029877679 
number of iterations: 1999 
   22800    63.634301     1109          837          272 8.4858826e-13 2.5053239e-14          0.1 0.0090135734    46.953358  0.029877385 
number of iterations: 1981 
   22900     63.87439     1115          843          272 8.5983385e-13 2.5220517e-14          0.1 0.0090137517    47.609597  0.029877088 
number of iterations: 2026 
   23000    64.092114     1124          850          274 8.7122846e-13 2.5389097e-14          0.1 0.0090139392    48.274556  0.029876775 
number of iterations: 1994 
   23100    64.308912     1139          863          276 8.8277407e-13 2.5558987e-14          0.1 0.0090141091    48.948352  0.029876492 
number of iterations: 2034 
   23200     64.52073     1150          872          278 8.9447269e-13 2.5730196e-14          0.1 0.0090142981    49.631102  0.029876178 
number of iterations: 2015 
   23300    64.742843     1165          885          280 9.0632633e-13 2.5902733e-14          0.1 0.0090144876    50.322926  0.029875862 
number of iterations: 2042 
   23400    64.976731     1184          898          286 9.1833706e-13 2.6076607e-14          0.1 0.0090146998    51.023944  0.029875509 
number of iterations: 2064 
   23500    65.192478     1200          911          289 9.3050696e-13 2.6251827e-14          0.1 0.0090148928    51.734277  0.029875187 
number of iterations: 2033 
   23600    65.416115     1212          923          289 9.4283813e-13 2.6428403e-14          0.1 0.0090151156    52.454049  0.029874816 
number of iterations: 2070 
   23700    65.705021     1229          939          290 9.5533271e-13 2.6606343e-14          0.1  0.009015326    53.183386  0.029874465 
number of iterations: 2070 
   23800     65.94017     1244          954          290 9.6799288e-13 2.6785657e-14          0.1 0.0090155426    53.922413  0.029874105 
number of iterations: 1987 
   23900    66.157727     1260          967          293 9.8082081e-13 2.6966354e-14          0.1 0.0090157157    54.671261  0.029873816 
number of iterations: 2014 
   24000    66.395149     1279          983          296 9.9381874e-13 2.7148445e-14          0.1    0.0090159     55.43006  0.029873509 
number of iterations: 2092 
   24100    66.628832     1297         1001          296 1.0069889e-12 2.7331937e-14          0.1 0.0090161311    56.198941  0.029873124 
number of iterations: 2038 
   24200     66.84687     1317         1020          297 1.0203336e-12 2.7516842e-14          0.1 0.0090163567    56.978037  0.029872749 
number of iterations: 2019 
   24300    67.072406     1333         1032          301 1.0338552e-12 2.7703168e-14          0.1 0.0090165668    57.767485  0.029872399 
number of iterations: 2035 
   24400    67.289262     1349         1046          303 1.0475559e-12 2.7890926e-14          0.1 0.0090167829    58.567421  0.029872039 
number of iterations: 2031 
   24500      67.5876     1364         1059          305 1.0614382e-12 2.8080126e-14          0.1 0.0090170122    59.377987  0.029871657 
number of iterations: 2016 
   24600    67.806739     1378         1072          306 1.0755045e-12 2.8270777e-14          0.1 0.0090172313    60.199321  0.029871292 
number of iterations: 2029 
   24700    68.074642     1391         1082          309 1.0897572e-12 2.8462889e-14          0.1  0.009017441    61.031568  0.029870943 
number of iterations: 2016 
   24800    68.287326     1404         1094          310 1.1041987e-12 2.8656472e-14          0.1 0.0090176589    61.874873   0.02987058 
number of iterations: 2097 
   24900    68.518158     1418         1106          312 1.1188317e-12 2.8851537e-14          0.1 0.0090179082    62.729382  0.029870164 
number of iterations: 2060 
   25000    68.769814     1434         1121          313 1.1336585e-12 2.9048094e-14          0.1 0.0090181566    63.595243  0.029869751 
number of iterations: 2049 
   25100    68.988481     1441         1128          313 1.1486818e-12 2.9246152e-14          0.1  0.009018374     64.47261  0.029869388 
number of iterations: 2089 
   25200    69.221425     1459         1143          316 1.1639043e-12 2.9445724e-14          0.1 0.0090186443    65.361632  0.029868938 
number of iterations: 2054 
   25300    69.457363     1480         1161          319 1.1793284e-12 2.9646818e-14          0.1 0.0090188779    66.262465  0.029868549 
number of iterations: 2041 
   25400    69.694858     1494         1174          320 1.194957e-12 2.9849446e-14          0.1 0.0090190984    67.175267  0.029868182 
number of iterations: 2092 
   25500    69.913335     1508         1188          320 1.2107926e-12 3.0053618e-14          0.1 0.0090193524    68.100194  0.029867759 
number of iterations: 2119 
   25600    70.152825     1521         1200          321 1.2268381e-12 3.0259345e-14          0.1 0.0090196235    69.037409  0.029867307 
number of iterations: 2130 
   25700    70.385165     1542         1218          324 1.2430963e-12 3.0466637e-14          0.1 0.0090199032    69.987076  0.029866841 
number of iterations: 2087 
   25800    70.606599     1567         1241          326 1.2595699e-12 3.0675506e-14          0.1 0.0090201589    70.949359  0.029866416 
number of iterations: 2075 
   25900    70.851934     1588         1260          328 1.2762618e-12 3.0885962e-14          0.1 0.0090204251    71.924424  0.029865972 
number of iterations: 2082 
   26000    71.106323     1610         1279          331 1.2931749e-12 3.1098017e-14          0.1 0.0090207006    72.912442  0.029865513 
number of iterations: 2121 
   26100    71.340176     1634         1301          333 1.3103121e-12 3.1311682e-14          0.1 0.0090209657    73.913585  0.029865072 
number of iterations: 2085 
   26200     71.58248     1655         1318          337 1.3276765e-12 3.1526968e-14          0.1 0.0090212554    74.928028  0.029864589 
number of iterations: 2102 
   26300    71.820013     1674         1335          339 1.3452709e-12 3.1743886e-14          0.1 0.0090215257    75.955946  0.029864139 
number of iterations: 2082 
   26400    72.053724     1685         1344          341 1.3630985e-12 3.1962447e-14          0.1 0.0090218196    76.997519   0.02986365 
number of iterations: 2097 
   26500    72.355916     1702         1360          342 1.3811624e-12 3.2182664e-14          0.1 0.0090220759    78.052927  0.029863223 
number of iterations: 2147 
   26600    72.635665     1729         1383          346 1.3994656e-12 3.2404548e-14          0.1 0.0090224116    79.122355  0.029862664 
number of iterations: 2090 
   26700    72.861063     1752         1401          351 1.4166069e-12 3.262811e-14          0.1 0.0090227215    80.204911  0.029862147 
number of iterations: 2072 
   26800    73.112368     1765         1413          352 1.4343621e-12 3.2853361e-14          0.1 0.0090229841    81.301067   0.02986171 
number of iterations: 2068 
   26900    73.342338     1779         1426          353 1.4519937e-12 3.3080314e-14          0.1 0.0090232565    82.410728  0.029861256 
number of iterations: 2114 
   27000    73.574524     1801         1447          354 1.4712356e-12 3.330898e-14          0.1 0.0090235682    83.535129  0.029860737 
number of iterations: 2126 
   27100    73.804221     1819         1464          355 1.4907325e-12 3.3539372e-14          0.1 0.0090238848    84.674465   0.02986021 
number of iterations: 2139 
   27200    74.050305     1837         1480          357 1.5104878e-12 3.3771502e-14          0.1  0.009024221    85.828934   0.02985965 
number of iterations: 2100 
   27300    74.341565     1855         1497          358 1.5305048e-12 3.4005381e-14          0.1 0.0090245018    86.998736  0.029859182 
number of iterations: 2124 
   27400    74.589261     1874         1513          361 1.5507871e-12 3.4241022e-14          0.1 0.0090248489    88.184073  0.029858604 
number of iterations: 2068 
   27500    74.828604     1902         1540          362 1.5703804e-12 3.4478437e-14          0.1 0.0090251183     89.38442  0.029858155 
number of iterations: 2180 
   27600    75.077724     1923         1552          371 1.5911911e-12 3.4717638e-14          0.1 0.0090254799     90.60071  0.029857553 
number of iterations: 2114 
   27700    75.308392     1953         1580          373 1.6122777e-12 3.4958639e-14          0.1 0.0090258198    91.833154  0.029856987 
number of iterations: 2143 
   27800    75.621071     1979         1600          379 1.6336436e-12 3.5201451e-14          0.1 0.0090261562    93.081966  0.029856427 
number of iterations: 2148 
   27900    75.872014     2000         1619          381 1.6552927e-12 3.5446089e-14          0.1 0.0090264851    94.347363  0.029855879 
number of iterations: 2119 
   28000    76.106503     2022         1640          382 1.6752059e-12 3.5692564e-14          0.1 0.0090268259    95.628018  0.029855311 
number of iterations: 2131 
   28100    76.332363     2045         1659          386 1.6959749e-12 3.594089e-14          0.1 0.0090271905    96.924587  0.029854704 
number of iterations: 2181 
   28200    76.614919     2069         1681          388  1.71845e-12 3.6191079e-14          0.1 0.0090275735    98.238375  0.029854066 
number of iterations: 2160 
   28300    76.855149     2102         1711          391 1.7412229e-12 3.6443145e-14          0.1 0.0090279804    99.569611  0.029853388 
number of iterations: 2115 
   28400    77.085561     2127         1734          393 1.762951e-12  3.66971e-14          0.1  0.009028319     100.9175  0.029852824 
number of iterations: 2136 
   28500     77.33183     2150         1756          394 1.7863136e-12 3.6952958e-14          0.1 0.0090286825    102.28328  0.029852219 
number of iterations: 2160 
   28600    77.600679     2181         1782          399 1.8099859e-12 3.7210733e-14          0.1 0.0090290464    103.66721  0.029851613 
number of iterations: 2143 
   28700    77.841396     2209         1808          401 1.8339719e-12 3.7470438e-14          0.1 0.0090294393    105.06951  0.029850958 
number of iterations: 2173 
   28800    78.090679     2236         1833          403 1.8582757e-12 3.7732086e-14          0.1 0.0090298455    106.49044  0.029850282 
number of iterations: 2183 
   28900    78.330354     2260         1856          404 1.8829016e-12 3.7995692e-14          0.1 0.0090302497    107.93024  0.029849609 
number of iterations: 2154 
   29000    78.581012     2294         1887          407 1.9066824e-12 3.8261269e-14          0.1 0.0090306584    109.38826  0.029848928 
number of iterations: 2184 
   29100    78.883879     2325         1914          411 1.9319498e-12 3.8528831e-14          0.1 0.0090310897    110.86564   0.02984821 
number of iterations: 2188 
   29200    79.117733     2356         1942          414 1.957552e-12 3.8798392e-14          0.1 0.0090315094    112.36264  0.029847511 
number of iterations: 2181 
   29300      79.3635     2384         1970          414 1.9834935e-12 3.9069967e-14          0.1 0.0090319449    113.87951  0.029846785 
number of iterations: 2144 
   29400    79.594585     2406         1992          414 2.0084338e-12 3.9343569e-14          0.1  0.009032341     115.4155  0.029846126 
number of iterations: 2134 
   29500    79.823849     2437         2019          418 2.0339933e-12 3.9619213e-14          0.1 0.0090327308    116.97108  0.029845476 
number of iterations: 2221 
   29600    80.072112     2462         2037          425 2.0609477e-12 3.9896913e-14          0.1 0.0090331898    118.54731  0.029844712 
number of iterations: 2174 
   29700    80.324551     2490         2062          428 2.0882594e-12 4.0176684e-14          0.1  0.009033631    120.14447  0.029843977 
number of iterations: 2196 
   29800    80.566421     2518         2089          429 2.115933e-12 4.045854e-14          0.1 0.0090340951    121.76284  0.029843204 
number of iterations: 2174 
   29900    80.852334     2553         2121          432 2.1439733e-12 4.0742497e-14          0.1 0.0090345114     123.4027  0.029842511 
number of iterations: 2189 
   30000      81.0853     2583         2147          436 2.1723852e-12 4.1028569e-14          0.1 0.0090349334    125.06434  0.029841808 
number of iterations: 2221 
   30100    81.322831     2618         2180          438 2.2011736e-12 4.1316771e-14          0.1 0.0090353972    126.74803  0.029841035 
number of iterations: 2182 
   30200    81.552491     2647         2209          438 2.2303435e-12 4.1607118e-14          0.1  0.009035866    128.45409  0.029840255 
number of iterations: 2228 
   30300     81.82708     2686         2245          441   2.2599e-12 4.1899627e-14          0.1 0.0090363655    130.18279  0.029839423 
number of iterations: 2174 
   30400    82.071796     2714         2271          443 2.288797e-12 4.2194311e-14          0.1 0.0090368193    131.93365  0.029838667 
number of iterations: 2230 
   30500    82.321999     2743         2297          446 2.3191281e-12 4.2491187e-14          0.1 0.0090373228    133.70775  0.029837828 
number of iterations: 2205 
   30600    82.626944     2773         2323          450 2.3498611e-12 4.279027e-14          0.1 0.0090378094    135.50541  0.029837018 
number of iterations: 2214 
   30700    82.922347     2804         2353          451 2.3798078e-12 4.3091575e-14          0.1  0.009038323    137.32602  0.029836162 
number of iterations: 2194 
   30800    83.183242     2832         2375          457 2.4099596e-12 4.3395119e-14          0.1 0.0090387858    139.16974  0.029835392 
number of iterations: 2221 
   30900    83.428943     2868         2408          460 2.4418963e-12 4.3700917e-14          0.1 0.0090393258    141.03794  0.029834492 
number of iterations: 2212 
   31000    83.681054     2897         2434          463 2.470572e-12 4.4008986e-14          0.1 0.0090398463    142.92813  0.029833626 
number of iterations: 2233 
   31100    83.943057     2924         2460          464 2.5033119e-12 4.4319341e-14          0.1 0.0090403912    144.84341  0.029832718 
number of iterations: 2254 
   31200    84.194952     2955         2488          467 2.5364857e-12   4.4632e-14          0.1 0.0090409417    146.78412  0.029831801 
number of iterations: 2206 
   31300    84.447131     2988         2513          475  2.56818e-12 4.4946977e-14          0.1 0.0090414715    148.74912  0.029830919 
number of iterations: 2226 
   31400    84.701141     3018         2538          480 2.6010453e-12 4.5264291e-14          0.1 0.0090420315    150.73932  0.029829986 
number of iterations: 2201 
   31500    84.981025     3063         2578          485 2.6341625e-12 4.5583957e-14          0.1  0.009042555    152.75491  0.029829114 
number of iterations: 2234 
   31600    85.237133     3106         2615          491 2.6690703e-12 4.5905993e-14          0.1 0.0090431153    154.79726  0.029828181 
number of iterations: 2221 
   31700    85.532236     3145         2652          493 2.7044406e-12 4.6230415e-14          0.1  0.009043679    156.86673  0.029827242 
number of iterations: 2251 
   31800    85.774834     3179         2684          495 2.7402797e-12 4.6557241e-14          0.1 0.0090442855    158.96367  0.029826232 
number of iterations: 2262 
   31900     86.01618     3223         2721          502 2.7765937e-12 4.6886487e-14          0.1 0.0090448531    161.08845  0.029825287 
number of iterations: 2253 
   32000    86.257868     3264         2758          506 2.812191e-12 4.7218172e-14          0.1 0.0090454768    163.24053  0.029824248 
number of iterations: 2317 
   32100     86.50935     3301         2792          509 2.8494579e-12 4.7552312e-14          0.1 0.0090461561    165.42117  0.029823117 
number of iterations: 2250 
   32200    86.768249     3341         2828          513 2.8872187e-12 4.7888925e-14          0.1 0.0090467688    167.63077  0.029822096 
number of iterations: 2250 
   32300     87.02854     3388         2870          518 2.9254799e-12 4.8228027e-14          0.1 0.0090473919    169.86969  0.029821059 
number of iterations: 2240 
   32400     87.27971     3425         2902          523 2.9615445e-12 4.8569638e-14          0.1 0.0090479566    172.13627  0.029820118 
number of iterations: 2276 
   32500    87.559195     3457         2933          524 3.0007907e-12 4.8913775e-14          0.1 0.0090486252    174.43295  0.029819005 
number of iterations: 2278 
   32600    87.816434     3504         2978          526 3.0382949e-12 4.9260456e-14          0.1 0.0090492528    176.75839  0.029817959 
number of iterations: 2275 
   32700    88.085675     3563         3033          530 3.0785581e-12  4.96097e-14          0.1 0.0090498875     179.1147  0.029816902 
number of iterations: 2295 
   32800    88.338919     3610         3074          536 3.1193548e-12 4.9961525e-14          0.1 0.0090505328    181.50229  0.029815828 
number of iterations: 2246 
   32900    88.581148     3652         3114          538 3.1592767e-12 5.0315948e-14          0.1 0.0090511454     183.9205  0.029814807 
number of iterations: 2304 
   33000    88.872858     3708         3166          542 3.2011431e-12 5.067299e-14          0.1 0.0090518668     186.3708  0.029813606 
number of iterations: 2252 
   33100    89.141971     3752         3204          548 3.2416312e-12 5.1032668e-14          0.1 0.0090525094    188.85215  0.029812536 
number of iterations: 2275 
   33200    89.407163     3787         3233          554 3.2764912e-12 5.1395003e-14          0.1 0.0090530559    191.36024  0.029811626 
number of iterations: 2295 
   33300    89.667795     3836         3277          559 3.3199108e-12 5.1760011e-14          0.1 0.0090538158    193.90163   0.02981036 
number of iterations: 2297 
   33400    89.914129     3887         3324          563 3.3630701e-12 5.2127714e-14          0.1 0.0090545022     196.4761  0.029809217 
number of iterations: 2281 
   33500    90.204047     3931         3366          565 3.4063133e-12 5.2498129e-14          0.1 0.0090552093    199.08374  0.029808039 
number of iterations: 2259 
   33600    90.459606     3971         3405          566 3.4479856e-12 5.2871277e-14          0.1  0.009055873    201.72335  0.029806934 
number of iterations: 2278 
   33700    90.739537     4011         3440          571 3.4923813e-12 5.3247176e-14          0.1 0.0090566152      204.397  0.029805698 
number of iterations: 2320 
   33800    91.057779     4047         3467          580 3.5386619e-12 5.3625848e-14          0.1 0.0090573983    207.10615  0.029804394 
number of iterations: 2305 
   33900    91.315442     4097         3513          584 3.5855557e-12 5.4007312e-14          0.1 0.0090581476    209.85125  0.029803146 
number of iterations: 2328 
   34000    91.566038     4153         3565          588 3.633071e-12 5.4391589e-14          0.1 0.0090589378    212.63279   0.02980183 
number of iterations: 2304 
   34100    91.835797     4191         3600          591 3.6783543e-12 5.4778697e-14          0.1 0.0090596898    215.44906  0.029800577 
number of iterations: 2307 
   34200    92.104521     4248         3653          595 3.7260274e-12 5.5168657e-14          0.1 0.0090604532    218.30189  0.029799306 
number of iterations: 2357 
   34300    92.383127     4320         3722          598 3.7754041e-12 5.556149e-14          0.1 0.0090613255    221.19259  0.029797853 
number of iterations: 2293 
   34400    92.681868     4378         3778          600 3.8244848e-12 5.5957216e-14          0.1 0.0090620766    224.12092  0.029796602 
number of iterations: 2310 
   34500    92.950897     4429         3824          605 3.8740708e-12 5.6355858e-14          0.1  0.009062916     227.0873  0.029795204 
number of iterations: 2315 
   34600    93.227275     4479         3871          608 3.9254094e-12 5.6757435e-14          0.1 0.0090637702    230.09306  0.029793782 
number of iterations: 2296 
   34700    93.499038     4542         3927          615 3.9753664e-12 5.7161968e-14          0.1 0.0090645633    233.13714  0.029792461 
number of iterations: 2342 
   34800    93.769149     4604         3984          620 4.0270485e-12 5.7569479e-14          0.1 0.0090654282    236.22087  0.029791021 
number of iterations: 2327 
   34900    94.027043     4665         4043          622  4.07902e-12 5.7979989e-14          0.1 0.0090662965    239.34449  0.029789575 
number of iterations: 2344 
   35000     94.29896     4718         4093          625 4.1312761e-12 5.839352e-14          0.1 0.0090671751    242.50818  0.029788111 
Loop time of 94.299 on 32 procs for 35000 steps with 4718 atoms

Performance: 320682060.959 tau/day, 371.160 timesteps/s
92.2% CPU use with 32 MPI tasks x no OpenMP threads

MPI task timing breakdown:
Section |  min time  |  avg time  |  max time  |%varavg| %total
---------------------------------------------------------------
Pair    | 0.0068527  | 0.069755   | 0.22524    |  20.6 |  0.07
Neigh   | 0.0042362  | 0.020547   | 0.060619   |   9.9 |  0.02
Comm    | 0.067855   | 0.1786     | 0.24846    |   9.6 |  0.19
Output  | 23.345     | 23.345     | 23.352     |   0.0 | 24.76
Modify  | 70.168     | 70.217     | 70.307     |   0.4 | 74.46
Other   |            | 0.468      |            |       |  0.50

Nlocal:    147.438 ave 400 max 20 min
Histogram: 8 4 5 2 5 2 3 1 1 1
Nghost:    89.8125 ave 161 max 24 min
Histogram: 4 1 4 3 6 3 3 3 3 2
Neighs:    525.438 ave 1564 max 63 min
Histogram: 8 7 3 5 1 4 1 1 1 1

Total # of neighbors = 16814
Ave neighs/atom = 3.5638
Neighbor list builds = 679
Dangerous builds = 0
Total wall time: 0:01:34
