 NUFEB Simulation

     100 atoms 
     2 atom types 
     4 nutrients 

  0.0e-4   1.00e-04  xlo xhi 
  0.0e-4   1.00e-04  ylo yhi 
  0.0e-4   1.00e-05  zlo zhi 

 Atoms 

     1 1 1.63e-06  370 3.20e-05 9.82e-05 4.73e-06 1.63e-06 
     2 1 1.71e-06  370 5.62e-05 4.45e-05 5.60e-06 1.71e-06 
     3 1 1.63e-06  370 9.84e-06 1.43e-05 4.03e-06 1.63e-06 
     4 1 1.54e-06  370 6.34e-05 6.87e-05 4.95e-06 1.54e-06 
     5 1 1.46e-06  370 5.16e-06 9.32e-05 2.94e-06 1.46e-06 
     6 1 1.54e-06  370 2.48e-05 8.56e-05 1.68e-06 1.54e-06 
     7 1 1.62e-06  370 6.15e-05 5.73e-05 5.89e-06 1.62e-06 
     8 1 1.64e-06  370 1.23e-05 2.09e-05 5.81e-06 1.64e-06 
     9 1 1.53e-06  370 5.38e-05 1.19e-05 5.57e-06 1.53e-06 
     10 1 1.93e-06  370 4.26e-05 6.11e-05 3.66e-06 1.93e-06 
     11 1 1.79e-06  370 2.89e-05 2.38e-05 3.97e-06 1.79e-06 
     12 1 1.63e-06  370 2.06e-05 1.18e-05 7.48e-06 1.63e-06 
     13 1 1.86e-06  370 4.75e-05 9.63e-05 2.91e-06 1.86e-06 
     14 1 1.91e-06  370 2.61e-05 3.12e-05 6.78e-06 1.91e-06 
     15 1 1.46e-06  370 3.51e-05 9.15e-05 2.52e-06 1.46e-06 
     16 1 1.58e-06  370 3.02e-05 6.70e-05 3.32e-06 1.58e-06 
     17 1 1.65e-06  370 4.41e-05 4.55e-05 7.48e-06 1.65e-06 
     18 1 1.77e-06  370 4.32e-05 2.40e-05 7.06e-06 1.77e-06 
     19 1 1.46e-06  370 8.75e-05 2.71e-05 2.04e-06 1.46e-06 
     20 1 1.50e-06  370 1.61e-05 4.03e-05 6.90e-06 1.50e-06 
     21 1 1.40e-06  370 5.18e-05 6.40e-05 6.51e-06 1.40e-06 
     22 1 1.69e-06  370 5.41e-05 6.28e-05 6.87e-06 1.69e-06 
     23 1 1.56e-06  370 6.60e-05 9.62e-05 4.37e-06 1.56e-06 
     24 1 1.46e-06  370 2.92e-05 7.74e-05 6.14e-06 1.46e-06 
     25 1 1.65e-06  370 3.31e-05 6.84e-06 4.88e-06 1.65e-06 
     26 1 1.72e-06  370 4.36e-06 1.41e-05 4.47e-06 1.72e-06 
     27 1 1.73e-06  370 9.27e-06 9.05e-05 3.32e-06 1.73e-06 
     28 1 1.74e-06  370 6.65e-05 4.27e-05 5.46e-06 1.74e-06 
     29 1 1.43e-06  370 5.44e-05 3.52e-06 6.06e-06 1.43e-06 
     30 1 1.80e-06  370 4.12e-05 2.25e-05 2.84e-06 1.80e-06 
     31 1 1.40e-06  370 1.45e-05 4.04e-05 4.62e-06 1.40e-06 
     32 1 1.43e-06  370 6.15e-06 9.14e-05 3.90e-06 1.43e-06 
     33 1 1.41e-06  370 2.27e-06 1.87e-05 6.53e-06 1.41e-06 
     34 1 1.56e-06  370 5.45e-05 6.78e-06 6.02e-06 1.56e-06 
     35 1 1.79e-06  370 8.29e-05 8.24e-05 3.98e-06 1.79e-06 
     36 1 1.70e-06  370 8.23e-05 7.26e-05 2.08e-06 1.70e-06 
     37 1 1.75e-06  370 5.56e-05 7.72e-05 4.79e-06 1.75e-06 
     38 1 1.75e-06  370 9.43e-05 2.59e-05 7.57e-06 1.75e-06 
     39 1 1.82e-06  370 8.52e-05 4.62e-05 7.19e-06 1.82e-06 
     40 1 1.59e-06  370 4.54e-05 6.43e-05 2.12e-06 1.59e-06 
     41 1 1.48e-06  370 8.58e-06 6.81e-05 7.45e-06 1.48e-06 
     42 1 1.51e-06  370 2.61e-05 6.51e-05 6.48e-06 1.51e-06 
     43 1 1.70e-06  370 9.41e-06 2.23e-05 3.97e-06 1.70e-06 
     44 1 1.60e-06  370 1.79e-05 2.24e-05 8.39e-06 1.60e-06 
     45 1 1.71e-06  370 3.04e-05 2.88e-05 6.32e-06 1.71e-06 
     46 1 1.42e-06  370 6.78e-05 7.45e-05 3.00e-06 1.42e-06 
     47 1 1.93e-06  370 6.34e-06 6.91e-05 2.10e-06 1.93e-06 
     48 1 1.49e-06  370 2.75e-05 9.18e-05 4.62e-06 1.49e-06 
     49 1 1.50e-06  370 1.20e-05 9.43e-06 5.48e-06 1.50e-06 
     50 1 1.60e-06  370 5.58e-05 3.82e-05 6.50e-06 1.60e-06 
     51 2 1.15e-06  230 6.54e-05 6.30e-05 1.62e-06 1.15e-06 
     52 2 1.39e-06  230 4.91e-05 9.72e-05 2.63e-06 1.39e-06 
     53 2 1.30e-06  230 7.83e-05 4.70e-05 8.58e-06 1.30e-06 
     54 2 9.19e-07  230 8.03e-05 5.14e-05 4.83e-06 9.19e-07 
     55 2 1.28e-06  230 5.73e-05 1.74e-05 8.13e-06 1.28e-06 
     56 2 9.94e-07  230 8.96e-05 9.64e-06 2.66e-06 9.94e-07 
     57 2 1.17e-06  230 1.42e-06 5.29e-05 4.66e-06 1.17e-06 
     58 2 1.04e-06  230 5.21e-05 8.11e-05 7.84e-06 1.04e-06 
     59 2 1.08e-06  230 2.82e-05 1.56e-05 6.25e-06 1.08e-06 
     60 2 1.27e-06  230 4.42e-05 4.73e-05 4.19e-06 1.27e-06 
     61 2 1.14e-06  230 1.18e-05 8.14e-05 3.69e-06 1.14e-06 
     62 2 1.29e-06  230 9.45e-05 7.95e-05 8.13e-06 1.29e-06 
     63 2 1.17e-06  230 4.40e-05 8.95e-05 7.83e-06 1.17e-06 
     64 2 1.18e-06  230 5.77e-05 3.73e-05 2.97e-06 1.18e-06 
     65 2 1.26e-06  230 6.96e-05 2.36e-05 6.44e-06 1.26e-06 
     66 2 1.27e-06  230 7.54e-05 2.90e-05 6.79e-06 1.27e-06 
     67 2 1.12e-06  230 7.76e-05 2.57e-05 3.14e-06 1.12e-06 
     68 2 1.31e-06  230 9.29e-06 3.87e-05 4.20e-06 1.31e-06 
     69 2 1.17e-06  230 1.88e-05 1.13e-05 2.06e-06 1.17e-06 
     70 2 1.13e-06  230 8.92e-05 4.94e-05 8.34e-06 1.13e-06 
     71 2 1.27e-06  230 5.58e-05 6.82e-05 6.97e-06 1.27e-06 
     72 2 1.28e-06  230 9.46e-06 8.38e-05 6.81e-06 1.28e-06 
     73 2 1.26e-06  230 2.01e-05 8.32e-05 2.85e-06 1.26e-06 
     74 2 1.26e-06  230 6.54e-05 7.94e-06 7.93e-06 1.26e-06 
     75 2 1.06e-06  230 1.35e-05 9.28e-05 4.48e-06 1.06e-06 
     76 2 1.28e-06  230 1.65e-05 4.06e-05 4.69e-06 1.28e-06 
     77 2 9.43e-07  230 6.36e-05 2.02e-05 5.45e-06 9.43e-07 
     78 2 1.09e-06  230 9.77e-05 1.29e-05 1.94e-06 1.09e-06 
     79 2 1.24e-06  230 7.40e-05 4.71e-05 6.59e-06 1.24e-06 
     80 2 9.96e-07  230 5.41e-05 3.69e-05 5.12e-06 9.96e-07 
     81 2 9.90e-07  230 7.01e-05 1.61e-05 7.15e-06 9.90e-07 
     82 2 1.35e-06  230 6.54e-05 2.72e-05 3.16e-06 1.35e-06 
     83 2 1.32e-06  230 4.90e-05 1.56e-05 6.49e-06 1.32e-06 
     84 2 1.33e-06  230 5.87e-05 2.96e-05 5.67e-06 1.33e-06 
     85 2 1.09e-06  230 1.94e-05 7.13e-06 1.59e-06 1.09e-06 
     86 2 1.14e-06  230 2.61e-05 8.71e-05 4.95e-06 1.14e-06 
     87 2 1.31e-06  230 3.17e-05 2.98e-05 2.29e-06 1.31e-06 
     88 2 1.25e-06  230 8.09e-05 5.09e-05 6.05e-06 1.25e-06 
     89 2 9.01e-07  230 5.09e-05 7.11e-05 1.56e-06 9.01e-07 
     90 2 9.50e-07  230 4.93e-05 1.13e-05 4.88e-06 9.50e-07 
     91 2 9.40e-07  230 5.89e-05 6.61e-05 2.04e-06 9.40e-07 
     92 2 8.97e-07  230 2.53e-05 4.05e-05 6.18e-06 8.97e-07 
     93 2 1.20e-06  230 1.99e-05 4.98e-05 4.82e-06 1.20e-06 
     94 2 1.26e-06  230 7.21e-05 1.89e-05 7.58e-06 1.26e-06 
     95 2 1.07e-06  230 5.76e-05 6.93e-06 7.21e-06 1.07e-06 
     96 2 1.06e-06  230 6.05e-05 1.85e-05 1.57e-06 1.06e-06 
     97 2 1.33e-06  230 9.47e-05 5.82e-05 6.15e-06 1.33e-06 
     98 2 1.04e-06  230 4.83e-06 8.69e-05 2.76e-06 1.04e-06 
     99 2 9.76e-07  230 3.63e-05 4.37e-05 4.95e-06 9.76e-07 
     100 2 9.20e-07  230 2.35e-05 7.31e-05 6.42e-06 9.20e-07 

 Nutrients 

     1 sub g nn nn nn 1.00e-01 1.00e-01 
     2 o2 l nn nn nd 9.00e-03 9.00e-03 
     3 suc l nn nn nn 3.42e-20 3.42e-20 
     4 co2 l nn nn nd 2.99e-02 2.99e-02 

 Type Name 

     1 cyano  
     2 ecw  

 Diffusion Coeffs 

     sub 0 
     o2 2.3e-09 
     suc 5.2e-10 
     co2 1.9e-09 

 Growth Rate 

     cyano 1.67e-05 
     ecw 1e-06 

 Ks 

     cyano 0.00035 0.0002 0.01 0.000138 
     ecw 0 0.001 3.6 0.05 

 Yield 

     cyano 0.55 
     ecw 0.43 

 Maintenance 

     cyano 0 
     ecw 9.5e-07 

 Decay 

     cyano 0 
     ecw 0 



