LAMMPS (20 Nov 2019)
Reading data file ...
  orthogonal box = (0 0 0) to (0.0001 0.0001 1e-05)
  8 by 4 by 1 MPI processor grid
  reading atoms ...
  100 atoms
  4 nutrients
Lattice spacing in x,y,z = 100 100 100
50 atoms in group CYANO
50 atoms in group ECW
Model is defined as a closed system. 
Neighbor list info ...
  update every 1 steps, delay 0 steps, check yes
  max neighbors/atom: 5000, page size: 100000
  master list distance cutoff = 2.43e-06
  ghost atom cutoff = 2.43e-06
  binsize = 1.215e-06, bins = 83 83 9
  1 neighbor lists, perpetual/occasional/extra = 1 0 0
  (1) pair gran/hooke/history, perpetual
      attributes: half, newton off, size, history
      pair build: half/size/bin/newtoff
      stencil: half/bin/3d/newtoff
      bin: standard
Setting up Verlet run ...
  Unit style    : lj
  Current step  : 0
  Time step     : 10
Per MPI rank memory allocation (min/avg/max) = 5.794 | 10.31 | 12.11 Mbytes
Step CPU Atoms c_myNtypes[1] c_myNtypes[2] c_myMass[1] c_myMass[2] c_myCon[1] c_myCon[2] c_myCon[3] c_myCon[4] 
       0            0      100           50           50 4.2433319e-14 9.6231253e-15          0.1        0.009     3.42e-20       0.0299 
number of iterations: 329206 
     100     15.83681      139           50           89 4.2995655e-14 9.6149787e-15          0.1 0.0090007369  0.034109933  0.029898772 
number of iterations: 3768 
     200    16.171183      154           50          104 4.3565442e-14 9.6069151e-15          0.1 0.0090007467  0.067582587  0.029898756 
number of iterations: 2456 
     300    16.425566      154           50          104 4.4142781e-14 9.5989349e-15          0.1 0.0090007566    0.1014932   0.02989874 
number of iterations: 1936 
     400    16.670659      154           50          104 4.4727771e-14 9.5910376e-15          0.1 0.0090007666   0.13585002  0.029898723 
number of iterations: 1670 
     500    16.911825      156           52          104 4.5320513e-14 9.583223e-15          0.1 0.0090007759   0.17065974  0.029898707 
number of iterations: 1485 
     600     17.13348      156           52          104 4.592111e-14 9.5754905e-15          0.1 0.0090007862   0.20592861   0.02989869 
number of iterations: 1427 
     700    17.325615      157           53          104 4.6529667e-14 9.5678396e-15          0.1 0.0090007966   0.24166288  0.029898673 
number of iterations: 1430 
     800    17.519978      157           53          104 4.7146288e-14 9.5602697e-15          0.1 0.0090008072   0.27786886  0.029898655 
number of iterations: 1433 
     900    17.716349      157           53          104 4.7771081e-14 9.5527803e-15          0.1 0.0090008179   0.31455287  0.029898638 
number of iterations: 1436 
    1000    18.035126      157           53          104 4.8404154e-14 9.5453709e-15          0.1 0.0090008287   0.35172135   0.02989862 
number of iterations: 1439 
    1100    18.214951      157           53          104 4.9045616e-14 9.5380409e-15          0.1 0.0090008397   0.38938077  0.029898601 
number of iterations: 1441 
    1200    18.398219      157           53          104 4.9695579e-14 9.5307897e-15          0.1 0.0090008508    0.4275377  0.029898583 
number of iterations: 1439 
    1300     18.59888      158           54          104 5.0354155e-14 9.5236167e-15          0.1 0.0090008621   0.46619889  0.029898564 
number of iterations: 1447 
    1400    18.773558      158           54          104 5.102146e-14 9.5165215e-15          0.1 0.0090008735   0.50537098  0.029898545 
number of iterations: 1450 
    1500    18.982455      158           54          104 5.1697607e-14 9.5095032e-15          0.1 0.0090008851   0.54506078  0.029898526 
number of iterations: 1453 
    1600    19.163334      158           54          104 5.2382715e-14 9.5025615e-15          0.1 0.0090008969   0.58527519  0.029898506 
number of iterations: 1455 
    1700    19.363569      158           54          104 5.3076902e-14 9.4956958e-15          0.1 0.0090009087   0.62602122  0.029898486 
number of iterations: 1458 
    1800    19.563942      159           55          104 5.3780288e-14 9.4889052e-15          0.1 0.0090009208   0.66730594  0.029898466 
number of iterations: 1461 
    1900    19.743884      159           55          104 5.4492996e-14 9.4821894e-15          0.1  0.009000933   0.70913654  0.029898446 
number of iterations: 1464 
    2000    19.964346      159           55          104 5.5215149e-14 9.4755478e-15          0.1 0.0090009454    0.7515203  0.029898425 
number of iterations: 1467 
    2100    20.147811      160           56          104 5.5946872e-14 9.4689797e-15          0.1 0.0090009579   0.79446457  0.029898404 
number of iterations: 1481 
    2200     20.34367      162           58          104 5.6688292e-14 9.4624846e-15          0.1 0.0090009657   0.83797693  0.029898391 
number of iterations: 1472 
    2300    20.532033      162           58          104 5.7439537e-14 9.456062e-15          0.1 0.0090009785   0.88206483   0.02989837 
number of iterations: 1475 
    2400    20.727906      162           58          104 5.8200738e-14 9.4497112e-15          0.1 0.0090009915   0.92673595  0.029898349 
number of iterations: 1481 
    2500    20.911271      163           59          104 5.8972026e-14 9.4434316e-15          0.1 0.0090010046   0.97199803  0.029898327 
number of iterations: 1481 
    2600    21.096555      163           59          104 5.9753536e-14 9.4372227e-15          0.1 0.0090010179     1.017859  0.029898304 
number of iterations: 1539 
    2700    21.287959      165           61          104 6.0545403e-14 9.4310839e-15          0.1 0.0090010265    1.0643267   0.02989829 
number of iterations: 1486 
    2800     21.46487      165           61          104 6.1347763e-14 9.4250145e-15          0.1 0.0090010401    1.1114093  0.029898267 
number of iterations: 1489 
    2900    21.638283      166           62          104 6.2160757e-14 9.4190141e-15          0.1 0.0090010502     1.159115  0.029898251 
number of iterations: 1492 
    3000    21.905761      167           63          104 6.2984524e-14 9.413082e-15          0.1 0.0090010641    1.2074521  0.029898228 
number of iterations: 1715 
    3100    22.091593      168           64          104 6.3819209e-14 9.4072176e-15          0.1 0.0090010813    1.2564287  0.029898199 
number of iterations: 1497 
    3200    22.281741      168           64          104 6.4664954e-14 9.4014205e-15          0.1 0.0090010957    1.3060536  0.029898175 
number of iterations: 1576 
    3300    22.471767      170           66          104 6.5521908e-14 9.3956899e-15          0.1 0.0090011105    1.3563355   0.02989815 
number of iterations: 1502 
    3400    22.673522      172           68          104 6.6390218e-14 9.3900254e-15          0.1 0.0090011239    1.4072829  0.029898128 
number of iterations: 1506 
    3500     22.84694      173           69          104 6.7270035e-14 9.3844263e-15          0.1 0.0090011388    1.4589049  0.029898103 
number of iterations: 1509 
    3600    23.030709      173           69          104 6.8161512e-14 9.3788922e-15          0.1 0.0090011539    1.5112103  0.029898078 
number of iterations: 1511 
    3700    23.208372      173           69          104 6.9064802e-14 9.3734224e-15          0.1 0.0090011692    1.5642082  0.029898052 
number of iterations: 1514 
    3800    23.388834      173           69          104 6.9980064e-14 9.3680163e-15          0.1 0.0090011847    1.6179079  0.029898027 
number of iterations: 1646 
    3900    23.570432      173           69          104 7.0907454e-14 9.3626735e-15          0.1 0.0090012075    1.6723187  0.029897989 
number of iterations: 1520 
    4000    23.761086      173           69          104 7.1847134e-14 9.3573933e-15          0.1 0.0090012235    1.7274501  0.029897962 
number of iterations: 1518 
    4100      23.9556      175           71          104 7.2799268e-14 9.3521753e-15          0.1 0.0090012339    1.7833115  0.029897945 
number of iterations: 1524 
    4200    24.169752      176           72          104 7.3764019e-14 9.3470187e-15          0.1 0.0090012466    1.8399129  0.029897924 
number of iterations: 1528 
    4300    24.345608      176           72          104 7.4741555e-14 9.3419232e-15          0.1 0.0090012631    1.8972638  0.029897896 
number of iterations: 1498 
    4400    24.519909      179           75          104 7.5732046e-14 9.3368881e-15          0.1 0.0090012763    1.9553747  0.029897874 
number of iterations: 1530 
    4500    24.738665      180           76          104 7.6735663e-14 9.3319128e-15          0.1 0.0090012889    2.0142553  0.029897853 
number of iterations: 1531 
    4600    24.903815      180           76          104 7.775258e-14 9.3269969e-15          0.1 0.0090013029    2.0739159   0.02989783 
number of iterations: 1535 
    4700    25.094198      180           76          104 7.8782973e-14 9.3221398e-15          0.1 0.0090013202    2.1343668  0.029897801 
number of iterations: 1672 
    4800    25.280534      182           78          104 7.9827021e-14 9.3173411e-15          0.1 0.0090013464    2.1956185  0.029897757 
number of iterations: 1540 
    4900    25.461657      185           81          104 8.0884906e-14 9.3126002e-15          0.1 0.0090013642    2.2576817  0.029897728 
number of iterations: 1549 
    5000    25.667151      185           81          104 8.1956809e-14 9.3079164e-15          0.1 0.0090013834    2.3205671  0.029897696 
number of iterations: 1542 
    5100    25.871646      187           83          104 8.3042918e-14 9.3032892e-15          0.1 0.0090013969    2.3842856  0.029897673 
number of iterations: 1549 
    5200    26.057433      187           83          104 8.414342e-14 9.2987181e-15          0.1 0.0090014154    2.4488484  0.029897642 
number of iterations: 1552 
    5300    26.238648      187           83          104 8.5258506e-14 9.2942027e-15          0.1 0.0090014342    2.5142666  0.029897611 
number of iterations: 1637 
    5400    26.417093      189           85          104 8.6388369e-14 9.2897422e-15          0.1 0.0090014611    2.5805519  0.029897566 
number of iterations: 1558 
    5500    26.592833      189           85          104 8.7533206e-14 9.2853362e-15          0.1 0.0090014804    2.6477155  0.029897534 
number of iterations: 1560 
    5600    26.772401      191           87          104 8.8693214e-14 9.2809843e-15          0.1 0.0090014986    2.7157691  0.029897504 
number of iterations: 1563 
    5700    27.000474      191           87          104 8.9868594e-14 9.2766859e-15          0.1 0.0090015185    2.7847245  0.029897471 
number of iterations: 1601 
    5800    27.197657      193           89          104 9.1059552e-14 9.2724408e-15          0.1 0.0090015356    2.8545936  0.029897442 
number of iterations: 1638 
    5900    27.400253      193           89          104 9.2266291e-14 9.2682481e-15          0.1 0.0090015607    2.9253886  0.029897401 
number of iterations: 1689 
    6000    27.590844      193           89          104 9.3489023e-14 9.2641074e-15          0.1 0.0090015853    2.9971218   0.02989736 
number of iterations: 1642 
    6100    27.812472      194           90          104 9.4727959e-14 9.2600183e-15          0.1 0.0090016103    3.0698057  0.029897318 
number of iterations: 1605 
    6200     28.00468      197           93          104 9.5983313e-14 9.2559799e-15          0.1 0.0090016357    3.1434529  0.029897276 
number of iterations: 1582 
    6300    28.213841      197           93          104 9.7255304e-14 9.2519921e-15          0.1 0.0090016485    3.2180761  0.029897254 
number of iterations: 1676 
    6400    28.402081      198           94          104 9.8544151e-14 9.2480541e-15          0.1 0.0090016727    3.2936881  0.029897214 
number of iterations: 1592 
    6500    28.585987      199           95          104 9.9850078e-14 9.2441657e-15          0.1 0.0090016962    3.3703023  0.029897175 
number of iterations: 1584 
    6600    28.794623      202           98          104 1.0117331e-13 9.2403263e-15          0.1 0.0090017121    3.4479319  0.029897148 
number of iterations: 1585 
    6700    28.977717      204          100          104 1.0251408e-13 9.2365357e-15          0.1 0.0090017317     3.526591  0.029897116 
number of iterations: 1601 
    6800    29.188997      204          100          104 1.0387262e-13 9.232793e-15          0.1 0.0090017547    3.6062923  0.029897077 
number of iterations: 1684 
    6900    29.390367      209          105          104 1.0524916e-13 9.2290981e-15          0.1 0.0090017871    3.6870499  0.029897024 
number of iterations: 1596 
    7000    29.565235      210          106          104 1.0664394e-13 9.2254503e-15          0.1 0.0090017968    3.7688779  0.029897007 
number of iterations: 1602 
    7100    29.776161      212          108          104 1.0805721e-13 9.2218492e-15          0.1 0.0090018177    3.8517906  0.029896973 
number of iterations: 1606 
    7200    29.954435      212          108          104 1.0948921e-13 9.2182942e-15          0.1 0.0090018453    3.9358024  0.029896927 
number of iterations: 1653 
    7300    30.154683      215          111          104 1.1094018e-13 9.2147849e-15          0.1 0.0090018727    4.0209279  0.029896881 
number of iterations: 1636 
    7400    30.330667      216          112          104 1.1241038e-13 9.2113208e-15          0.1 0.0090018975    4.1071816   0.02989684 
number of iterations: 1612 
    7500    30.524372      218          114          104 1.1390007e-13 9.2079014e-15          0.1 0.0090019202    4.1945789  0.029896802 
number of iterations: 1727 
    7600    30.713962      219          115          104 1.1540949e-13 9.2045264e-15          0.1 0.0090019449     4.283135  0.029896761 
number of iterations: 1762 
    7700    30.908189      221          117          104 1.1693892e-13 9.2011951e-15          0.1  0.009001975    4.3728649  0.029896711 
number of iterations: 1662 
    7800    31.131665      224          120          104 1.1848862e-13 9.1979073e-15          0.1 0.0090020097    4.4637843  0.029896653 
number of iterations: 1632 
    7900    31.317482      225          121          104 1.2005886e-13 9.1946624e-15          0.1 0.0090020394     4.555909  0.029896603 
number of iterations: 1630 
    8000    31.501173      225          121          104 1.216499e-13 9.1914601e-15          0.1 0.0090020665     4.649255  0.029896558 
number of iterations: 1635 
    8100    31.780923      226          122          104 1.2326203e-13 9.1882999e-15          0.1 0.0090020985    4.7438391  0.029896505 
number of iterations: 1636 
    8200    31.970721      227          123          104 1.2489552e-13 9.1851813e-15          0.1 0.0090021263    4.8396771  0.029896459 
number of iterations: 1634 
    8300    32.186386      228          124          104 1.2655066e-13 9.182104e-15          0.1  0.009002152    4.9367858  0.029896416 
number of iterations: 1672 
    8400    32.387875      232          128          104 1.2822774e-13 9.1790675e-15          0.1 0.0090021805    5.0351819  0.029896368 
number of iterations: 1656 
    8500    32.582577      232          128          104 1.2992704e-13 9.1760714e-15          0.1 0.0090022094    5.1348828   0.02989632 
number of iterations: 1665 
    8600    32.755945      233          129          104 1.3164886e-13 9.1731152e-15          0.1 0.0090022387    5.2359056  0.029896272 
number of iterations: 1772 
    8700    32.947865      234          130          104 1.3339349e-13 9.1701986e-15          0.1  0.009002278    5.3382681  0.029896206 
number of iterations: 1622 
    8800    33.141357      236          132          104 1.3516125e-13 9.167321e-15          0.1 0.0090023018    5.4419874  0.029896166 
number of iterations: 1701 
    8900    33.322853      237          133          104 1.3695244e-13 9.1644822e-15          0.1 0.0090023363    5.5470821  0.029896109 
number of iterations: 1736 
    9000    33.513622      243          139          104 1.3876736e-13 9.1616816e-15          0.1 0.0090023642    5.6535698  0.029896062 
number of iterations: 1739 
    9100     33.71298      244          140          104 1.4060633e-13 9.158919e-15          0.1  0.009002401    5.7614696  0.029896001 
number of iterations: 1768 
    9200    33.897524      246          142          104 1.4246967e-13 9.1561937e-15          0.1 0.0090024357    5.8708001  0.029895944 
number of iterations: 1791 
    9300    34.102693      247          143          104 1.4435771e-13 9.1535055e-15          0.1 0.0090024739    5.9815802   0.02989588 
number of iterations: 1666 
    9400    34.300474      248          144          104 1.4627076e-13 9.1508541e-15          0.1 0.0090025029    6.0938291  0.029895832 
number of iterations: 1682 
    9500    34.501227      251          147          104 1.4820917e-13 9.1482389e-15          0.1 0.0090025372    6.2075664  0.029895774 
number of iterations: 1673 
    9600    34.723125      254          150          104 1.5017327e-13 9.1456595e-15          0.1 0.0090025724    6.3228119  0.029895716 
number of iterations: 1691 
    9700     34.92853      255          151          104 1.521634e-13 9.1431156e-15          0.1 0.0090026011    6.4395854  0.029895668 
number of iterations: 1693 
    9800    35.122875      258          154          104 1.541799e-13 9.1406067e-15          0.1 0.0090026273    6.5579065  0.029895624 
number of iterations: 1713 
    9900    35.316461      261          157          104 1.5622312e-13 9.1381325e-15          0.1 0.0090026685    6.6777964  0.029895556 
number of iterations: 1708 
   10000    35.511916      261          157          104 1.5829342e-13 9.1356927e-15          0.1 0.0090027039    6.7992757  0.029895497 
number of iterations: 1693 
   10100    35.733096      263          159          104 1.6039115e-13 9.1332869e-15          0.1 0.0090027424    6.9223658  0.029895433 
number of iterations: 1696 
   10200    35.943491      263          159          104 1.6251669e-13 9.1309147e-15          0.1 0.0090027788    7.0470881  0.029895372 
number of iterations: 1694 
   10300    36.151768      264          160          104 1.6467039e-13 9.1285758e-15          0.1 0.0090028119    7.1734642  0.029895317 
number of iterations: 1794 
   10400     36.36094      265          161          104 1.6685263e-13 9.1262698e-15          0.1 0.0090028537     7.301516  0.029895247 
number of iterations: 1594 
   10500    36.533559      268          164          104 1.690638e-13 9.1239962e-15          0.1  0.009002883    7.4312653  0.029895199 
number of iterations: 1711 
   10600    36.711862      271          167          104 1.7130426e-13 9.1217548e-15          0.1 0.0090029181    7.5627351   0.02989514 
number of iterations: 1712 
   10700    36.903187      274          170          104 1.7357442e-13 9.1195453e-15          0.1 0.0090029578    7.6959481  0.029895074 
number of iterations: 1759 
   10800    37.101222      276          172          104 1.7587466e-13 9.1173671e-15          0.1 0.0090030033    7.8309275  0.029894998 
number of iterations: 1716 
   10900    37.319824      276          172          104 1.7820539e-13  9.11522e-15          0.1 0.0090030431    7.9676966  0.029894932 
number of iterations: 1811 
   11000    37.529682      278          174          104  1.80567e-13 9.1131037e-15          0.1 0.0090030884    8.1062791  0.029894857 
number of iterations: 1723 
   11100    37.762179      279          175          104 1.8295991e-13 9.1110178e-15          0.1 0.0090031293    8.2466992  0.029894788 
number of iterations: 1699 
   11200    37.997958      282          178          104 1.8538453e-13 9.1089621e-15          0.1 0.0090031655    8.3889811  0.029894728 
number of iterations: 1731 
   11300    38.196154      286          182          104 1.8784128e-13 9.106936e-15          0.1 0.0090032036    8.5331504  0.029894665 
number of iterations: 1746 
   11400    38.370648      291          187          104 1.9033058e-13 9.1049393e-15          0.1 0.0090032459    8.6792313  0.029894594 
number of iterations: 1744 
   11500    38.589378      292          188          104 1.9285288e-13 9.1029717e-15          0.1 0.0090032837    8.8272489  0.029894531 
number of iterations: 1723 
   11600    38.778883      297          193          104 1.954086e-13 9.1010329e-15          0.1 0.0090033183     8.977229  0.029894474 
number of iterations: 1744 
   11700    39.001946      300          196          104 1.979982e-13 9.0991225e-15          0.1 0.0090033617    9.1291978  0.029894402 
number of iterations: 1817 
   11800    39.204205      304          200          104 2.006221e-13 9.0972404e-15          0.1 0.0090034071    9.2831813  0.029894326 
number of iterations: 1819 
   11900    39.405343      307          203          104 2.0328079e-13 9.095386e-15          0.1 0.0090034542    9.4392066  0.029894247 
number of iterations: 1745 
   12000    39.605221      308          204          104 2.059747e-13 9.093559e-15          0.1    0.0090035    9.5973008  0.029894171 
number of iterations: 1742 
   12100    39.848351      312          208          104 2.0870432e-13 9.0917593e-15          0.1 0.0090035448    9.7574915  0.029894097 
number of iterations: 1772 
   12200    40.068078      314          210          104 2.114701e-13 9.0899864e-15          0.1  0.009003597    9.9198066   0.02989401 
number of iterations: 1754 
   12300    40.238545      316          212          104 2.1427255e-13 9.0882401e-15          0.1 0.0090036371    10.084274  0.029893943 
number of iterations: 1749 
   12400    40.444757      318          214          104 2.1711213e-13  9.08652e-15          0.1 0.0090036879    10.250921  0.029893858 
number of iterations: 1728 
   12500    40.653709      322          218          104 2.1998934e-13 9.0848258e-15          0.1 0.0090037162    10.419779  0.029893811 
number of iterations: 1769 
   12600    40.842363      322          218          104 2.2290467e-13 9.0831573e-15          0.1 0.0090037695    10.590875  0.029893723 
number of iterations: 1695 
   12700    41.037166      326          222          104 2.2585865e-13 9.0815141e-15          0.1 0.0090038087     10.76424  0.029893657 
number of iterations: 1812 
   12800    41.248718      331          227          104 2.2885177e-13 9.079896e-15          0.1 0.0090038524    10.939903  0.029893584 
number of iterations: 1834 
   12900    41.452913      334          230          104 2.3188455e-13 9.0783027e-15          0.1 0.0090039129    11.117897  0.029893484 
number of iterations: 1810 
   13000    41.649926      336          232          104 2.3495753e-13 9.076734e-15          0.1 0.0090039761     11.29825  0.029893378 
number of iterations: 1739 
   13100    41.929154      340          236          104 2.3807123e-13 9.0751894e-15          0.1 0.0090040101    11.480995  0.029893322 
number of iterations: 1865 
   13200    42.120261      343          239          104 2.4122619e-13 9.0736688e-15          0.1 0.0090040679    11.666162  0.029893226 
number of iterations: 1795 
   13300    42.333376      346          242          104 2.4442297e-13 9.0721718e-15          0.1 0.0090041176    11.853785  0.029893143 
number of iterations: 1880 
   13400    42.550036      349          245          104 2.476621e-13 9.0706983e-15          0.1 0.0090041861    12.043896  0.029893029 
number of iterations: 1825 
   13500      42.7552      352          248          104 2.5094417e-13 9.0692479e-15          0.1 0.0090042428    12.236528  0.029892934 
number of iterations: 1798 
   13600    42.962395      357          253          104 2.5426972e-13 9.0678203e-15          0.1 0.0090042969    12.431715  0.029892844 
number of iterations: 1867 
   13700    43.148422      361          257          104 2.5763935e-13 9.0664155e-15          0.1 0.0090043599    12.629489  0.029892739 
number of iterations: 1801 
   13800    43.370082      363          259          104 2.6105363e-13 9.0650329e-15          0.1 0.0090044188    12.829886  0.029892641 
number of iterations: 1799 
   13900    43.582685      364          260          104 2.6451316e-13 9.0636724e-15          0.1 0.0090044738    13.032941   0.02989255 
number of iterations: 1803 
   14000    43.795084      367          263          104 2.6801854e-13 9.0623337e-15          0.1 0.0090045331    13.238687  0.029892451 
number of iterations: 1768 
   14100    44.002986      371          267          104 2.7157037e-13 9.0610165e-15          0.1 0.0090045803    13.447163  0.029892372 
number of iterations: 1866 
   14200    44.224587      374          270          104 2.7516927e-13 9.0597207e-15          0.1 0.0090046466    13.658402  0.029892262 
number of iterations: 1868 
   14300    44.411939      379          275          104 2.7881586e-13 9.0584459e-15          0.1 0.0090047149    13.872443  0.029892148 
number of iterations: 1822 
   14400    44.649072      380          276          104 2.8251077e-13 9.0571919e-15          0.1 0.0090047774    14.089322  0.029892044 
number of iterations: 1818 
   14500    44.848024      383          279          104 2.8625466e-13 9.0559584e-15          0.1 0.0090048409    14.309078  0.029891938 
number of iterations: 1839 
   14600    45.048024      384          280          104 2.9004815e-13 9.0547453e-15          0.1 0.0090049086    14.531747  0.029891826 
number of iterations: 1864 
   14700     45.26254      391          287          104 2.9389192e-13 9.0535523e-15          0.1  0.009004982    14.757369  0.029891704 
number of iterations: 1830 
   14800    45.465737      394          290          104 2.9778663e-13 9.0523791e-15          0.1 0.0090050537    14.985983  0.029891584 
number of iterations: 1839 
   14900    45.669163      396          292          104 3.0173295e-13 9.0512256e-15          0.1 0.0090051157    15.217628  0.029891481 
number of iterations: 1831 
   15000       45.871      400          296          104 3.0573156e-13 9.0500913e-15          0.1 0.0090051835    15.452344  0.029891368 
number of iterations: 1823 
   15100    46.074998      411          307          104 3.0978317e-13 9.0489762e-15          0.1 0.0090052509    15.690172  0.029891256 
number of iterations: 1957 
   15200     46.28593      414          310          104 3.1388847e-13 9.0478801e-15          0.1 0.0090053423    15.931154  0.029891104 
number of iterations: 1837 
   15300    46.505447      419          315          104 3.1804817e-13 9.0468027e-15          0.1 0.0090054066    16.175331  0.029890997 
number of iterations: 1885 
   15400    46.721283      422          318          104  3.22263e-13 9.0457437e-15          0.1 0.0090054768    16.422745   0.02989088 
number of iterations: 1849 
   15500    46.932173      423          319          104 3.2653369e-13 9.044703e-15          0.1 0.0090055494     16.67344  0.029890759 
number of iterations: 1861 
   15600    47.134981      428          324          104 3.3086097e-13 9.0436804e-15          0.1 0.0090056234    16.927458  0.029890636 
number of iterations: 1854 
   15700      47.3384      428          324          104 3.3524559e-13 9.0426755e-15          0.1 0.0090056991    17.184844   0.02989051 
number of iterations: 1894 
   15800    47.568911      438          334          104 3.3968832e-13 9.0416883e-15          0.1 0.0090057753    17.445643  0.029890383 
number of iterations: 1842 
   15900     47.75887      440          336          104 3.4418993e-13 9.0407185e-15          0.1 0.0090058366      17.7099  0.029890281 
number of iterations: 1864 
   16000    48.011143      446          342          104 3.4875119e-13 9.0397658e-15          0.1 0.0090059214     17.97766  0.029890139 
number of iterations: 1884 
   16100    48.224207      451          347          104 3.533729e-13 9.0388302e-15          0.1 0.0090060063    18.248972  0.029889998 
number of iterations: 1833 
   16200    48.438983      458          354          104 3.5805585e-13 9.0379113e-15          0.1   0.00900606     18.52388  0.029889909 
number of iterations: 1896 
   16300    48.646229      463          359          104 3.6280087e-13 9.037009e-15          0.1 0.0090061413    18.802433  0.029889773 
number of iterations: 1805 
   16400    48.825972      470          366          104 3.6760876e-13 9.0361231e-15          0.1 0.0090061901    19.084679  0.029889692 
number of iterations: 1920 
   16500    49.044763      473          369          104 3.7248037e-13 9.0352535e-15          0.1 0.0090062857    19.370667  0.029889533 
number of iterations: 1876 
   16600     49.25226      476          372          104 3.7741655e-13 9.0343997e-15          0.1 0.0090063612    19.660447  0.029889407 
number of iterations: 1879 
   16700    49.470464      481          377          104 3.8241813e-13 9.0335618e-15          0.1 0.0090064498    19.954069   0.02988926 
number of iterations: 1856 
   16800    49.685759      486          382          104  3.87486e-13 9.0327395e-15          0.1 0.0090065275    20.251584   0.02988913 
number of iterations: 1871 
   16900    49.897245      491          387          104 3.9262102e-13 9.0319325e-15          0.1 0.0090066014    20.553045  0.029889007 
number of iterations: 1899 
   17000     50.10549      491          387          104 3.978241e-13 9.0311408e-15          0.1 0.0090066927    20.858501  0.029888855 
number of iterations: 1904 
   17100    50.363639      498          394          104 4.0309613e-13 9.0303641e-15          0.1 0.0090067798    21.168008   0.02988871 
number of iterations: 1947 
   17200    50.559584      503          399          104 4.0843802e-13 9.0296023e-15          0.1 0.0090068698    21.481617   0.02988856 
number of iterations: 1886 
   17300    50.775314      507          403          104 4.1385071e-13 9.0288551e-15          0.1 0.0090069643    21.799383  0.029888403 
number of iterations: 1886 
   17400    50.977203      515          411          104 4.1933512e-13 9.0281224e-15          0.1 0.0090070549    22.121363  0.029888252 
number of iterations: 1915 
   17500    51.182166      523          419          104 4.2489222e-13 9.027404e-15          0.1 0.0090071509    22.447611  0.029888092 
number of iterations: 1964 
   17600    51.371657      531          427          104 4.3052295e-13 9.0266998e-15          0.1 0.0090072584    22.778184  0.029887913 
number of iterations: 1893 
   17700    51.580518      534          430          104 4.3622831e-13 9.0260095e-15          0.1 0.0090073456    23.113139  0.029887768 
number of iterations: 1961 
   17800    51.812856      538          434          104 4.4200927e-13 9.0253331e-15          0.1 0.0090074576    23.452535  0.029887581 
number of iterations: 1938 
   17900    52.036233      548          444          104 4.4786685e-13 9.0246703e-15          0.1 0.0090075558     23.79643  0.029887418 
number of iterations: 1942 
   18000    52.255938      552          448          104 4.5380205e-13 9.024021e-15          0.1 0.0090076525    24.144884  0.029887257 
number of iterations: 1910 
   18100    52.474012      560          456          104 4.598159e-13 9.0233849e-15          0.1 0.0090077459    24.497957  0.029887101 
number of iterations: 1912 
   18200    52.684057      565          461          104 4.6590945e-13 9.022762e-15          0.1  0.009007836    24.855711  0.029886951 
number of iterations: 1985 
   18300    52.910676      573          469          104 4.7208375e-13 9.0221521e-15          0.1  0.009007953    25.218208  0.029886757 
number of iterations: 1955 
   18400    53.114441      580          476          104 4.7833988e-13 9.021555e-15          0.1 0.0090080631    25.585512  0.029886573 
number of iterations: 1996 
   18500    53.323286      587          483          104 4.8467891e-13 9.0209706e-15          0.1 0.0090081956    25.957686  0.029886353 
number of iterations: 1951 
   18600    53.564482      592          488          104 4.9110194e-13 9.0203986e-15          0.1 0.0090082969    26.334792  0.029886184 
number of iterations: 1949 
   18700    53.758212      599          495          104 4.976101e-13 9.0198391e-15          0.1 0.0090084025    26.716897  0.029886008 
number of iterations: 1934 
   18800    53.967629      602          498          104 5.042045e-13 9.0192917e-15          0.1 0.0090085091    27.104069  0.029885831 
number of iterations: 2022 
   18900    54.183494      609          505          104 5.1088629e-13 9.0187565e-15          0.1 0.0090086289    27.496374  0.029885631 
number of iterations: 1906 
   19000    54.386188      616          512          104 5.1765663e-13 9.0182331e-15          0.1 0.0090087346     27.89388  0.029885455 
number of iterations: 1868 
   19100    54.628209      626          522          104 5.2451669e-13 9.0177215e-15          0.1 0.0090088384    28.296655  0.029885282 
number of iterations: 1933 
   19200    54.827852      631          527          104 5.3146766e-13 9.0172215e-15          0.1 0.0090089475     28.70477  0.029885101 
number of iterations: 1961 
   19300    55.031711      638          534          104 5.3851075e-13 9.0167329e-15          0.1 0.0090090602    29.118295  0.029884913 
number of iterations: 1942 
   19400    55.261653      644          540          104 5.4564717e-13 9.0162557e-15          0.1 0.0090091643    29.537301   0.02988474 
number of iterations: 1964 
   19500    55.455059      653          549          104 5.5287816e-13 9.0157897e-15          0.1 0.0090092835    29.961863  0.029884541 
number of iterations: 1972 
   19600    55.664969      658          554          104 5.6020498e-13 9.0153347e-15          0.1 0.0090094135    30.392053  0.029884325 
number of iterations: 1986 
   19700    55.867068      665          561          104 5.6762889e-13 9.0148907e-15          0.1 0.0090095511    30.827948  0.029884096 
number of iterations: 2022 
   19800    56.092224      671          567          104 5.7515119e-13 9.0144574e-15          0.1 0.0090096915     31.26962  0.029883862 
number of iterations: 2003 
   19900    56.312874      679          575          104 5.8277317e-13 9.0140348e-15          0.1  0.009009831    31.717149  0.029883629 
number of iterations: 1971 
   20000    56.547885      684          580          104 5.9049616e-13 9.0136227e-15          0.1 0.0090099506    32.170611   0.02988343 
number of iterations: 1978 
   20100    56.763613      694          590          104 5.9832149e-13 9.0132211e-15          0.1 0.0090100855    32.630084  0.029883206 
number of iterations: 1988 
   20200    57.001031      702          598          104 6.0625053e-13 9.0128297e-15          0.1 0.0090102208    33.095647   0.02988298 
number of iterations: 2020 
   20300    57.214342      708          604          104 6.1428464e-13 9.0124484e-15          0.1 0.0090103715    33.567383  0.029882729 
number of iterations: 1988 
   20400    57.414086      713          609          104 6.2242522e-13 9.0120771e-15          0.1 0.0090105086    34.045373  0.029882501 
number of iterations: 1986 
   20500    57.619082      720          616          104 6.3067368e-13 9.0117157e-15          0.1  0.009010651    34.529699  0.029882264 
number of iterations: 2024 
   20600    57.875688      729          625          104 6.3903145e-13 9.0113641e-15          0.1 0.0090108018    35.020445  0.029882013 
number of iterations: 2031 
   20700    58.096148      741          637          104 6.4749997e-13 9.0110222e-15          0.1 0.0090109532    35.517696  0.029881761 
number of iterations: 2048 
   20800    58.324933      751          647          104 6.5608072e-13 9.0106897e-15          0.1 0.0090111095    36.021538  0.029881501 
number of iterations: 1957 
   20900    58.542544      755          651          104 6.6477519e-13 9.0103667e-15          0.1  0.009011254    36.532059   0.02988126 
number of iterations: 2006 
   21000    58.770552      763          659          104 6.7358487e-13 9.0100529e-15          0.1 0.0090114094    37.049348  0.029881001 
number of iterations: 1984 
   21100    58.989132      770          666          104 6.825113e-13 9.0097483e-15          0.1 0.0090115595    37.573492  0.029880751 
number of iterations: 2031 
   21200    59.193398      783          679          104 6.9155602e-13 9.0094527e-15          0.1 0.0090116949    38.104584  0.029880526 
number of iterations: 2012 
   21300    59.399151      794          690          104 7.007206e-13 9.0091661e-15          0.1  0.009011844    38.642717  0.029880278 
number of iterations: 1988 
   21400    59.599848      808          704          104 7.1000664e-13 9.0088883e-15          0.1 0.0090119892    39.187985  0.029880036 
number of iterations: 1995 
   21500    59.800077      815          711          104 7.1941573e-13 9.0086193e-15          0.1 0.0090121418    39.740479  0.029879782 
number of iterations: 2010 
   21600    60.023853      827          723          104 7.2894951e-13 9.0083588e-15          0.1 0.0090123043    40.300298  0.029879511 
number of iterations: 2028 
   21700    60.229681      833          729          104 7.3860964e-13 9.0081069e-15          0.1 0.0090124596    40.867538  0.029879253 
number of iterations: 2034 
   21800    60.431233      848          744          104 7.4839778e-13 9.0078633e-15          0.1 0.0090126291    41.442296   0.02987897 
number of iterations: 2047 
   21900    60.652076      857          753          104 7.5831563e-13 9.0076281e-15          0.1 0.0090127792    42.024672   0.02987872 
number of iterations: 2047 
   22000    60.902391      868          764          104 7.6836491e-13 9.007401e-15          0.1 0.0090129492    42.614769  0.029878437 
number of iterations: 2052 
   22100    61.126948      879          775          104 7.7854737e-13 9.007182e-15          0.1 0.0090131366    43.212686  0.029878125 
number of iterations: 2023 
   22200    61.341105      888          784          104 7.8886477e-13 9.006971e-15          0.1 0.0090132934     43.81853  0.029877864 
number of iterations: 2080 
   22300    61.552281      897          793          104 7.9931889e-13 9.0067678e-15          0.1 0.0090134674    44.432405  0.029877574 
number of iterations: 2035 
   22400    61.775024      907          803          104 8.0991155e-13 9.0065725e-15          0.1 0.0090136398    45.054416  0.029877287 
number of iterations: 2040 
   22500     61.98241      914          810          104 8.2064458e-13 9.0063848e-15          0.1 0.0090138179    45.684673  0.029876991 
number of iterations: 2058 
   22600    62.222266      927          823          104 8.3151985e-13 9.0062048e-15          0.1 0.0090140024    46.323285  0.029876684 
number of iterations: 2027 
   22700    62.425366      939          835          104 8.4253924e-13 9.0060322e-15          0.1 0.0090141707     46.97036  0.029876403 
number of iterations: 2042 
   22800    62.634897      947          843          104 8.5370465e-13 9.005867e-15          0.1  0.009014339    47.626012  0.029876123 
number of iterations: 2051 
   22900    62.851102      954          850          104 8.6501803e-13 9.0057091e-15          0.1 0.0090145375    48.290354  0.029875793 
number of iterations: 2023 
   23000    63.063732      969          865          104 8.7648134e-13 9.0055584e-15          0.1 0.0090147108    48.963503  0.029875504 
number of iterations: 2045 
   23100    63.287863      977          873          104 8.8809655e-13 9.0054148e-15          0.1 0.0090149003    49.645575  0.029875189 
number of iterations: 2059 
   23200    63.486539      993          889          104 8.998657e-13 9.0052783e-15          0.1 0.0090150772    50.336689  0.029874894 
number of iterations: 2062 
   23300    63.715854     1001          897          104 9.117908e-13 9.0051487e-15          0.1 0.0090152705    51.036963  0.029874572 
number of iterations: 2072 
   23400    63.930018     1010          906          104 9.2387394e-13 9.005026e-15          0.1 0.0090154918     51.74652  0.029874204 
number of iterations: 2081 
   23500    64.160322     1017          913          104 9.361172e-13 9.0049101e-15          0.1 0.0090156955     52.46548  0.029873864 
number of iterations: 2076 
   23600    64.397933     1030          926          104 9.4852271e-13 9.0048008e-15          0.1 0.0090159063    53.193971  0.029873514 
number of iterations: 2082 
   23700    64.702892     1050          946          104 9.6109262e-13 9.0046981e-15          0.1 0.0090161132    53.932118  0.029873169 
number of iterations: 2099 
   23800    64.946558     1064          960          104 9.7382911e-13 9.004602e-15          0.1 0.0090163236    54.680051  0.029872819 
number of iterations: 2103 
   23900    65.166173     1077          973          104 9.8673437e-13 9.0045123e-15          0.1 0.0090165625    55.437895  0.029872421 
number of iterations: 2102 
   24000    65.392954     1089          985          104 9.9981066e-13 9.004429e-15          0.1 0.0090167816    56.205784  0.029872056 
number of iterations: 2076 
   24100    65.602189     1108         1004          104 1.0130602e-12 9.0043519e-15          0.1 0.0090169926    56.983854  0.029871705 
number of iterations: 2074 
   24200    65.817587     1120         1016          104 1.0264854e-12 9.0042811e-15          0.1 0.0090172031    57.772235  0.029871354 
number of iterations: 2104 
   24300    66.031533     1132         1028          104 1.0400885e-12 9.0042163e-15          0.1 0.0090174337    58.571065   0.02987097 
number of iterations: 2092 
   24400    66.277087     1147         1043          104 1.0538718e-12 9.0041576e-15          0.1 0.0090176542    59.380485  0.029870603 
number of iterations: 2097 
   24500    66.501837     1156         1052          104 1.0678378e-12 9.0041049e-15          0.1 0.0090178798    60.200633  0.029870227 
number of iterations: 2109 
   24600    66.718333     1167         1063          104 1.0819888e-12 9.004058e-15          0.1 0.0090181154    61.031653  0.029869835 
number of iterations: 2149 
   24700    66.950408     1179         1075          104 1.0963274e-12 9.004017e-15          0.1 0.0090183713    61.873689  0.029869409 
number of iterations: 2082 
   24800    67.200186     1191         1087          104 1.1108561e-12 9.0039817e-15          0.1  0.009018602    62.726887  0.029869025 
number of iterations: 2154 
   24900    67.420493     1211         1107          104 1.1255772e-12 9.0039521e-15          0.1 0.0090188655    63.591394  0.029868586 
number of iterations: 2062 
   25000    67.648726     1230         1126          104 1.1404934e-12 9.0039281e-15          0.1  0.009019085    64.467358  0.029868221 
number of iterations: 2109 
   25100    67.893438     1249         1145          104 1.1556073e-12 9.0039095e-15          0.1 0.0090193253    65.354934  0.029867821 
number of iterations: 2118 
   25200    68.110969     1264         1160          104 1.1709215e-12 9.0038965e-15          0.1 0.0090195782    66.254275  0.029867399 
number of iterations: 2139 
   25300    68.327354     1281         1177          104 1.1864386e-12 9.0038888e-15          0.1 0.0090198365    67.165537  0.029866969 
number of iterations: 2105 
   25400    68.549206     1304         1200          104 1.2021614e-12 9.0038865e-15          0.1 0.0090201086    68.088877  0.029866516 
number of iterations: 2136 
   25500    68.791751     1315         1211          104 1.2180925e-12 9.0038894e-15          0.1 0.0090203828    69.024454   0.02986606 
number of iterations: 2154 
   25600    69.021351     1330         1226          104 1.2342347e-12 9.0038975e-15          0.1 0.0090206724    69.972432  0.029865577 
number of iterations: 2128 
   25700    69.277209     1341         1237          104 1.2505909e-12 9.0039107e-15          0.1 0.0090209374    70.932974  0.029865136 
number of iterations: 2136 
   25800    69.521693     1355         1251          104 1.2671638e-12 9.003929e-15          0.1 0.0090212165    71.906248  0.029864671 
number of iterations: 2125 
   25900    69.759932     1370         1266          104 1.2839563e-12 9.0039522e-15          0.1 0.0090214833    72.892422  0.029864227 
number of iterations: 2165 
   26000    69.991508     1387         1283          104 1.3009714e-12 9.0039804e-15          0.1 0.0090217636    73.891668  0.029863761 
number of iterations: 2140 
   26100    70.226105     1400         1296          104 1.3182119e-12 9.0040134e-15          0.1 0.0090220628    74.904158  0.029863262 
number of iterations: 2112 
   26200     70.44934     1420         1316          104 1.3356809e-12 9.0040513e-15          0.1 0.0090223208    75.930068  0.029862833 
number of iterations: 2145 
   26300     70.66654     1433         1329          104 1.3533814e-12 9.0040939e-15          0.1 0.0090226058    76.969577  0.029862358 
number of iterations: 2198 
   26400    70.891288     1450         1346          104 1.3713165e-12 9.0041412e-15          0.1  0.009022916    78.022865  0.029861842 
number of iterations: 2136 
   26500    71.121435     1466         1362          104 1.3894892e-12 9.0041931e-15          0.1 0.0090231862    79.090115  0.029861392 
number of iterations: 2155 
   26600     71.43343     1490         1386          104 1.4079028e-12 9.0042495e-15          0.1 0.0090234705    80.171509  0.029860918 
number of iterations: 2161 
   26700    71.670078     1508         1404          104 1.4265604e-12 9.0043105e-15          0.1 0.0090237769    81.267235  0.029860408 
number of iterations: 2133 
   26800    71.896342     1531         1427          104 1.4454652e-12 9.0043759e-15          0.1 0.0090240627    82.377486  0.029859932 
number of iterations: 2181 
   26900    72.142955     1549         1445          104 1.4646206e-12 9.0044457e-15          0.1 0.0090243726    83.502453  0.029859416 
number of iterations: 2201 
   27000    72.383904     1566         1462          104 1.4840298e-12 9.0045198e-15          0.1 0.0090247041    84.642329  0.029858864 
number of iterations: 2168 
   27100    72.624034     1591         1487          104 1.5036962e-12 9.0045982e-15          0.1 0.0090250059    85.797312  0.029858362 
number of iterations: 2160 
   27200    72.874804     1618         1514          104 1.5236232e-12 9.0046808e-15          0.1   0.00902533    86.967602  0.029857822 
number of iterations: 2154 
   27300     73.11494     1634         1530          104 1.5438143e-12 9.0047676e-15          0.1 0.0090256571    88.153402  0.029857277 
number of iterations: 2189 
   27400    73.375158     1651         1547          104 1.564273e-12 9.0048585e-15          0.1 0.0090260132    89.354917  0.029856685 
number of iterations: 2165 
   27500    73.627077     1672         1568          104 1.5850027e-12 9.0049535e-15          0.1 0.0090263536    90.572358  0.029856118 
number of iterations: 2192 
   27600    73.854767     1686         1582          104 1.6060072e-12 9.0050524e-15          0.1 0.0090267142    91.805934  0.029855517 
number of iterations: 2193 
   27700    74.087207     1704         1600          104 1.6272901e-12 9.0051554e-15          0.1 0.0090270385    93.055857  0.029854977 
number of iterations: 2140 
   27800    74.307725     1726         1622          104 1.6464866e-12 9.0052622e-15          0.1 0.0090273407    94.320532  0.029854474 
number of iterations: 2164 
   27900    74.541262     1741         1637          104 1.6668902e-12 9.0053729e-15          0.1 0.0090276822    95.600881  0.029853905 
number of iterations: 2226 
   28000    74.862997     1771         1667          104 1.6889799e-12 9.0054874e-15          0.1 0.0090280725    96.898201  0.029853255 
number of iterations: 2174 
   28100    75.106665     1792         1688          104 1.7113623e-12 9.0056057e-15          0.1 0.0090284371    98.212713  0.029852648 
number of iterations: 2198 
   28200    75.325463     1810         1706          104 1.7340413e-12 9.0057277e-15          0.1 0.0090288258    99.544649  0.029852001 
number of iterations: 2207 
   28300    75.548396     1840         1736          104 1.7570208e-12 9.0058533e-15          0.1 0.0090292277    100.89424  0.029851332 
number of iterations: 2239 
   28400    75.812276     1860         1756          104 1.7791406e-12 9.0059826e-15          0.1 0.0090295775    102.26082   0.02985075 
number of iterations: 2211 
   28500    76.038342     1880         1776          104 1.8027178e-12 9.0061154e-15          0.1 0.0090299676    103.64552    0.0298501 
number of iterations: 2200 
   28600    76.278941     1904         1800          104 1.8266074e-12 9.0062517e-15          0.1 0.0090303567    105.04858  0.029849452 
number of iterations: 2195 
   28700    76.512548     1929         1825          104 1.8508136e-12 9.0063916e-15          0.1 0.0090307296    106.47023  0.029848831 
number of iterations: 2220 
   28800    76.748191     1944         1840          104 1.8753406e-12 9.0065348e-15          0.1 0.0090311382    107.91072  0.029848151 
number of iterations: 2189 
   28900    77.002162     1965         1861          104 1.9001926e-12 9.0066815e-15          0.1 0.0090315158     109.3703  0.029847522 
number of iterations: 2229 
   29000    77.264424     1986         1882          104 1.9253739e-12 9.0068315e-15          0.1 0.0090319342    110.84923  0.029846825 
number of iterations: 2257 
   29100    77.526561     2018         1914          104 1.9508889e-12 9.0069848e-15          0.1 0.0090323781    112.34776  0.029846086 
number of iterations: 2252 
   29200    77.771837     2045         1941          104 1.9767421e-12 9.0071413e-15          0.1 0.0090327978    113.86615  0.029845387 
number of iterations: 2219 
   29300    78.074199     2072         1968          104 2.0029378e-12 9.0073011e-15          0.1  0.009033205    115.40467  0.029844709 
number of iterations: 2239 
   29400    78.317854     2098         1994          104 2.0294807e-12 9.0074641e-15          0.1 0.0090336481    116.96358  0.029843972 
number of iterations: 2262 
   29500    78.589895     2128         2024          104 2.0563754e-12 9.0076302e-15          0.1 0.0090341104    118.54315  0.029843202 
number of iterations: 2250 
   29600    78.851895     2156         2052          104 2.0836264e-12 9.0077994e-15          0.1 0.0090345647    120.14366  0.029842445 
number of iterations: 2229 
   29700    79.089771     2187         2083          104 2.1112386e-12 9.0079717e-15          0.1 0.0090350044    121.76538  0.029841713 
number of iterations: 2238 
   29800    79.326435     2211         2107          104 2.1380583e-12 9.008147e-15          0.1 0.0090353903     123.4077  0.029841071 
number of iterations: 2254 
   29900    79.561835     2230         2126          104 2.1663917e-12 9.0083253e-15          0.1  0.009035852    125.07179  0.029840302 
number of iterations: 2223 
   30000    79.802238     2271         2167          104 2.1951007e-12 9.0085065e-15          0.1 0.0090363337    126.75794    0.0298395 
number of iterations: 2266 
   30100     80.08504     2303         2199          104 2.2241901e-12 9.0086906e-15          0.1 0.0090368144    128.46644  0.029838699 
number of iterations: 2243 
   30200    80.315655     2338         2234          104 2.253665e-12 9.0088776e-15          0.1 0.0090372959    130.19758  0.029837898 
number of iterations: 2285 
   30300    80.547353     2360         2256          104 2.2835304e-12 9.0090674e-15          0.1 0.0090378051    131.95166   0.02983705 
number of iterations: 2243 
   30400    80.798423     2388         2284          104 2.3137917e-12  9.00926e-15          0.1 0.0090382984    133.72899  0.029836228 
number of iterations: 2260 
   30500    81.028541     2419         2315          104 2.3444539e-12 9.0094554e-15          0.1 0.0090387653    135.52987  0.029835451 
number of iterations: 2305 
   30600    81.264964     2450         2346          104 2.3755225e-12 9.0096535e-15          0.1 0.0090392948    137.35463  0.029834569 
number of iterations: 2269 
   30700    81.511156     2480         2376          104 2.4070028e-12 9.0098543e-15          0.1 0.0090398052    139.20357  0.029833719 
number of iterations: 2270 
   30800    81.784243     2506         2402          104 2.4389003e-12 9.0100578e-15          0.1 0.0090403253      141.077  0.029832853 
number of iterations: 2253 
   30900    82.131669     2536         2432          104 2.4712205e-12 9.0102638e-15          0.1 0.0090408447    142.97527  0.029831989 
number of iterations: 2288 
   31000    82.375559     2569         2465          104 2.5031085e-12 9.0104725e-15          0.1 0.0090413603    144.89804   0.02983113 
number of iterations: 2306 
   31100    82.625559     2603         2499          104 2.5362796e-12 9.0106837e-15          0.1 0.0090419497    146.84629  0.029830149 
number of iterations: 2263 
   31200    82.860465     2635         2531          104 2.5698902e-12 9.0108975e-15          0.1 0.0090424921    148.82037  0.029829245 
number of iterations: 2295 
   31300    83.100081     2658         2554          104 2.6039462e-12 9.0111137e-15          0.1 0.0090430538    150.82061   0.02982831 
number of iterations: 2285 
   31400    83.340072     2688         2584          104 2.6384535e-12 9.0113324e-15          0.1 0.0090436309    152.84736  0.029827349 
number of iterations: 2283 
   31500    83.594421     2725         2621          104 2.673418e-12 9.0115535e-15          0.1 0.0090441759    154.90096  0.029826442 
number of iterations: 2239 
   31600    83.831856     2768         2664          104 2.707599e-12 9.011777e-15          0.1 0.0090447091    156.98084  0.029825554 
number of iterations: 2315 
   31700    84.077667     2803         2699          104 2.7434799e-12 9.0120029e-15          0.1 0.0090452913    159.08827  0.029824584 
number of iterations: 2334 
   31800    84.368572     2836         2732          104 2.7798363e-12 9.0122312e-15          0.1  0.009045906    161.22364  0.029823561 
number of iterations: 2313 
   31900    84.618626     2877         2773          104 2.8166744e-12 9.0124617e-15          0.1 0.0090465245    163.38731  0.029822531 
number of iterations: 2308 
   32000    84.889368     2924         2820          104 2.8540007e-12 9.0126945e-15          0.1 0.0090471245    165.57965  0.029821532 
number of iterations: 2294 
   32100     85.13586     2960         2856          104 2.8908486e-12 9.0129296e-15          0.1 0.0090477232     167.8003  0.029820535 
number of iterations: 2313 
   32200    85.396025     3005         2901          104 2.9291579e-12 9.0131669e-15          0.1 0.0090483807    170.05038   0.02981944 
number of iterations: 2294 
   32300    85.655582     3047         2943          104 2.9679748e-12 9.0134064e-15          0.1 0.0090489999    172.33028  0.029818409 
number of iterations: 2303 
   32400    85.900216     3091         2987          104 3.0064828e-12 9.013648e-15          0.1 0.0090496334    174.63978  0.029817354 
number of iterations: 2334 
   32500    86.152191     3126         3022          104 3.0463244e-12 9.0138918e-15          0.1 0.0090502851    176.97988  0.029816269 
number of iterations: 2279 
   32600    86.433152     3155         3051          104 3.0852226e-12 9.0141377e-15          0.1 0.0090508618    179.34988  0.029815309 
number of iterations: 2321 
   32700    86.685749     3187         3083          104 3.1261076e-12 9.0143856e-15          0.1 0.0090515249    181.75129  0.029814205 
number of iterations: 2352 
   32800    86.930042     3228         3124          104 3.1675344e-12 9.0146357e-15          0.1 0.0090522482    184.18452  0.029813001 
number of iterations: 2342 
   32900    87.217891     3269         3165          104 3.2095102e-12 9.0148877e-15          0.1 0.0090528695       186.65  0.029811966 
number of iterations: 2354 
   33000    87.480521     3311         3207          104 3.2509891e-12 9.0151418e-15          0.1 0.0090536197    189.14735  0.029810717 
number of iterations: 2354 
   33100     87.74069     3347         3243          104 3.2940708e-12 9.0153978e-15          0.1 0.0090543275    191.67779  0.029809538 
number of iterations: 2321 
   33200     88.04986     3383         3279          104 3.3377234e-12 9.0156558e-15          0.1 0.0090550151    194.24177  0.029808394 
number of iterations: 2352 
   33300    88.323319     3417         3313          104 3.3797063e-12 9.0159157e-15          0.1 0.0090557382    196.83802  0.029807189 
number of iterations: 2351 
   33400    88.581833     3469         3365          104 3.4233873e-12 9.0161775e-15          0.1 0.0090564152    199.46783  0.029806062 
number of iterations: 2329 
   33500    88.843129     3512         3408          104 3.4660963e-12 9.0164412e-15          0.1 0.0090570746    202.13046  0.029804964 
number of iterations: 2351 
   33600    89.108344     3558         3454          104 3.5107273e-12 9.0167067e-15          0.1 0.0090577956    204.82739  0.029803764 
number of iterations: 2345 
   33700    89.383967     3602         3498          104 3.5572509e-12 9.0169741e-15          0.1 0.0090585455    207.56006  0.029802515 
number of iterations: 2375 
   33800    89.641527     3643         3539          104 3.604391e-12 9.0172433e-15          0.1 0.0090593679    210.32894  0.029801146 
number of iterations: 2375 
   33900     89.92199     3680         3576          104 3.6521558e-12 9.0175142e-15          0.1 0.0090601291    213.13453  0.029799878 
number of iterations: 2355 
   34000    90.201688     3727         3623          104 3.7005536e-12 9.017787e-15          0.1   0.00906095    215.97729  0.029798511 
number of iterations: 2355 
   34100    90.510109     3783         3679          104 3.7495927e-12 9.0180614e-15          0.1 0.0090618014    218.85773  0.029797094 
number of iterations: 2387 
   34200    90.764369     3827         3723          104 3.7992817e-12 9.0183376e-15          0.1 0.0090626333    221.77634  0.029795708 
number of iterations: 2362 
   34300    91.019488     3884         3780          104 3.8485216e-12 9.0186155e-15          0.1 0.0090634591    224.73278  0.029794333 
number of iterations: 2374 
   34400    91.284999     3940         3836          104 3.8995215e-12 9.018895e-15          0.1 0.0090642461    227.72842  0.029793023 
number of iterations: 2383 
   34500    91.573123     3997         3893          104 3.950077e-12 9.0191762e-15          0.1 0.0090650924     230.7629  0.029791614 
number of iterations: 2356 
   34600    91.849038     4050         3946          104 4.0016149e-12 9.019459e-15          0.1 0.0090659296    233.83698   0.02979022 
number of iterations: 2362 
   34700    92.168683     4099         3995          104 4.0546436e-12 9.0197435e-15          0.1 0.0090667595     236.9518  0.029788838 
number of iterations: 2370 
   34800    92.459596     4144         4040          104 4.1074516e-12 9.0200295e-15          0.1 0.0090676427     240.1072  0.029787367 
number of iterations: 2389 
   34900    92.750269     4194         4090          104 4.1605239e-12 9.0203171e-15          0.1 0.0090684677    243.30338  0.029785994 
number of iterations: 2381 
   35000    93.046086     4261         4157          104 4.2128498e-12 9.0206062e-15          0.1 0.0090693228    246.53976   0.02978457 
Loop time of 93.0461 on 32 procs for 35000 steps with 4261 atoms

Performance: 325000106.538 tau/day, 376.158 timesteps/s
92.0% CPU use with 32 MPI tasks x no OpenMP threads

MPI task timing breakdown:
Section |  min time  |  avg time  |  max time  |%varavg| %total
---------------------------------------------------------------
Pair    | 0.001764   | 0.060777   | 0.17569    |  17.0 |  0.07
Neigh   | 0.0026384  | 0.017902   | 0.044657   |   7.8 |  0.02
Comm    | 0.045555   | 0.14914    | 0.24819    |  12.7 |  0.16
Output  | 22.351     | 22.351     | 22.359     |   0.0 | 24.02
Modify  | 70.041     | 70.088     | 70.151     |   0.3 | 75.33
Other   |            | 0.3792     |            |       |  0.41

Nlocal:    133.156 ave 317 max 0 min
Histogram: 5 3 2 5 4 4 4 3 1 1
Nghost:    68.7812 ave 164 max 2 min
Histogram: 5 2 5 4 5 3 2 2 3 1
Neighs:    474 ave 1294 max 0 min
Histogram: 6 3 6 2 4 5 3 2 0 1

Total # of neighbors = 15168
Ave neighs/atom = 3.55973
Neighbor list builds = 688
Dangerous builds = 0
Total wall time: 0:01:33
