 NUFEB Simulation

     50 atoms 
     2 atom types 
     4 nutrients 

  0.0e-4   1.00e-04  xlo xhi 
  0.0e-4   1.00e-04  ylo yhi 
  0.0e-4   5.00e-05  zlo zhi 

 Atoms 

     1 1 1.72e-06  370 7.82e-05 2.91e-05 2.09e-05 1.72e-06 
     2 1 1.56e-06  370 4.06e-05 9.15e-06 3.43e-05 1.56e-06 
     3 1 1.82e-06  370 5.28e-05 2.43e-05 4.47e-05 1.82e-06 
     4 1 1.76e-06  370 3.44e-05 6.68e-05 2.16e-05 1.76e-06 
     5 1 1.42e-06  370 9.73e-05 7.98e-05 2.02e-05 1.42e-06 
     6 1 1.63e-06  370 4.58e-06 2.96e-06 4.48e-05 1.63e-06 
     7 1 1.83e-06  370 4.01e-06 4.41e-05 4.75e-05 1.83e-06 
     8 1 1.76e-06  370 4.53e-05 8.82e-05 2.42e-05 1.76e-06 
     9 1 1.58e-06  370 5.21e-05 9.14e-05 3.14e-05 1.58e-06 
     10 1 1.82e-06  370 4.45e-05 7.14e-05 1.79e-05 1.82e-06 
     11 1 1.46e-06  370 6.36e-05 3.63e-05 5.81e-06 1.46e-06 
     12 1 1.64e-06  370 7.39e-05 5.02e-05 4.34e-05 1.64e-06 
     13 1 1.38e-06  370 4.51e-05 7.88e-05 1.80e-05 1.38e-06 
     14 1 1.55e-06  370 4.67e-05 7.48e-05 2.50e-05 1.55e-06 
     15 1 1.77e-06  370 1.70e-05 4.94e-05 1.14e-05 1.77e-06 
     16 1 1.42e-06  370 8.91e-05 2.07e-05 1.02e-05 1.42e-06 
     17 1 1.91e-06  370 5.28e-05 2.20e-05 2.49e-05 1.91e-06 
     18 1 1.59e-06  370 8.40e-06 2.52e-05 1.95e-05 1.59e-06 
     19 1 1.42e-06  370 3.58e-05 5.08e-05 1.60e-05 1.42e-06 
     20 1 1.73e-06  370 9.82e-05 1.26e-05 3.18e-05 1.73e-06 
     21 1 1.39e-06  370 4.62e-05 6.51e-05 2.24e-05 1.39e-06 
     22 1 1.67e-06  370 8.20e-05 5.39e-06 4.06e-06 1.67e-06 
     23 1 1.73e-06  370 7.42e-05 6.09e-05 3.48e-05 1.73e-06 
     24 1 1.56e-06  370 9.07e-05 3.45e-05 4.48e-05 1.56e-06 
     25 1 1.82e-06  370 8.93e-05 1.96e-05 3.95e-06 1.82e-06 
     26 1 1.46e-06  370 7.78e-05 6.16e-05 4.15e-05 1.46e-06 
     27 1 1.37e-06  370 2.35e-05 3.62e-05 4.41e-05 1.37e-06 
     28 1 1.71e-06  370 2.99e-05 2.95e-05 3.32e-05 1.71e-06 
     29 1 1.86e-06  370 4.65e-05 8.46e-05 3.07e-05 1.86e-06 
     30 1 1.83e-06  370 7.87e-05 6.25e-05 2.15e-05 1.83e-06 
     31 1 1.60e-06  370 3.12e-06 5.13e-05 5.74e-06 1.60e-06 
     32 1 1.52e-06  370 8.85e-05 9.33e-05 3.59e-05 1.52e-06 
     33 1 1.60e-06  370 4.76e-05 5.05e-05 2.93e-05 1.60e-06 
     34 1 1.93e-06  370 5.11e-05 5.44e-05 3.99e-05 1.93e-06 
     35 1 1.44e-06  370 3.41e-05 3.71e-05 4.68e-06 1.44e-06 
     36 1 1.90e-06  370 6.58e-06 4.59e-05 2.96e-05 1.90e-06 
     37 1 1.66e-06  370 1.10e-05 5.69e-05 4.56e-05 1.66e-06 
     38 1 1.41e-06  370 7.19e-05 3.49e-05 6.90e-06 1.41e-06 
     39 1 1.68e-06  370 4.75e-06 7.97e-05 1.50e-05 1.68e-06 
     40 1 1.67e-06  370 5.31e-05 6.11e-06 2.97e-05 1.67e-06 
     41 1 1.49e-06  370 4.17e-05 4.55e-05 2.83e-05 1.49e-06 
     42 1 1.60e-06  370 1.85e-05 4.75e-06 3.18e-05 1.60e-06 
     43 1 1.80e-06  370 1.60e-05 2.64e-05 5.48e-06 1.80e-06 
     44 1 1.63e-06  370 7.19e-05 3.79e-05 7.66e-06 1.63e-06 
     45 1 1.62e-06  370 6.66e-05 5.76e-05 2.06e-05 1.62e-06 
     46 1 1.83e-06  370 1.52e-05 1.51e-05 6.14e-06 1.83e-06 
     47 1 1.78e-06  370 5.92e-05 5.28e-05 3.18e-05 1.78e-06 
     48 1 1.38e-06  370 5.80e-05 1.32e-05 5.03e-06 1.38e-06 
     49 1 1.78e-06  370 8.87e-06 4.07e-06 3.90e-05 1.78e-06 
     50 1 1.38e-06  370 4.08e-05 6.60e-05 4.03e-05 1.38e-06 

 Nutrients 

     1 sub g nn nn nn 1.00e-01 1.00e-01 
     2 o2 l nn nn nd 9.00e-03 9.00e-03 
     3 suc l nn nn nn 3.42e-20 3.42e-20 
     4 co2 l nn nn nd 2.99e-02 2.99e-02 

 Type Name 

     1 cyano  
     2 ecw  

 Diffusion Coeffs 

     sub 0 
     o2 2.3e-09 
     suc 5.2e-10 
     co2 1.9e-09 

 Growth Rate 

     cyano 2.047e-05 
     ecw 6.71e-05 

 Ks 

     cyano 0.00035 0.0002 0.01 0.000138 
     ecw 0 0.001 3.6 0.05 

 Yield 

     cyano 0.55 
     ecw 0.43 

 Maintenance 

     cyano 0 
     ecw 9.5e-07 

 Decay 

     cyano 0 
     ecw 0 



