ITEM: TIMESTEP
0
ITEM: NUMBER OF ATOMS
50
ITEM: BOX BOUNDS ff ff ff
0.0000000000000000e+00 1.0000000000000000e-04
0.0000000000000000e+00 1.0000000000000000e-04
0.0000000000000000e+00 5.0000000000000002e-05
ITEM: ATOMS id type diameter x y z 
35 1 1.44e-06 3.41e-05 3.71e-05 4.68e-06 
43 1 1.8e-06 1.6e-05 2.64e-05 5.48e-06 
46 1 1.83e-06 1.52e-05 1.51e-05 6.14e-06 
15 1 1.77e-06 1.7e-05 4.94e-05 1.14e-05 
18 1 1.59e-06 8.4e-06 2.52e-05 1.95e-05 
41 1 1.49e-06 4.17e-05 4.55e-05 2.83e-05 
36 1 1.9e-06 6.58e-06 4.59e-05 2.96e-05 
42 1 1.6e-06 1.85e-05 4.75e-06 3.18e-05 
28 1 1.71e-06 2.99e-05 2.95e-05 3.32e-05 
2 1 1.56e-06 4.06e-05 9.15e-06 3.43e-05 
49 1 1.78e-06 8.87e-06 4.07e-06 3.9e-05 
27 1 1.37e-06 2.35e-05 3.62e-05 4.41e-05 
6 1 1.63e-06 4.58e-06 2.96e-06 4.48e-05 
7 1 1.83e-06 4.01e-06 4.41e-05 4.75e-05 
31 1 1.6e-06 3.12e-06 5.13e-05 5.74e-06 
39 1 1.68e-06 4.75e-06 7.97e-05 1.5e-05 
19 1 1.42e-06 3.58e-05 5.08e-05 1.6e-05 
10 1 1.82e-06 4.45e-05 7.14e-05 1.79e-05 
13 1 1.38e-06 4.51e-05 7.88e-05 1.8e-05 
4 1 1.76e-06 3.44e-05 6.68e-05 2.16e-05 
21 1 1.39e-06 4.62e-05 6.51e-05 2.24e-05 
8 1 1.76e-06 4.53e-05 8.82e-05 2.42e-05 
14 1 1.55e-06 4.67e-05 7.48e-05 2.5e-05 
33 1 1.6e-06 4.76e-05 5.05e-05 2.93e-05 
29 1 1.86e-06 4.65e-05 8.46e-05 3.07e-05 
50 1 1.38e-06 4.08e-05 6.6e-05 4.03e-05 
37 1 1.66e-06 1.1e-05 5.69e-05 4.56e-05 
25 1 1.82e-06 8.93e-05 1.96e-05 3.95e-06 
22 1 1.67e-06 8.2e-05 5.39e-06 4.06e-06 
48 1 1.38e-06 5.8e-05 1.32e-05 5.03e-06 
11 1 1.46e-06 6.36e-05 3.63e-05 5.81e-06 
38 1 1.41e-06 7.19e-05 3.49e-05 6.9e-06 
44 1 1.63e-06 7.19e-05 3.79e-05 7.66e-06 
16 1 1.42e-06 8.91e-05 2.07e-05 1.02e-05 
1 1 1.72e-06 7.82e-05 2.91e-05 2.09e-05 
17 1 1.91e-06 5.28e-05 2.2e-05 2.49e-05 
40 1 1.67e-06 5.31e-05 6.11e-06 2.97e-05 
20 1 1.73e-06 9.82e-05 1.26e-05 3.18e-05 
3 1 1.82e-06 5.28e-05 2.43e-05 4.47e-05 
24 1 1.56e-06 9.07e-05 3.45e-05 4.48e-05 
5 1 1.42e-06 9.73e-05 7.98e-05 2.02e-05 
45 1 1.62e-06 6.66e-05 5.76e-05 2.06e-05 
30 1 1.83e-06 7.87e-05 6.25e-05 2.15e-05 
9 1 1.58e-06 5.21e-05 9.14e-05 3.14e-05 
47 1 1.78e-06 5.92e-05 5.28e-05 3.18e-05 
23 1 1.73e-06 7.42e-05 6.09e-05 3.48e-05 
32 1 1.52e-06 8.85e-05 9.33e-05 3.59e-05 
34 1 1.93e-06 5.11e-05 5.44e-05 3.99e-05 
26 1 1.46e-06 7.78e-05 6.16e-05 4.15e-05 
12 1 1.64e-06 7.39e-05 5.02e-05 4.34e-05 
ITEM: TIMESTEP
100
ITEM: NUMBER OF ATOMS
50
ITEM: BOX BOUNDS ff ff ff
0.0000000000000000e+00 1.0000000000000000e-04
0.0000000000000000e+00 1.0000000000000000e-04
0.0000000000000000e+00 5.0000000000000002e-05
ITEM: ATOMS id type diameter x y z 
35 1 1.44833e-06 3.41e-05 3.71e-05 4.68e-06 
43 1 1.81042e-06 1.6e-05 2.64e-05 5.48e-06 
46 1 1.84059e-06 1.52e-05 1.51e-05 6.14e-06 
15 1 1.78024e-06 1.7e-05 4.94e-05 1.14e-05 
18 1 1.5992e-06 8.4e-06 2.52e-05 1.95e-05 
41 1 1.49862e-06 4.17e-05 4.55e-05 2.83e-05 
36 1 1.911e-06 6.58e-06 4.59e-05 2.96e-05 
42 1 1.60926e-06 1.85e-05 4.75e-06 3.18e-05 
28 1 1.7199e-06 2.99e-05 2.95e-05 3.32e-05 
2 1 1.56903e-06 4.06e-05 9.15e-06 3.43e-05 
49 1 1.7903e-06 8.87e-06 4.07e-06 3.9e-05 
27 1 1.37793e-06 2.35e-05 3.62e-05 4.41e-05 
6 1 1.63943e-06 4.58e-06 2.96e-06 4.48e-05 
7 1 1.84059e-06 4.01e-06 4.41e-05 4.75e-05 
31 1 1.60926e-06 3.12e-06 5.13e-05 5.74e-06 
39 1 1.68972e-06 4.75e-06 7.97e-05 1.5e-05 
19 1 1.42822e-06 3.58e-05 5.08e-05 1.6e-05 
10 1 1.83053e-06 4.45e-05 7.14e-05 1.79e-05 
13 1 1.38799e-06 4.51e-05 7.88e-05 1.8e-05 
4 1 1.77019e-06 3.44e-05 6.68e-05 2.16e-05 
21 1 1.39804e-06 4.62e-05 6.51e-05 2.24e-05 
8 1 1.77019e-06 4.53e-05 8.82e-05 2.42e-05 
14 1 1.55897e-06 4.67e-05 7.48e-05 2.5e-05 
33 1 1.60926e-06 4.76e-05 5.05e-05 2.93e-05 
29 1 1.87076e-06 4.65e-05 8.46e-05 3.07e-05 
50 1 1.38799e-06 4.08e-05 6.6e-05 4.03e-05 
37 1 1.66961e-06 1.1e-05 5.69e-05 4.56e-05 
25 1 1.83053e-06 8.93e-05 1.96e-05 3.95e-06 
22 1 1.67966e-06 8.2e-05 5.39e-06 4.06e-06 
48 1 1.38799e-06 5.8e-05 1.32e-05 5.03e-06 
11 1 1.46845e-06 6.36e-05 3.63e-05 5.81e-06 
38 1 1.41816e-06 7.19e-05 3.49e-05 6.9e-06 
44 1 1.63943e-06 7.19e-05 3.79e-05 7.66e-06 
16 1 1.42822e-06 8.91e-05 2.07e-05 1.02e-05 
1 1 1.72995e-06 7.82e-05 2.91e-05 2.09e-05 
17 1 1.92105e-06 5.28e-05 2.2e-05 2.49e-05 
40 1 1.67966e-06 5.31e-05 6.11e-06 2.97e-05 
20 1 1.74001e-06 9.82e-05 1.26e-05 3.18e-05 
3 1 1.83053e-06 5.28e-05 2.43e-05 4.47e-05 
24 1 1.56903e-06 9.07e-05 3.45e-05 4.48e-05 
5 1 1.42822e-06 9.73e-05 7.98e-05 2.02e-05 
45 1 1.62938e-06 6.66e-05 5.76e-05 2.06e-05 
30 1 1.84059e-06 7.87e-05 6.25e-05 2.15e-05 
9 1 1.58914e-06 5.21e-05 9.14e-05 3.14e-05 
47 1 1.7903e-06 5.92e-05 5.28e-05 3.18e-05 
23 1 1.74001e-06 7.42e-05 6.09e-05 3.48e-05 
32 1 1.5288e-06 8.85e-05 9.33e-05 3.59e-05 
34 1 1.94117e-06 5.11e-05 5.44e-05 3.99e-05 
26 1 1.46845e-06 7.78e-05 6.16e-05 4.15e-05 
12 1 1.64949e-06 7.39e-05 5.02e-05 4.34e-05 
ITEM: TIMESTEP
200
ITEM: NUMBER OF ATOMS
50
ITEM: BOX BOUNDS ff ff ff
0.0000000000000000e+00 1.0000000000000000e-04
0.0000000000000000e+00 1.0000000000000000e-04
0.0000000000000000e+00 5.0000000000000002e-05
ITEM: ATOMS id type diameter x y z 
35 1 1.45672e-06 3.41e-05 3.71e-05 4.68e-06 
43 1 1.82089e-06 1.6e-05 2.64e-05 5.48e-06 
46 1 1.85124e-06 1.52e-05 1.51e-05 6.14e-06 
15 1 1.79055e-06 1.7e-05 4.94e-05 1.14e-05 
18 1 1.60846e-06 8.4e-06 2.52e-05 1.95e-05 
41 1 1.5073e-06 4.17e-05 4.55e-05 2.83e-05 
36 1 1.92205e-06 6.58e-06 4.59e-05 2.96e-05 
42 1 1.61857e-06 1.85e-05 4.75e-06 3.18e-05 
28 1 1.72985e-06 2.99e-05 2.95e-05 3.32e-05 
2 1 1.57811e-06 4.06e-05 9.15e-06 3.43e-05 
49 1 1.80066e-06 8.87e-06 4.07e-06 3.9e-05 
27 1 1.3859e-06 2.35e-05 3.62e-05 4.41e-05 
6 1 1.64892e-06 4.58e-06 2.96e-06 4.48e-05 
7 1 1.85124e-06 4.01e-06 4.41e-05 4.75e-05 
31 1 1.61857e-06 3.12e-06 5.13e-05 5.74e-06 
39 1 1.6995e-06 4.75e-06 7.97e-05 1.5e-05 
19 1 1.43648e-06 3.58e-05 5.08e-05 1.6e-05 
10 1 1.84113e-06 4.45e-05 7.14e-05 1.79e-05 
13 1 1.39602e-06 4.51e-05 7.88e-05 1.8e-05 
4 1 1.78043e-06 3.44e-05 6.68e-05 2.16e-05 
21 1 1.40613e-06 4.62e-05 6.51e-05 2.24e-05 
8 1 1.78043e-06 4.53e-05 8.82e-05 2.42e-05 
14 1 1.56799e-06 4.67e-05 7.48e-05 2.5e-05 
33 1 1.61857e-06 4.76e-05 5.05e-05 2.93e-05 
29 1 1.88159e-06 4.65e-05 8.46e-05 3.07e-05 
50 1 1.39602e-06 4.08e-05 6.6e-05 4.03e-05 
37 1 1.67927e-06 1.1e-05 5.69e-05 4.56e-05 
25 1 1.84113e-06 8.93e-05 1.96e-05 3.95e-06 
22 1 1.68939e-06 8.2e-05 5.39e-06 4.06e-06 
48 1 1.39602e-06 5.8e-05 1.32e-05 5.03e-06 
11 1 1.47695e-06 6.36e-05 3.63e-05 5.81e-06 
38 1 1.42637e-06 7.19e-05 3.49e-05 6.9e-06 
44 1 1.64892e-06 7.19e-05 3.79e-05 7.66e-06 
16 1 1.43648e-06 8.91e-05 2.07e-05 1.02e-05 
1 1 1.73997e-06 7.82e-05 2.91e-05 2.09e-05 
17 1 1.93217e-06 5.28e-05 2.2e-05 2.49e-05 
40 1 1.68939e-06 5.31e-05 6.11e-06 2.97e-05 
20 1 1.75008e-06 9.82e-05 1.26e-05 3.18e-05 
3 1 1.84113e-06 5.28e-05 2.43e-05 4.47e-05 
24 1 1.57811e-06 9.07e-05 3.45e-05 4.48e-05 
5 1 1.43648e-06 9.73e-05 7.98e-05 2.02e-05 
45 1 1.6388e-06 6.66e-05 5.76e-05 2.06e-05 
30 1 1.85124e-06 7.87e-05 6.25e-05 2.15e-05 
9 1 1.59834e-06 5.21e-05 9.14e-05 3.14e-05 
47 1 1.80066e-06 5.92e-05 5.28e-05 3.18e-05 
23 1 1.75008e-06 7.42e-05 6.09e-05 3.48e-05 
32 1 1.53764e-06 8.85e-05 9.33e-05 3.59e-05 
34 1 1.9524e-06 5.11e-05 5.44e-05 3.99e-05 
26 1 1.47695e-06 7.78e-05 6.16e-05 4.15e-05 
12 1 1.65904e-06 7.39e-05 5.02e-05 4.34e-05 
ITEM: TIMESTEP
300
ITEM: NUMBER OF ATOMS
50
ITEM: BOX BOUNDS ff ff ff
0.0000000000000000e+00 1.0000000000000000e-04
0.0000000000000000e+00 1.0000000000000000e-04
0.0000000000000000e+00 5.0000000000000002e-05
ITEM: ATOMS id type diameter x y z 
35 1 1.46515e-06 3.41e-05 3.71e-05 4.68e-06 
43 1 1.83143e-06 1.6e-05 2.64e-05 5.48e-06 
46 1 1.86196e-06 1.52e-05 1.51e-05 6.14e-06 
15 1 1.80091e-06 1.7e-05 4.94e-05 1.14e-05 
18 1 1.61776e-06 8.4e-06 2.52e-05 1.95e-05 
41 1 1.51602e-06 4.17e-05 4.55e-05 2.83e-05 
36 1 1.93318e-06 6.58e-06 4.59e-05 2.96e-05 
42 1 1.62794e-06 1.85e-05 4.75e-06 3.18e-05 
28 1 1.73986e-06 2.99e-05 2.95e-05 3.32e-05 
2 1 1.58724e-06 4.06e-05 9.15e-06 3.43e-05 
49 1 1.81108e-06 8.87e-06 4.07e-06 3.9e-05 
27 1 1.39392e-06 2.35e-05 3.62e-05 4.41e-05 
6 1 1.65846e-06 4.58e-06 2.96e-06 4.48e-05 
7 1 1.86196e-06 4.01e-06 4.41e-05 4.75e-05 
31 1 1.62794e-06 3.12e-06 5.13e-05 5.74e-06 
39 1 1.70934e-06 4.75e-06 7.97e-05 1.5e-05 
19 1 1.4448e-06 3.58e-05 5.08e-05 1.6e-05 
10 1 1.85178e-06 4.45e-05 7.14e-05 1.79e-05 
13 1 1.4041e-06 4.51e-05 7.88e-05 1.8e-05 
4 1 1.79073e-06 3.44e-05 6.68e-05 2.16e-05 
21 1 1.41427e-06 4.62e-05 6.51e-05 2.24e-05 
8 1 1.79073e-06 4.53e-05 8.82e-05 2.42e-05 
14 1 1.57707e-06 4.67e-05 7.48e-05 2.5e-05 
33 1 1.62794e-06 4.76e-05 5.05e-05 2.93e-05 
29 1 1.89248e-06 4.65e-05 8.46e-05 3.07e-05 
50 1 1.4041e-06 4.08e-05 6.6e-05 4.03e-05 
37 1 1.68899e-06 1.1e-05 5.69e-05 4.56e-05 
25 1 1.85178e-06 8.93e-05 1.96e-05 3.95e-06 
22 1 1.69916e-06 8.2e-05 5.39e-06 4.06e-06 
48 1 1.4041e-06 5.8e-05 1.32e-05 5.03e-06 
11 1 1.48549e-06 6.36e-05 3.63e-05 5.81e-06 
38 1 1.43462e-06 7.19e-05 3.49e-05 6.9e-06 
44 1 1.65846e-06 7.19e-05 3.79e-05 7.66e-06 
16 1 1.4448e-06 8.91e-05 2.07e-05 1.02e-05 
1 1 1.75003e-06 7.82e-05 2.91e-05 2.09e-05 
17 1 1.94335e-06 5.28e-05 2.2e-05 2.49e-05 
40 1 1.69916e-06 5.31e-05 6.11e-06 2.97e-05 
20 1 1.76021e-06 9.82e-05 1.26e-05 3.18e-05 
3 1 1.85178e-06 5.28e-05 2.43e-05 4.47e-05 
24 1 1.58724e-06 9.07e-05 3.45e-05 4.48e-05 
5 1 1.4448e-06 9.73e-05 7.98e-05 2.02e-05 
45 1 1.64829e-06 6.66e-05 5.76e-05 2.06e-05 
30 1 1.86196e-06 7.87e-05 6.25e-05 2.15e-05 
9 1 1.60759e-06 5.21e-05 9.14e-05 3.14e-05 
47 1 1.81108e-06 5.92e-05 5.28e-05 3.18e-05 
23 1 1.76021e-06 7.42e-05 6.09e-05 3.48e-05 
32 1 1.54654e-06 8.85e-05 9.33e-05 3.59e-05 
34 1 1.9637e-06 5.11e-05 5.44e-05 3.99e-05 
26 1 1.48549e-06 7.78e-05 6.16e-05 4.15e-05 
12 1 1.66864e-06 7.39e-05 5.02e-05 4.34e-05 
ITEM: TIMESTEP
400
ITEM: NUMBER OF ATOMS
51
ITEM: BOX BOUNDS ff ff ff
0.0000000000000000e+00 1.0000000000000000e-04
0.0000000000000000e+00 1.0000000000000000e-04
0.0000000000000000e+00 5.0000000000000002e-05
ITEM: ATOMS id type diameter x y z 
35 1 1.47362e-06 3.41e-05 3.71e-05 4.68e-06 
43 1 1.84203e-06 1.6e-05 2.64e-05 5.48e-06 
46 1 1.87273e-06 1.52e-05 1.51e-05 6.14e-06 
15 1 1.81133e-06 1.7e-05 4.94e-05 1.14e-05 
18 1 1.62713e-06 8.4e-06 2.52e-05 1.95e-05 
41 1 1.52479e-06 4.17e-05 4.55e-05 2.83e-05 
36 1 1.94437e-06 6.58e-06 4.59e-05 2.96e-05 
42 1 1.63736e-06 1.85e-05 4.75e-06 3.18e-05 
28 1 1.74993e-06 2.99e-05 2.95e-05 3.32e-05 
2 1 1.59643e-06 4.06e-05 9.15e-06 3.43e-05 
49 1 1.82156e-06 8.87e-06 4.07e-06 3.9e-05 
27 1 1.40199e-06 2.35e-05 3.62e-05 4.41e-05 
6 1 1.66806e-06 4.58e-06 2.96e-06 4.48e-05 
7 1 1.87273e-06 4.01e-06 4.41e-05 4.75e-05 
31 1 1.63736e-06 3.12e-06 5.13e-05 5.74e-06 
39 1 1.71923e-06 4.75e-06 7.97e-05 1.5e-05 
19 1 1.45316e-06 3.58e-05 5.08e-05 1.6e-05 
10 1 1.8625e-06 4.45e-05 7.14e-05 1.79e-05 
13 1 1.41222e-06 4.51e-05 7.88e-05 1.8e-05 
4 1 1.8011e-06 3.44e-05 6.68e-05 2.16e-05 
21 1 1.42246e-06 4.62e-05 6.51e-05 2.24e-05 
8 1 1.8011e-06 4.53e-05 8.82e-05 2.42e-05 
14 1 1.58619e-06 4.67e-05 7.48e-05 2.5e-05 
33 1 1.63736e-06 4.76e-05 5.05e-05 2.93e-05 
29 1 1.90343e-06 4.65e-05 8.46e-05 3.07e-05 
50 1 1.41222e-06 4.08e-05 6.6e-05 4.03e-05 
37 1 1.69876e-06 1.1e-05 5.69e-05 4.56e-05 
25 1 1.8625e-06 8.93e-05 1.96e-05 3.95e-06 
22 1 1.709e-06 8.2e-05 5.39e-06 4.06e-06 
48 1 1.41222e-06 5.8e-05 1.32e-05 5.03e-06 
11 1 1.49409e-06 6.36e-05 3.63e-05 5.81e-06 
38 1 1.44292e-06 7.19e-05 3.49e-05 6.9e-06 
44 1 1.66806e-06 7.19e-05 3.79e-05 7.66e-06 
16 1 1.45316e-06 8.91e-05 2.07e-05 1.02e-05 
1 1 1.76016e-06 7.82e-05 2.91e-05 2.09e-05 
17 1 1.9546e-06 5.28e-05 2.2e-05 2.49e-05 
40 1 1.709e-06 5.31e-05 6.11e-06 2.97e-05 
20 1 1.7704e-06 9.82e-05 1.26e-05 3.18e-05 
3 1 1.8625e-06 5.28e-05 2.43e-05 4.47e-05 
24 1 1.59643e-06 9.07e-05 3.45e-05 4.48e-05 
5 1 1.45316e-06 9.73e-05 7.98e-05 2.02e-05 
45 1 1.65783e-06 6.66e-05 5.76e-05 2.06e-05 
30 1 1.87273e-06 7.87e-05 6.25e-05 2.15e-05 
9 1 1.61689e-06 5.21e-05 9.14e-05 3.14e-05 
47 1 1.82156e-06 5.92e-05 5.28e-05 3.18e-05 
23 1 1.7704e-06 7.42e-05 6.09e-05 3.48e-05 
32 1 1.55549e-06 8.85e-05 9.33e-05 3.59e-05 
34 1 1.60226e-06 5.12263e-05 5.43867e-05 3.91096e-05 
26 1 1.49409e-06 7.78e-05 6.16e-05 4.15e-05 
12 1 1.67829e-06 7.39e-05 5.02e-05 4.34e-05 
51 1 1.53135e-06 5.09793e-05 5.44127e-05 4.06554e-05 
ITEM: TIMESTEP
500
ITEM: NUMBER OF ATOMS
51
ITEM: BOX BOUNDS ff ff ff
0.0000000000000000e+00 1.0000000000000000e-04
0.0000000000000000e+00 1.0000000000000000e-04
0.0000000000000000e+00 5.0000000000000002e-05
ITEM: ATOMS id type diameter x y z 
35 1 1.48215e-06 3.41e-05 3.71e-05 4.68e-06 
43 1 1.85269e-06 1.6e-05 2.64e-05 5.48e-06 
46 1 1.88357e-06 1.52e-05 1.51e-05 6.14e-06 
15 1 1.82181e-06 1.7e-05 4.94e-05 1.14e-05 
18 1 1.63654e-06 8.4e-06 2.52e-05 1.95e-05 
41 1 1.53362e-06 4.17e-05 4.55e-05 2.83e-05 
36 1 1.95562e-06 6.58e-06 4.59e-05 2.96e-05 
42 1 1.64684e-06 1.85e-05 4.75e-06 3.18e-05 
28 1 1.76006e-06 2.99e-05 2.95e-05 3.32e-05 
2 1 1.60567e-06 4.06e-05 9.15e-06 3.43e-05 
49 1 1.83211e-06 8.87e-06 4.07e-06 3.9e-05 
27 1 1.4101e-06 2.35e-05 3.62e-05 4.41e-05 
6 1 1.67771e-06 4.58e-06 2.96e-06 4.48e-05 
7 1 1.88357e-06 4.01e-06 4.41e-05 4.75e-05 
31 1 1.64684e-06 3.12e-06 5.13e-05 5.74e-06 
39 1 1.72918e-06 4.75e-06 7.97e-05 1.5e-05 
19 1 1.46157e-06 3.58e-05 5.08e-05 1.6e-05 
10 1 1.87328e-06 4.45e-05 7.14e-05 1.79e-05 
13 1 1.4204e-06 4.51e-05 7.88e-05 1.8e-05 
4 1 1.81152e-06 3.44e-05 6.68e-05 2.16e-05 
21 1 1.43069e-06 4.62e-05 6.51e-05 2.24e-05 
8 1 1.81152e-06 4.53e-05 8.82e-05 2.42e-05 
14 1 1.59537e-06 4.67e-05 7.48e-05 2.5e-05 
33 1 1.64684e-06 4.76e-05 5.05e-05 2.93e-05 
29 1 1.91445e-06 4.65e-05 8.46e-05 3.07e-05 
50 1 1.4204e-06 4.08e-05 6.6e-05 4.03e-05 
37 1 1.70859e-06 1.1e-05 5.69e-05 4.56e-05 
25 1 1.87328e-06 8.93e-05 1.96e-05 3.95e-06 
22 1 1.71889e-06 8.2e-05 5.39e-06 4.06e-06 
48 1 1.4204e-06 5.8e-05 1.32e-05 5.03e-06 
11 1 1.50274e-06 6.36e-05 3.63e-05 5.81e-06 
38 1 1.45127e-06 7.19e-05 3.49e-05 6.9e-06 
44 1 1.67771e-06 7.19e-05 3.79e-05 7.66e-06 
16 1 1.46157e-06 8.91e-05 2.07e-05 1.02e-05 
1 1 1.77035e-06 7.82e-05 2.91e-05 2.09e-05 
17 1 1.96591e-06 5.28e-05 2.2e-05 2.49e-05 
40 1 1.71889e-06 5.31e-05 6.11e-06 2.97e-05 
20 1 1.78064e-06 9.82e-05 1.26e-05 3.18e-05 
3 1 1.87328e-06 5.28e-05 2.43e-05 4.47e-05 
24 1 1.60567e-06 9.07e-05 3.45e-05 4.48e-05 
5 1 1.46157e-06 9.73e-05 7.98e-05 2.02e-05 
45 1 1.66742e-06 6.66e-05 5.76e-05 2.06e-05 
30 1 1.88357e-06 7.87e-05 6.25e-05 2.15e-05 
9 1 1.62625e-06 5.21e-05 9.14e-05 3.14e-05 
47 1 1.83211e-06 5.92e-05 5.28e-05 3.18e-05 
23 1 1.78064e-06 7.42e-05 6.09e-05 3.48e-05 
32 1 1.56449e-06 8.85e-05 9.33e-05 3.59e-05 
34 1 1.61154e-06 5.12263e-05 5.43867e-05 3.91096e-05 
26 1 1.50274e-06 7.78e-05 6.16e-05 4.15e-05 
12 1 1.68801e-06 7.39e-05 5.02e-05 4.34e-05 
51 1 1.54022e-06 5.09793e-05 5.44127e-05 4.06554e-05 
ITEM: TIMESTEP
600
ITEM: NUMBER OF ATOMS
52
ITEM: BOX BOUNDS ff ff ff
0.0000000000000000e+00 1.0000000000000000e-04
0.0000000000000000e+00 1.0000000000000000e-04
0.0000000000000000e+00 5.0000000000000002e-05
ITEM: ATOMS id type diameter x y z 
35 1 1.49073e-06 3.41e-05 3.71e-05 4.68e-06 
43 1 1.86341e-06 1.6e-05 2.64e-05 5.48e-06 
46 1 1.89447e-06 1.52e-05 1.51e-05 6.14e-06 
15 1 1.83236e-06 1.7e-05 4.94e-05 1.14e-05 
18 1 1.64601e-06 8.4e-06 2.52e-05 1.95e-05 
41 1 1.54249e-06 4.17e-05 4.55e-05 2.83e-05 
36 1 1.96694e-06 6.58e-06 4.59e-05 2.96e-05 
42 1 1.65637e-06 1.85e-05 4.75e-06 3.18e-05 
28 1 1.77024e-06 2.99e-05 2.95e-05 3.32e-05 
2 1 1.61496e-06 4.06e-05 9.15e-06 3.43e-05 
49 1 1.84271e-06 8.87e-06 4.07e-06 3.9e-05 
27 1 1.41826e-06 2.35e-05 3.62e-05 4.41e-05 
6 1 1.68742e-06 4.58e-06 2.96e-06 4.48e-05 
7 1 1.89447e-06 4.01e-06 4.41e-05 4.75e-05 
31 1 1.65637e-06 3.12e-06 5.13e-05 5.74e-06 
39 1 1.73919e-06 4.75e-06 7.97e-05 1.5e-05 
19 1 1.47003e-06 3.58e-05 5.08e-05 1.6e-05 
10 1 1.88412e-06 4.45e-05 7.14e-05 1.79e-05 
13 1 1.42862e-06 4.51e-05 7.88e-05 1.8e-05 
4 1 1.822e-06 3.44e-05 6.68e-05 2.16e-05 
21 1 1.43897e-06 4.62e-05 6.51e-05 2.24e-05 
8 1 1.822e-06 4.53e-05 8.82e-05 2.42e-05 
14 1 1.60461e-06 4.67e-05 7.48e-05 2.5e-05 
33 1 1.65637e-06 4.76e-05 5.05e-05 2.93e-05 
29 1 1.92553e-06 4.65e-05 8.46e-05 3.07e-05 
50 1 1.42862e-06 4.08e-05 6.6e-05 4.03e-05 
37 1 1.71848e-06 1.1e-05 5.69e-05 4.56e-05 
25 1 1.88412e-06 8.93e-05 1.96e-05 3.95e-06 
22 1 1.72883e-06 8.2e-05 5.39e-06 4.06e-06 
48 1 1.42862e-06 5.8e-05 1.32e-05 5.03e-06 
11 1 1.51143e-06 6.36e-05 3.63e-05 5.81e-06 
38 1 1.45967e-06 7.19e-05 3.49e-05 6.9e-06 
44 1 1.68742e-06 7.19e-05 3.79e-05 7.66e-06 
16 1 1.47003e-06 8.91e-05 2.07e-05 1.02e-05 
1 1 1.78059e-06 7.82e-05 2.91e-05 2.09e-05 
17 1 1.60407e-06 5.29264e-05 2.19867e-05 2.41087e-05 
40 1 1.72883e-06 5.31e-05 6.11e-06 2.97e-05 
20 1 1.79095e-06 9.82e-05 1.26e-05 3.18e-05 
3 1 1.88412e-06 5.28e-05 2.43e-05 4.47e-05 
24 1 1.61496e-06 9.07e-05 3.45e-05 4.48e-05 
52 1 1.53308e-06 5.26792e-05 2.20127e-05 2.56562e-05 
5 1 1.47003e-06 9.73e-05 7.98e-05 2.02e-05 
45 1 1.67707e-06 6.66e-05 5.76e-05 2.06e-05 
30 1 1.89447e-06 7.87e-05 6.25e-05 2.15e-05 
9 1 1.63566e-06 5.21e-05 9.14e-05 3.14e-05 
47 1 1.84271e-06 5.92e-05 5.28e-05 3.18e-05 
23 1 1.79095e-06 7.42e-05 6.09e-05 3.48e-05 
32 1 1.57355e-06 8.85e-05 9.33e-05 3.59e-05 
34 1 1.62086e-06 5.12263e-05 5.43867e-05 3.91096e-05 
26 1 1.51143e-06 7.78e-05 6.16e-05 4.15e-05 
12 1 1.69778e-06 7.39e-05 5.02e-05 4.34e-05 
51 1 1.54913e-06 5.09793e-05 5.44127e-05 4.06554e-05 
ITEM: TIMESTEP
700
ITEM: NUMBER OF ATOMS
53
ITEM: BOX BOUNDS ff ff ff
0.0000000000000000e+00 1.0000000000000000e-04
0.0000000000000000e+00 1.0000000000000000e-04
0.0000000000000000e+00 5.0000000000000002e-05
ITEM: ATOMS id type diameter x y z 
35 1 1.49936e-06 3.41e-05 3.71e-05 4.68e-06 
43 1 1.8742e-06 1.6e-05 2.64e-05 5.48e-06 
46 1 1.90543e-06 1.52e-05 1.51e-05 6.14e-06 
15 1 1.84296e-06 1.7e-05 4.94e-05 1.14e-05 
18 1 1.65554e-06 8.4e-06 2.52e-05 1.95e-05 
41 1 1.55142e-06 4.17e-05 4.55e-05 2.83e-05 
36 1 1.6049e-06 6.70646e-06 4.58867e-05 2.88083e-05 
42 1 1.66595e-06 1.85e-05 4.75e-06 3.18e-05 
28 1 1.78049e-06 2.99e-05 2.95e-05 3.32e-05 
2 1 1.6243e-06 4.06e-05 9.15e-06 3.43e-05 
49 1 1.85337e-06 8.87e-06 4.07e-06 3.9e-05 
27 1 1.42647e-06 2.35e-05 3.62e-05 4.41e-05 
6 1 1.69719e-06 4.58e-06 2.96e-06 4.48e-05 
7 1 1.90543e-06 4.01e-06 4.41e-05 4.75e-05 
53 1 1.53388e-06 6.45913e-06 4.59127e-05 3.03566e-05 
31 1 1.66595e-06 3.12e-06 5.13e-05 5.74e-06 
39 1 1.74925e-06 4.75e-06 7.97e-05 1.5e-05 
19 1 1.47853e-06 3.58e-05 5.08e-05 1.6e-05 
10 1 1.89502e-06 4.45e-05 7.14e-05 1.79e-05 
13 1 1.43688e-06 4.51e-05 7.88e-05 1.8e-05 
4 1 1.83255e-06 3.44e-05 6.68e-05 2.16e-05 
21 1 1.4473e-06 4.62e-05 6.51e-05 2.24e-05 
8 1 1.83255e-06 4.53e-05 8.82e-05 2.42e-05 
14 1 1.61389e-06 4.67e-05 7.48e-05 2.5e-05 
33 1 1.66595e-06 4.76e-05 5.05e-05 2.93e-05 
29 1 1.93667e-06 4.65e-05 8.46e-05 3.07e-05 
50 1 1.43688e-06 4.08e-05 6.6e-05 4.03e-05 
37 1 1.72843e-06 1.1e-05 5.69e-05 4.56e-05 
25 1 1.89502e-06 8.93e-05 1.96e-05 3.95e-06 
22 1 1.73884e-06 8.2e-05 5.39e-06 4.06e-06 
48 1 1.43688e-06 5.8e-05 1.32e-05 5.03e-06 
11 1 1.52018e-06 6.36e-05 3.63e-05 5.81e-06 
38 1 1.46812e-06 7.19e-05 3.49e-05 6.9e-06 
44 1 1.69719e-06 7.19e-05 3.79e-05 7.66e-06 
16 1 1.47853e-06 8.91e-05 2.07e-05 1.02e-05 
1 1 1.7909e-06 7.82e-05 2.91e-05 2.09e-05 
17 1 1.61335e-06 5.29264e-05 2.19867e-05 2.41087e-05 
40 1 1.73884e-06 5.31e-05 6.11e-06 2.97e-05 
20 1 1.80131e-06 9.82e-05 1.26e-05 3.18e-05 
3 1 1.89502e-06 5.28e-05 2.43e-05 4.47e-05 
24 1 1.6243e-06 9.07e-05 3.45e-05 4.48e-05 
52 1 1.54195e-06 5.26792e-05 2.20127e-05 2.56562e-05 
5 1 1.47853e-06 9.73e-05 7.98e-05 2.02e-05 
45 1 1.68678e-06 6.66e-05 5.76e-05 2.06e-05 
30 1 1.90543e-06 7.87e-05 6.25e-05 2.15e-05 
9 1 1.64513e-06 5.21e-05 9.14e-05 3.14e-05 
47 1 1.85337e-06 5.92e-05 5.28e-05 3.18e-05 
23 1 1.80131e-06 7.42e-05 6.09e-05 3.48e-05 
32 1 1.58265e-06 8.85e-05 9.33e-05 3.59e-05 
34 1 1.63024e-06 5.12263e-05 5.43867e-05 3.91096e-05 
26 1 1.52018e-06 7.78e-05 6.16e-05 4.15e-05 
12 1 1.7076e-06 7.39e-05 5.02e-05 4.34e-05 
51 1 1.5581e-06 5.09793e-05 5.44127e-05 4.06554e-05 
ITEM: TIMESTEP
800
ITEM: NUMBER OF ATOMS
53
ITEM: BOX BOUNDS ff ff ff
0.0000000000000000e+00 1.0000000000000000e-04
0.0000000000000000e+00 1.0000000000000000e-04
0.0000000000000000e+00 5.0000000000000002e-05
ITEM: ATOMS id type diameter x y z 
35 1 1.50803e-06 3.41e-05 3.71e-05 4.68e-06 
43 1 1.88504e-06 1.6e-05 2.64e-05 5.48e-06 
46 1 1.91646e-06 1.52e-05 1.51e-05 6.14e-06 
15 1 1.85363e-06 1.7e-05 4.94e-05 1.14e-05 
18 1 1.66512e-06 8.4e-06 2.52e-05 1.95e-05 
41 1 1.5604e-06 4.17e-05 4.55e-05 2.83e-05 
36 1 1.61419e-06 6.70646e-06 4.58867e-05 2.88083e-05 
42 1 1.67559e-06 1.85e-05 4.75e-06 3.18e-05 
28 1 1.79079e-06 2.99e-05 2.95e-05 3.32e-05 
2 1 1.6337e-06 4.06e-05 9.15e-06 3.43e-05 
49 1 1.8641e-06 8.87e-06 4.07e-06 3.9e-05 
27 1 1.43473e-06 2.35e-05 3.62e-05 4.41e-05 
6 1 1.70701e-06 4.58e-06 2.96e-06 4.48e-05 
7 1 1.91646e-06 4.01e-06 4.41e-05 4.75e-05 
53 1 1.54275e-06 6.45913e-06 4.59127e-05 3.03566e-05 
31 1 1.67559e-06 3.12e-06 5.13e-05 5.74e-06 
39 1 1.75937e-06 4.75e-06 7.97e-05 1.5e-05 
19 1 1.48709e-06 3.58e-05 5.08e-05 1.6e-05 
10 1 1.90599e-06 4.45e-05 7.14e-05 1.79e-05 
13 1 1.4452e-06 4.51e-05 7.88e-05 1.8e-05 
4 1 1.84315e-06 3.44e-05 6.68e-05 2.16e-05 
21 1 1.45567e-06 4.62e-05 6.51e-05 2.24e-05 
8 1 1.84315e-06 4.53e-05 8.82e-05 2.42e-05 
14 1 1.62323e-06 4.67e-05 7.48e-05 2.5e-05 
33 1 1.67559e-06 4.76e-05 5.05e-05 2.93e-05 
29 1 1.94788e-06 4.65e-05 8.46e-05 3.07e-05 
50 1 1.4452e-06 4.08e-05 6.6e-05 4.03e-05 
37 1 1.73843e-06 1.1e-05 5.69e-05 4.56e-05 
25 1 1.90599e-06 8.93e-05 1.96e-05 3.95e-06 
22 1 1.7489e-06 8.2e-05 5.39e-06 4.06e-06 
48 1 1.4452e-06 5.8e-05 1.32e-05 5.03e-06 
11 1 1.52898e-06 6.36e-05 3.63e-05 5.81e-06 
38 1 1.47662e-06 7.19e-05 3.49e-05 6.9e-06 
44 1 1.70701e-06 7.19e-05 3.79e-05 7.66e-06 
16 1 1.48709e-06 8.91e-05 2.07e-05 1.02e-05 
1 1 1.80126e-06 7.82e-05 2.91e-05 2.09e-05 
17 1 1.62269e-06 5.29264e-05 2.19867e-05 2.41087e-05 
40 1 1.7489e-06 5.31e-05 6.11e-06 2.97e-05 
20 1 1.81174e-06 9.82e-05 1.26e-05 3.18e-05 
3 1 1.90599e-06 5.28e-05 2.43e-05 4.47e-05 
24 1 1.6337e-06 9.07e-05 3.45e-05 4.48e-05 
52 1 1.55087e-06 5.26792e-05 2.20127e-05 2.56562e-05 
5 1 1.48709e-06 9.73e-05 7.98e-05 2.02e-05 
45 1 1.69654e-06 6.66e-05 5.76e-05 2.06e-05 
30 1 1.91646e-06 7.87e-05 6.25e-05 2.15e-05 
9 1 1.65465e-06 5.21e-05 9.14e-05 3.14e-05 
47 1 1.8641e-06 5.92e-05 5.28e-05 3.18e-05 
23 1 1.81174e-06 7.42e-05 6.09e-05 3.48e-05 
32 1 1.59181e-06 8.85e-05 9.33e-05 3.59e-05 
34 1 1.63968e-06 5.12294e-05 5.43864e-05 3.90899e-05 
26 1 1.52898e-06 7.78e-05 6.16e-05 4.15e-05 
12 1 1.71748e-06 7.39e-05 5.02e-05 4.34e-05 
51 1 1.56711e-06 5.09762e-05 5.44131e-05 4.06751e-05 
ITEM: TIMESTEP
900
ITEM: NUMBER OF ATOMS
53
ITEM: BOX BOUNDS ff ff ff
0.0000000000000000e+00 1.0000000000000000e-04
0.0000000000000000e+00 1.0000000000000000e-04
0.0000000000000000e+00 5.0000000000000002e-05
ITEM: ATOMS id type diameter x y z 
35 1 1.51676e-06 3.41e-05 3.71e-05 4.68e-06 
43 1 1.89595e-06 1.6e-05 2.64e-05 5.48e-06 
46 1 1.92755e-06 1.52e-05 1.51e-05 6.14e-06 
15 1 1.86435e-06 1.7e-05 4.94e-05 1.14e-05 
18 1 1.67476e-06 8.4e-06 2.52e-05 1.95e-05 
41 1 1.56943e-06 4.17e-05 4.55e-05 2.83e-05 
36 1 1.62353e-06 6.70646e-06 4.58867e-05 2.88083e-05 
42 1 1.68529e-06 1.85e-05 4.75e-06 3.18e-05 
28 1 1.80115e-06 2.99e-05 2.95e-05 3.32e-05 
2 1 1.64316e-06 4.06e-05 9.15e-06 3.43e-05 
49 1 1.87489e-06 8.87e-06 4.07e-06 3.9e-05 
27 1 1.44303e-06 2.35e-05 3.62e-05 4.41e-05 
6 1 1.71689e-06 4.58e-06 2.96e-06 4.48e-05 
7 1 1.92755e-06 4.01e-06 4.41e-05 4.75e-05 
53 1 1.55168e-06 6.45913e-06 4.59127e-05 3.03566e-05 
31 1 1.68529e-06 3.12e-06 5.13e-05 5.74e-06 
39 1 1.76956e-06 4.75e-06 7.97e-05 1.5e-05 
19 1 1.4957e-06 3.58e-05 5.08e-05 1.6e-05 
10 1 1.91702e-06 4.45e-05 7.14e-05 1.79e-05 
13 1 1.45356e-06 4.51e-05 7.88e-05 1.8e-05 
4 1 1.85382e-06 3.44e-05 6.68e-05 2.16e-05 
21 1 1.4641e-06 4.62e-05 6.51e-05 2.24e-05 
8 1 1.85382e-06 4.53e-05 8.82e-05 2.42e-05 
14 1 1.63263e-06 4.67e-05 7.48e-05 2.5e-05 
33 1 1.68529e-06 4.76e-05 5.05e-05 2.93e-05 
29 1 1.95915e-06 4.65e-05 8.46e-05 3.07e-05 
50 1 1.45356e-06 4.08e-05 6.6e-05 4.03e-05 
37 1 1.74849e-06 1.1e-05 5.69e-05 4.56e-05 
25 1 1.91702e-06 8.93e-05 1.96e-05 3.95e-06 
22 1 1.75902e-06 8.2e-05 5.39e-06 4.06e-06 
48 1 1.45356e-06 5.8e-05 1.32e-05 5.03e-06 
11 1 1.53783e-06 6.36e-05 3.63e-05 5.81e-06 
38 1 1.48516e-06 7.19e-05 3.49e-05 6.9e-06 
44 1 1.71689e-06 7.19e-05 3.79e-05 7.66e-06 
16 1 1.4957e-06 8.91e-05 2.07e-05 1.02e-05 
1 1 1.81169e-06 7.82e-05 2.91e-05 2.09e-05 
17 1 1.63208e-06 5.29264e-05 2.19867e-05 2.41087e-05 
40 1 1.75902e-06 5.31e-05 6.11e-06 2.97e-05 
20 1 1.82222e-06 9.82e-05 1.26e-05 3.18e-05 
3 1 1.91702e-06 5.28e-05 2.43e-05 4.47e-05 
24 1 1.64316e-06 9.07e-05 3.45e-05 4.48e-05 
52 1 1.55985e-06 5.26792e-05 2.20127e-05 2.56562e-05 
5 1 1.4957e-06 9.73e-05 7.98e-05 2.02e-05 
45 1 1.70636e-06 6.66e-05 5.76e-05 2.06e-05 
30 1 1.92755e-06 7.87e-05 6.25e-05 2.15e-05 
9 1 1.66422e-06 5.21e-05 9.14e-05 3.14e-05 
47 1 1.87489e-06 5.92e-05 5.28e-05 3.18e-05 
23 1 1.82222e-06 7.42e-05 6.09e-05 3.48e-05 
32 1 1.60103e-06 8.85e-05 9.33e-05 3.59e-05 
34 1 1.64917e-06 5.12294e-05 5.43864e-05 3.90899e-05 
26 1 1.53783e-06 7.78e-05 6.16e-05 4.15e-05 
12 1 1.72742e-06 7.39e-05 5.02e-05 4.34e-05 
51 1 1.57618e-06 5.09762e-05 5.44131e-05 4.06751e-05 
ITEM: TIMESTEP
1000
ITEM: NUMBER OF ATOMS
53
ITEM: BOX BOUNDS ff ff ff
0.0000000000000000e+00 1.0000000000000000e-04
0.0000000000000000e+00 1.0000000000000000e-04
0.0000000000000000e+00 5.0000000000000002e-05
ITEM: ATOMS id type diameter x y z 
35 1 1.52554e-06 3.41e-05 3.71e-05 4.68e-06 
43 1 1.90692e-06 1.6e-05 2.64e-05 5.48e-06 
46 1 1.93871e-06 1.52e-05 1.51e-05 6.14e-06 
15 1 1.87514e-06 1.7e-05 4.94e-05 1.14e-05 
18 1 1.68445e-06 8.4e-06 2.52e-05 1.95e-05 
41 1 1.57851e-06 4.17e-05 4.55e-05 2.83e-05 
36 1 1.63293e-06 6.70646e-06 4.58867e-05 2.88083e-05 
53 1 1.56066e-06 6.45913e-06 4.59127e-05 3.03566e-05 
42 1 1.69504e-06 1.85e-05 4.75e-06 3.18e-05 
28 1 1.81158e-06 2.99e-05 2.95e-05 3.32e-05 
2 1 1.65267e-06 4.06e-05 9.15e-06 3.43e-05 
49 1 1.88574e-06 8.87e-06 4.07e-06 3.9e-05 
27 1 1.45138e-06 2.35e-05 3.62e-05 4.41e-05 
6 1 1.72683e-06 4.58e-06 2.96e-06 4.48e-05 
7 1 1.93871e-06 4.01e-06 4.41e-05 4.75e-05 
31 1 1.69504e-06 3.12e-06 5.13e-05 5.74e-06 
39 1 1.7798e-06 4.75e-06 7.97e-05 1.5e-05 
19 1 1.50435e-06 3.58e-05 5.08e-05 1.6e-05 
10 1 1.92811e-06 4.45e-05 7.14e-05 1.79e-05 
13 1 1.46198e-06 4.51e-05 7.88e-05 1.8e-05 
4 1 1.86455e-06 3.44e-05 6.68e-05 2.16e-05 
21 1 1.47257e-06 4.62e-05 6.51e-05 2.24e-05 
8 1 1.86455e-06 4.53e-05 8.82e-05 2.42e-05 
14 1 1.64207e-06 4.67e-05 7.48e-05 2.5e-05 
33 1 1.69504e-06 4.76e-05 5.05e-05 2.93e-05 
29 1 1.97049e-06 4.65e-05 8.46e-05 3.07e-05 
50 1 1.46198e-06 4.08e-05 6.6e-05 4.03e-05 
37 1 1.75861e-06 1.1e-05 5.69e-05 4.56e-05 
25 1 1.92811e-06 8.93e-05 1.96e-05 3.95e-06 
22 1 1.7692e-06 8.2e-05 5.39e-06 4.06e-06 
48 1 1.46198e-06 5.8e-05 1.32e-05 5.03e-06 
11 1 1.54673e-06 6.36e-05 3.63e-05 5.81e-06 
38 1 1.49376e-06 7.19e-05 3.49e-05 6.9e-06 
44 1 1.72683e-06 7.19e-05 3.79e-05 7.66e-06 
16 1 1.50435e-06 8.91e-05 2.07e-05 1.02e-05 
1 1 1.82217e-06 7.82e-05 2.91e-05 2.09e-05 
17 1 1.64152e-06 5.29296e-05 2.19863e-05 2.4089e-05 
52 1 1.56888e-06 5.2676e-05 2.20131e-05 2.5676e-05 
40 1 1.7692e-06 5.31e-05 6.11e-06 2.97e-05 
20 1 1.83277e-06 9.82e-05 1.26e-05 3.18e-05 
3 1 1.92811e-06 5.28e-05 2.43e-05 4.47e-05 
24 1 1.65267e-06 9.07e-05 3.45e-05 4.48e-05 
5 1 1.50435e-06 9.73e-05 7.98e-05 2.02e-05 
45 1 1.71623e-06 6.66e-05 5.76e-05 2.06e-05 
30 1 1.93871e-06 7.87e-05 6.25e-05 2.15e-05 
9 1 1.67386e-06 5.21e-05 9.14e-05 3.14e-05 
47 1 1.88574e-06 5.92e-05 5.28e-05 3.18e-05 
23 1 1.83277e-06 7.42e-05 6.09e-05 3.48e-05 
32 1 1.61029e-06 8.85e-05 9.33e-05 3.59e-05 
34 1 1.65871e-06 5.12294e-05 5.43864e-05 3.90899e-05 
51 1 1.5853e-06 5.09762e-05 5.44131e-05 4.06751e-05 
26 1 1.54673e-06 7.78e-05 6.16e-05 4.15e-05 
12 1 1.73742e-06 7.39e-05 5.02e-05 4.34e-05 
ITEM: TIMESTEP
1100
ITEM: NUMBER OF ATOMS
54
ITEM: BOX BOUNDS ff ff ff
0.0000000000000000e+00 1.0000000000000000e-04
0.0000000000000000e+00 1.0000000000000000e-04
0.0000000000000000e+00 5.0000000000000002e-05
ITEM: ATOMS id type diameter x y z 
35 1 1.53437e-06 3.41e-05 3.71e-05 4.68e-06 
43 1 1.91796e-06 1.6e-05 2.64e-05 5.48e-06 
46 1 1.94993e-06 1.52e-05 1.51e-05 6.14e-06 
15 1 1.88599e-06 1.7e-05 4.94e-05 1.14e-05 
18 1 1.6942e-06 8.4e-06 2.52e-05 1.95e-05 
41 1 1.58764e-06 4.17e-05 4.55e-05 2.83e-05 
36 1 1.64238e-06 6.70962e-06 4.58863e-05 2.87886e-05 
53 1 1.56969e-06 6.45598e-06 4.59131e-05 3.03764e-05 
42 1 1.70485e-06 1.85e-05 4.75e-06 3.18e-05 
28 1 1.82206e-06 2.99e-05 2.95e-05 3.32e-05 
2 1 1.66223e-06 4.06e-05 9.15e-06 3.43e-05 
49 1 1.89665e-06 8.87e-06 4.07e-06 3.9e-05 
27 1 1.45978e-06 2.35e-05 3.62e-05 4.41e-05 
6 1 1.73682e-06 4.58e-06 2.96e-06 4.48e-05 
7 1 1.94993e-06 4.01e-06 4.41e-05 4.75e-05 
31 1 1.70485e-06 3.12e-06 5.13e-05 5.74e-06 
39 1 1.7901e-06 4.75e-06 7.97e-05 1.5e-05 
19 1 1.51306e-06 3.58e-05 5.08e-05 1.6e-05 
10 1 1.93927e-06 4.45e-05 7.14e-05 1.79e-05 
13 1 1.47044e-06 4.51e-05 7.88e-05 1.8e-05 
4 1 1.87534e-06 3.44e-05 6.68e-05 2.16e-05 
21 1 1.48109e-06 4.62e-05 6.51e-05 2.24e-05 
8 1 1.87534e-06 4.53e-05 8.82e-05 2.42e-05 
14 1 1.65158e-06 4.67e-05 7.48e-05 2.5e-05 
33 1 1.70485e-06 4.76e-05 5.05e-05 2.93e-05 
29 1 1.6078e-06 4.66267e-05 8.45866e-05 2.99069e-05 
50 1 1.47044e-06 4.08e-05 6.6e-05 4.03e-05 
37 1 1.76879e-06 1.1e-05 5.69e-05 4.56e-05 
54 1 1.53665e-06 4.63789e-05 8.46128e-05 3.1458e-05 
25 1 1.93927e-06 8.93e-05 1.96e-05 3.95e-06 
22 1 1.77944e-06 8.2e-05 5.39e-06 4.06e-06 
48 1 1.47044e-06 5.8e-05 1.32e-05 5.03e-06 
11 1 1.55568e-06 6.36e-05 3.63e-05 5.81e-06 
38 1 1.5024e-06 7.19e-05 3.49e-05 6.9e-06 
44 1 1.73682e-06 7.19e-05 3.79e-05 7.66e-06 
16 1 1.51306e-06 8.91e-05 2.07e-05 1.02e-05 
1 1 1.83272e-06 7.82e-05 2.91e-05 2.09e-05 
17 1 1.65102e-06 5.29296e-05 2.19863e-05 2.4089e-05 
52 1 1.57795e-06 5.2676e-05 2.20131e-05 2.5676e-05 