LAMMPS (20 Nov 2019)
Reading data file ...
  orthogonal box = (0 0 0) to (0.0001 0.0001 1e-05)
  8 by 4 by 1 MPI processor grid
  reading atoms ...
  100 atoms
  4 nutrients
Lattice spacing in x,y,z = 100 100 100
50 atoms in group CYANO
50 atoms in group ECW
Model is defined as a closed system. 
Neighbor list info ...
  update every 1 steps, delay 0 steps, check yes
  max neighbors/atom: 5000, page size: 100000
  master list distance cutoff = 2.44e-06
  ghost atom cutoff = 2.44e-06
  binsize = 1.22e-06, bins = 82 82 9
  1 neighbor lists, perpetual/occasional/extra = 1 0 0
  (1) pair gran/hooke/history, perpetual
      attributes: half, newton off, size, history
      pair build: half/size/bin/newtoff
      stencil: half/bin/3d/newtoff
      bin: standard
Setting up Verlet run ...
  Unit style    : lj
  Current step  : 0
  Time step     : 10
Per MPI rank memory allocation (min/avg/max) = 5.788 | 11 | 12.11 Mbytes
Step CPU Atoms c_myNtypes[1] c_myNtypes[2] c_myMass[1] c_myMass[2] c_myCon[1] c_myCon[2] c_myCon[3] c_myCon[4] 
       0            0      100           50           50 4.5840679e-14 9.0987916e-15          0.1        0.009     3.42e-20       0.0299 
number of iterations: 320597 
     100    15.334851      135           50           85 4.644817e-14 9.0921727e-15          0.1 0.0090007653  0.036817425  0.029898725 
number of iterations: 4054 
     200    15.636716      152           50          102 4.7063711e-14 9.0866868e-15          0.1 0.0090007754  0.072951593  0.029898708 
number of iterations: 2990 
     300    15.937445      152           50          102 4.7687409e-14 9.0823156e-15          0.1 0.0090007856   0.10953524  0.029898691 
number of iterations: 2451 
     400    16.200554      153           51          102 4.8319373e-14 9.0790484e-15          0.1  0.009000796   0.14657686  0.029898674 
number of iterations: 2099 
     500    16.450222      153           51          102 4.8959712e-14 9.0768756e-15          0.1 0.0090008065   0.18408383  0.029898656 
number of iterations: 1843 
     600      16.6626      153           51          102 4.9608537e-14 9.0757879e-15          0.1 0.0090008171   0.22206321  0.029898639 
number of iterations: 1643 
     700    16.889435      154           52          102 5.026596e-14 9.0757764e-15          0.1 0.0090008312     0.260522  0.029898615 
number of iterations: 1482 
     800    17.110723      154           52          102 5.0932095e-14 9.0768325e-15          0.1 0.0090008422   0.29946722  0.029898597 
number of iterations: 1383 
     900    17.310569      154           52          102 5.1607058e-14 9.078948e-15          0.1 0.0090008533   0.33890594  0.029898578 
number of iterations: 1385 
    1000    17.542606      155           53          102 5.2290966e-14 9.0821151e-15          0.1 0.0090008645   0.37884527  0.029898559 
number of iterations: 1388 
    1100    17.756278      156           54          102 5.2983937e-14 9.0863264e-15          0.1 0.0090008714   0.41929238  0.029898548 
number of iterations: 1529 
    1200     17.95642      157           55          102 5.3686092e-14 9.0915732e-15          0.1 0.0090008846   0.46025453  0.029898526 
number of iterations: 1395 
    1300     18.14674      157           55          102 5.4397551e-14 9.0978506e-15          0.1 0.0090008963     0.501739  0.029898506 
number of iterations: 1398 
    1400    18.354923      157           55          102 5.5118439e-14 9.1051528e-15          0.1 0.0090009081   0.54375318  0.029898487 
number of iterations: 1387 
    1500    18.539085      159           57          102 5.5848881e-14 9.1134717e-15          0.1 0.0090009167   0.58630447  0.029898472 
number of iterations: 1403 
    1600    18.745128      159           57          102 5.6589002e-14 9.1228043e-15          0.1 0.0090009288   0.62940049  0.029898452 
number of iterations: 1406 
    1700    18.914739      159           57          102 5.7338932e-14 9.1331457e-15          0.1  0.009000941   0.67304888  0.029898432 
number of iterations: 1408 
    1800    19.119778      160           58          102 5.8098799e-14 9.1444913e-15          0.1 0.0090009535   0.71725735  0.029898411 
number of iterations: 1411 
    1900    19.309542      160           58          102 5.8868737e-14 9.1568369e-15          0.1 0.0090009661   0.76203373   0.02989839 
number of iterations: 1414 
    2000    19.497128      160           58          102 5.9648878e-14 9.1701787e-15          0.1 0.0090009788   0.80738594  0.029898368 
number of iterations: 1417 
    2100    19.683088      160           58          102 6.0439358e-14 9.1845129e-15          0.1 0.0090009918   0.85332199  0.029898347 
number of iterations: 1530 
    2200    19.894067      163           60          103 6.1240313e-14 9.1998365e-15          0.1 0.0090010017   0.89984997   0.02989833 
number of iterations: 1399 
    2300    20.060661      164           61          103 6.2051882e-14 9.2161465e-15          0.1 0.0090010105   0.94697811  0.029898316 
number of iterations: 1420 
    2400    20.237907      164           61          103 6.2874207e-14  9.23344e-15          0.1 0.0090010238   0.99471471  0.029898293 
number of iterations: 1623 
    2500    20.436464      165           62          103 6.370743e-14 9.2517149e-15          0.1 0.0090010424    1.0430682  0.029898262 
number of iterations: 1425 
    2600    20.637513      167           64          103 6.4551694e-14 9.2709707e-15          0.1 0.0090010562     1.092047  0.029898239 
number of iterations: 1428 
    2700    20.834909      167           64          103 6.5407147e-14 9.2912038e-15          0.1 0.0090010701    1.1416599  0.029898216 
number of iterations: 1431 
    2800    21.019367      167           64          103 6.6273936e-14 9.3124127e-15          0.1 0.0090010843    1.1919155  0.029898192 
number of iterations: 1434 
    2900    21.211991      167           64          103 6.7152212e-14 9.3345962e-15          0.1 0.0090010986    1.2428226  0.029898168 
number of iterations: 1614 
    3000    21.448052      169           66          103 6.8042127e-14 9.3577532e-15          0.1 0.0090011179    1.2943903  0.029898136 
number of iterations: 1592 
    3100    21.647137      171           68          103 6.8943836e-14 9.3818829e-15          0.1 0.0090011279    1.3466272  0.029898119 
number of iterations: 1442 
    3200    21.844964      171           68          103 6.9857494e-14 9.4069849e-15          0.1 0.0090011429     1.399543  0.029898095 
number of iterations: 1478 
    3300    22.043208      175           72          103 7.0783261e-14 9.4330569e-15          0.1 0.0090011568    1.4531467  0.029898071 
number of iterations: 1447 
    3400    22.247706      176           73          103 7.1721295e-14 9.4601017e-15          0.1 0.0090011721    1.5074479  0.029898046 
number of iterations: 1514 
    3500    22.432141      177           74          103 7.2671761e-14 9.4881188e-15          0.1 0.0090011892     1.562456  0.029898017 
number of iterations: 1455 
    3600    22.604849      178           74          104 7.3634822e-14 9.5171087e-15          0.1 0.0090012049    1.6181808  0.029897991 
number of iterations: 1497 
    3700    22.853378      179           75          104 7.4610647e-14 9.5470731e-15          0.1 0.0090012208    1.6746319  0.029897964 
number of iterations: 1463 
    3800    23.057049      180           76          104 7.5599403e-14 9.5780126e-15          0.1 0.0090012359    1.7318193  0.029897939 
number of iterations: 1614 
    3900    23.247235      183           79          104 7.6601262e-14 9.6099266e-15          0.1  0.009001254    1.7897531  0.029897909 
number of iterations: 1462 
    4000    23.538106      183           79          104 7.7616398e-14 9.6428176e-15          0.1 0.0090012706    1.8484434  0.029897881 
number of iterations: 1613 
    4100     23.74342      187           82          105 7.8644986e-14 9.6766881e-15          0.1 0.0090012905    1.9079004  0.029897848 
number of iterations: 1463 
    4200    23.941635      188           83          105 7.9687206e-14 9.7115395e-15          0.1 0.0090013051    1.9681346  0.029897824 
number of iterations: 1616 
    4300    24.150291      189           84          105 8.0743238e-14 9.7473735e-15          0.1  0.009001325    2.0291564  0.029897791 
number of iterations: 1472 
    4400     24.33974      189           84          105 8.1813264e-14 9.7841926e-15          0.1 0.0090013426    2.0909765  0.029897761 
number of iterations: 1477 
    4500     24.52303      190           85          105 8.2897471e-14 9.8219991e-15          0.1 0.0090013558    2.1536059  0.029897739 
number of iterations: 1535 
    4600    24.699804      193           88          105 8.3996045e-14 9.860797e-15          0.1 0.0090013769    2.2170552  0.029897704 
number of iterations: 1478 
    4700    24.872604      195           89          106 8.5109178e-14 9.9005882e-15          0.1 0.0090013928    2.2813358  0.029897677 
number of iterations: 1528 
    4800    25.054882      196           90          106 8.6237063e-14 9.9413744e-15          0.1 0.0090014112    2.3464588  0.029897647 
number of iterations: 1485 
    4900    25.246548      198           91          107 8.7379894e-14  9.98316e-15          0.1 0.0090014299    2.4124357  0.029897616 
number of iterations: 1523 
    5000    25.449326      200           92          108 8.8537871e-14 1.0025949e-14          0.1 0.0090014488    2.4792778  0.029897584 
number of iterations: 1491 
    5100    25.619496      200           92          108 8.9711193e-14 1.0069745e-14          0.1  0.009001468    2.5469972  0.029897552 
number of iterations: 1492 
    5200    25.783701      201           93          108 9.0900064e-14 1.0114552e-14          0.1 0.0090014861    2.6156055  0.029897522 
number of iterations: 1680 
    5300    26.031797      202           93          109 9.2104691e-14 1.0160373e-14          0.1 0.0090015107    2.6851147  0.029897481 
number of iterations: 1522 
    5400    26.217182      206           97          109 9.3325281e-14 1.0207215e-14          0.1 0.0090015307    2.7555366  0.029897447 
number of iterations: 1603 
    5500    26.402201      207           98          109 9.4562047e-14 1.0255081e-14          0.1 0.0090015566    2.8268838  0.029897404 
number of iterations: 1508 
    5600    26.566418      208           98          110 9.5815203e-14 1.0303976e-14          0.1 0.0090015772    2.8991689   0.02989737 
number of iterations: 1514 
    5700    26.736176      210           98          112 9.7084966e-14 1.0353907e-14          0.1 0.0090015981    2.9724041  0.029897335 
number of iterations: 1514 
    5800    26.907061      211           98          113 9.8371556e-14 1.0404876e-14          0.1 0.0090016193    3.0466026    0.0298973 
number of iterations: 1614 
    5900    27.069647      213           99          114 9.9675196e-14 1.045689e-14          0.1 0.0090016439    3.1217771  0.029897259 
number of iterations: 1754 
    6000    27.256905      213           99          114 1.0099611e-13 1.0509954e-14          0.1 0.0090016739     3.197941  0.029897208 
number of iterations: 1524 
    6100    27.462478      214          100          114 1.0233453e-13 1.0564074e-14          0.1  0.009001692    3.2751074  0.029897178 
number of iterations: 1524 
    6200    27.655292      215          101          114 1.0369069e-13 1.0619255e-14          0.1 0.0090017047    3.3532898  0.029897157 
number of iterations: 1524 
    6300    27.843984      216          102          114 1.0506482e-13 1.0675505e-14          0.1 0.0090017272    3.4325018  0.029897119 
number of iterations: 1496 
    6400    28.043249      218          104          114 1.0645716e-13 1.073283e-14          0.1 0.0090017415    3.5127575  0.029897096 
number of iterations: 1563 
    6500     28.21725      223          107          116 1.0786795e-13 1.0791237e-14          0.1 0.0090017661    3.5940707  0.029897055 
number of iterations: 1530 
    6600    28.390714      224          107          117 1.0929744e-13 1.085073e-14          0.1 0.0090017895    3.6764556  0.029897016 
number of iterations: 1540 
    6700    28.553969      225          107          118 1.1074587e-13 1.0911318e-14          0.1 0.0090018132    3.7599266  0.029896976 
number of iterations: 1543 
    6800    28.734331      225          107          118 1.122135e-13 1.0973007e-14          0.1 0.0090018372    3.8444981  0.029896936 
number of iterations: 1584 
    6900    28.906344      228          108          120 1.1370058e-13 1.1035807e-14          0.1 0.0090018632     3.930185  0.029896893 
number of iterations: 1549 
    7000    29.074248      228          108          120 1.1520736e-13 1.1099722e-14          0.1 0.0090018798    4.0170022  0.029896865 
number of iterations: 1552 
    7100    29.279459      229          109          120 1.1673411e-13 1.1164763e-14          0.1 0.0090019047    4.1049653  0.029896823 
number of iterations: 1749 
    7200      29.4769      231          111          120 1.182811e-13 1.1230935e-14          0.1 0.0090019373     4.194089  0.029896769 
number of iterations: 1678 
    7300    29.649494      235          115          120 1.1984858e-13 1.1298246e-14          0.1  0.009001966    4.2843887  0.029896721 
number of iterations: 1561 
    7400    29.828544      236          116          120 1.2143684e-13 1.1366706e-14          0.1  0.009001992    4.3758804  0.029896678 
number of iterations: 1687 
    7500    30.010914      240          119          121 1.2304614e-13 1.1436323e-14          0.1 0.0090020277    4.4685802  0.029896618 
number of iterations: 1572 
    7600    30.191929      241          120          121 1.2467678e-13 1.1507107e-14          0.1  0.009002047    4.5625038  0.029896586 
number of iterations: 1732 
    7700    30.398148      245          124          121 1.2632902e-13 1.1579063e-14          0.1  0.009002067     4.657668  0.029896553 
number of iterations: 1608 
    7800    30.581361      247          126          121 1.2800315e-13 1.1652203e-14          0.1 0.0090020929     4.754089  0.029896509 
number of iterations: 1638 
    7900    30.788572      252          129          123 1.2969948e-13 1.1726539e-14          0.1 0.0090021194    4.8517842  0.029896465 
number of iterations: 1662 
    8000    30.973917      256          131          125 1.3141828e-13 1.1802077e-14          0.1 0.0090021496    4.9507704  0.029896415 
number of iterations: 1661 
    8100    31.162974      258          132          126 1.3315986e-13 1.1878828e-14          0.1 0.0090021855    5.0510647  0.029896355 
number of iterations: 1606 
    8200    31.339787      260          133          127 1.3492453e-13 1.1956799e-14          0.1 0.0090022144    5.1526845  0.029896307 
number of iterations: 1629 
    8300    31.534837      265          137          128 1.3671257e-13 1.2036003e-14          0.1  0.009002247    5.2556478  0.029896252 
number of iterations: 1620 
    8400    31.739009      266          138          128 1.3852431e-13 1.2116449e-14          0.1 0.0090022791    5.3599722  0.029896199 
number of iterations: 1602 
    8500    31.948019      269          140          129 1.4036007e-13 1.2198148e-14          0.1 0.0090023093    5.4656763  0.029896148 
number of iterations: 1740 
    8600     32.15047      274          142          132 1.4222015e-13 1.2281109e-14          0.1 0.0090023431    5.5727783  0.029896092 
number of iterations: 1601 
    8700        32.35      274          142          132 1.4410488e-13 1.2365346e-14          0.1 0.0090023742    5.6812969   0.02989604 
number of iterations: 1583 
    8800     32.53878      276          143          133 1.4601458e-13 1.2450866e-14          0.1 0.0090023959    5.7912512  0.029896004 
number of iterations: 1639 
    8900    32.776607      280          146          134 1.479496e-13 1.2537682e-14          0.1 0.0090024249      5.90266  0.029895956 
number of iterations: 1673 
    9000    32.982337      282          146          136 1.4991025e-13 1.2625806e-14          0.1 0.0090024613     6.015543  0.029895895 
number of iterations: 1612 
    9100    33.199763      285          148          137 1.5189689e-13 1.2715249e-14          0.1 0.0090024903    6.1299193  0.029895847 
number of iterations: 1617 
    9200      33.3868      288          151          137 1.5390986e-13 1.2806023e-14          0.1  0.009002526    6.2458097  0.029895787 
number of iterations: 1641 
    9300    33.584137      292          154          138 1.5594951e-13 1.2898141e-14          0.1 0.0090025595    6.3632339  0.029895731 
number of iterations: 1709 
    9400    33.763629      293          155          138 1.5801618e-13 1.2991614e-14          0.1 0.0090025938    6.4822122  0.029895674 
number of iterations: 1624 
    9500    33.943278      298          160          138 1.6011024e-13 1.3086455e-14          0.1 0.0090026219    6.6027657  0.029895627 
number of iterations: 1629 
    9600    34.117265      302          160          142 1.6223205e-13 1.3182677e-14          0.1 0.0090026567    6.7249143  0.029895569 
number of iterations: 1655 
    9700    34.306642      305          163          142 1.6438199e-13 1.3280292e-14          0.1 0.0090026962    6.8486803  0.029895503 
number of iterations: 1636 
    9800    34.495892      309          167          142 1.6656041e-13 1.3379314e-14          0.1 0.0090027292    6.9740851  0.029895448 
number of iterations: 1691 
    9900    34.694721      314          170          144 1.687677e-13 1.3479755e-14          0.1 0.0090027676    7.1011504  0.029895384 
number of iterations: 1640 
   10000     34.88026      317          172          145 1.7100424e-13 1.3581628e-14          0.1 0.0090028012    7.2298987  0.029895328 
number of iterations: 1696 
   10100    35.089054      318          173          145 1.7327042e-13 1.3684949e-14          0.1 0.0090028412    7.3603522  0.029895261 
number of iterations: 1627 
   10200    35.263207      320          174          146 1.7556664e-13 1.378973e-14          0.1 0.0090028761    7.4925337  0.029895203 
number of iterations: 1688 
   10300    35.471257      324          178          146 1.7789328e-13 1.3895988e-14          0.1 0.0090029096    7.6264658  0.029895147 
number of iterations: 1683 
   10400    35.690093      326          180          146 1.8025076e-13 1.4003733e-14          0.1 0.0090029481    7.7621721  0.029895083 
number of iterations: 1713 
   10500    35.917475      329          181          148 1.8263947e-13 1.4112982e-14          0.1 0.0090029885    7.8996763  0.029895016 
number of iterations: 1779 
   10600    36.107635      334          183          151 1.8505985e-13 1.4223749e-14          0.1 0.0090030313    8.0390022  0.029894944 
number of iterations: 1656 
   10700    36.297277      338          185          153 1.875123e-13 1.4336049e-14          0.1 0.0090030683    8.1801742  0.029894883 
number of iterations: 1643 
   10800    36.493306      345          189          156 1.8999725e-13 1.4449898e-14          0.1 0.0090031033    8.3232169  0.029894824 
number of iterations: 1695 
   10900    36.692979      347          191          156 1.9251513e-13 1.4565312e-14          0.1 0.0090031471    8.4681551  0.029894751 
number of iterations: 1657 
   11000    36.902141      350          193          157 1.9506637e-13 1.4682307e-14          0.1 0.0090031815    8.6150139  0.029894694 
number of iterations: 1828 
   11100     37.11104      353          196          157 1.9765143e-13 1.4800901e-14          0.1 0.0090032342    8.7638188  0.029894606 
number of iterations: 1809 
   11200    37.305533      355          198          157 2.0027074e-13 1.4921107e-14          0.1 0.0090032883    8.9145961  0.029894516 
number of iterations: 1676 
   11300    37.500476      361          200          161 2.0292477e-13 1.5042939e-14          0.1 0.0090033307    9.0673719  0.029894445 
number of iterations: 1687 
   11400    37.680576      365          203          162 2.0561397e-13 1.5166417e-14          0.1 0.0090033685     9.222173  0.029894382 
number of iterations: 1718 
   11500    37.880528      368          206          162 2.083388e-13 1.5291558e-14          0.1 0.0090034065    9.3790256  0.029894319 
number of iterations: 1681 
   11600    38.059732      376          210          166 2.1109975e-13 1.5418378e-14          0.1 0.0090034486    9.5379576  0.029894248 
number of iterations: 1713 
   11700     38.26612      378          211          167 2.1389728e-13 1.5546895e-14          0.1  0.009003497    9.6989969  0.029894168 
number of iterations: 1689 
   11800    38.474933      381          213          168 2.1673189e-13 1.5677127e-14          0.1 0.0090035433    9.8621711   0.02989409 
number of iterations: 1692 
   11900      38.6706      385          214          171 2.1960406e-13 1.5809092e-14          0.1 0.0090035903    10.027509  0.029894012 
number of iterations: 1767 
   12000    38.883535      388          215          173 2.225143e-13 1.5942807e-14          0.1 0.0090036446    10.195039  0.029893922 
number of iterations: 1697 
   12100     39.10099      392          219          173 2.254631e-13 1.6078289e-14          0.1 0.0090036859    10.364791  0.029893853 
number of iterations: 1708 
   12200    39.290096      399          224          175 2.2845098e-13 1.621556e-14          0.1 0.0090037293    10.536793   0.02989378 
number of iterations: 1755 
   12300    39.472283      403          226          177 2.3147845e-13 1.6354636e-14          0.1 0.0090037802    10.711077  0.029893695 
number of iterations: 1692 
   12400    39.679308      405          228          177 2.3454605e-13 1.6495538e-14          0.1 0.0090038267    10.887672  0.029893618 
number of iterations: 1702 
   12500    39.885456      410          232          178 2.3765429e-13 1.6638282e-14          0.1 0.0090038731    11.066609   0.02989354 
number of iterations: 1725 
   12600    40.081917      414          236          178 2.4080373e-13 1.678289e-14          0.1 0.0090039208    11.247919  0.029893461 
number of iterations: 1710 
   12700    40.293737      419          239          180 2.4399491e-13 1.6929382e-14          0.1 0.0090039731    11.431634  0.029893374 
number of iterations: 1734 
   12800    40.500124      426          243          183 2.4722837e-13 1.7077777e-14          0.1 0.0090040251    11.617786  0.029893287 
number of iterations: 1710 
   12900    40.685002      429          245          184 2.5050469e-13 1.7228096e-14          0.1 0.0090040784    11.806408  0.029893198 
number of iterations: 1731 
   13000    40.860046      433          247          186 2.5382442e-13 1.7380357e-14          0.1 0.0090041375    11.997532  0.029893099 
number of iterations: 1732 
   13100    41.067408      437          249          188 2.5718815e-13 1.7534585e-14          0.1 0.0090041877     12.19119  0.029893016 
number of iterations: 1886 
   13200    41.274662      443          253          190 2.6059646e-13 1.7690799e-14          0.1 0.0090042539    12.387418  0.029892905 
number of iterations: 1740 
   13300    41.501952      450          256          194 2.6404993e-13 1.7849022e-14          0.1 0.0090043065    12.586248  0.029892818 
number of iterations: 1772 
   13400     41.70362      455          261          194 2.6754917e-13 1.8009274e-14          0.1 0.0090043603    12.787717  0.029892728 
number of iterations: 1764 
   13500    41.897438      461          265          196 2.7109478e-13 1.8171578e-14          0.1 0.0090044203    12.991858  0.029892628 
number of iterations: 1752 
   13600    42.080009      466          268          198 2.7468737e-13 1.8335956e-14          0.1 0.0090044731    13.198708   0.02989254 
number of iterations: 1802 
   13700     42.28105      470          271          199 2.7832758e-13 1.8502429e-14          0.1 0.0090045265    13.408303  0.029892451 
number of iterations: 1742 
   13800    42.488391      472          272          200 2.8201603e-13 1.8671023e-14          0.1 0.0090045866    13.620678  0.029892351 
number of iterations: 1801 
   13900     42.70574      482          279          203 2.8575335e-13 1.884176e-14          0.1 0.0090046399    13.835871  0.029892262 
number of iterations: 1783 
   14000    42.895569      487          283          204 2.8954021e-13 1.9014664e-14          0.1 0.0090046999    14.053919  0.029892162 
number of iterations: 1723 
   14100    43.158229      492          287          205 2.9337725e-13 1.9189757e-14          0.1 0.0090047577     14.27486  0.029892065 
number of iterations: 1807 
   14200    43.338261      499          293          206 2.9726513e-13 1.9367067e-14          0.1 0.0090048218    14.498733  0.029891958 
number of iterations: 1768 
   14300    43.533222      504          297          207 3.0120454e-13 1.9546615e-14          0.1 0.0090048902    14.725577  0.029891844 
number of iterations: 1761 
   14400    43.729107      512          304          208 3.0519616e-13 1.9728429e-14          0.1 0.0090049372    14.955431  0.029891766 
number of iterations: 1918 
   14500    43.931478      517          305          212 3.0924067e-13 1.9912531e-14          0.1 0.0090050236    15.188335  0.029891622 
number of iterations: 1800 
   14600    44.142097      525          309          216 3.1333878e-13 2.0098948e-14          0.1  0.009005091    15.424329  0.029891509 
number of iterations: 1783 
   14700    44.336036      533          314          219 3.174912e-13 2.0287705e-14          0.1 0.0090051499    15.663455  0.029891411 
number of iterations: 1911 
   14800    44.555562      541          321          220 3.2169865e-13 2.0478827e-14          0.1 0.0090052193    15.905755  0.029891296 
number of iterations: 1763 
   14900    44.763056      547          325          222 3.2596186e-13 2.0672341e-14          0.1 0.0090052854     16.15127  0.029891185 
number of iterations: 1789 
   15000    44.972739      550          326          224 3.3028156e-13 2.0868275e-14          0.1 0.0090053531    16.400044  0.029891072 
number of iterations: 1796 
   15100    45.188809      555          330          225 3.3465851e-13 2.1066654e-14          0.1 0.0090054201    16.652119  0.029890961 
number of iterations: 1792 
   15200    45.414564      559          332          227 3.3909346e-13 2.1267507e-14          0.1 0.0090054888     16.90754  0.029890846 
number of iterations: 1843 
   15300     45.62136      566          338          228 3.4358719e-13 2.1470861e-14          0.1 0.0090055534    17.166351  0.029890738 
number of iterations: 1804 
   15400    45.860202      572          341          231 3.4814046e-13 2.1676744e-14          0.1  0.009005627    17.428596  0.029890616 
number of iterations: 1805 
   15500    46.090587      581          348          233 3.5275408e-13 2.1885185e-14          0.1 0.0090056979    17.694323  0.029890497 
number of iterations: 1828 
   15600    46.301449      593          357          236 3.5742883e-13 2.2096211e-14          0.1 0.0090057698    17.963577  0.029890378 
number of iterations: 1824 
   15700    46.515526      601          365          236 3.6216554e-13 2.2309854e-14          0.1 0.0090058542    18.236405  0.029890237 
number of iterations: 1860 
   15800    46.714279      610          370          240 3.6696502e-13 2.2526141e-14          0.1 0.0090059419    18.512854  0.029890091 
number of iterations: 1872 
   15900    46.914255      616          374          242 3.718281e-13 2.2745103e-14          0.1  0.009006034    18.792973  0.029889937 
number of iterations: 1848 
   16000    47.146086      619          377          242 3.7675563e-13 2.2966771e-14          0.1 0.0090061142     19.07681  0.029889803 
number of iterations: 1771 
   16100    47.337078      627          384          243 3.8174846e-13 2.3191174e-14          0.1 0.0090061814    19.364415  0.029889691 
number of iterations: 1837 
   16200    47.527184      631          387          244 3.8680745e-13 2.3418344e-14          0.1 0.0090062644    19.655837  0.029889553 
number of iterations: 1891 
   16300    47.727978      636          390          246 3.9193349e-13 2.3648312e-14          0.1 0.0090063548    19.951126  0.029889402 
number of iterations: 1829 
   16400    47.910746      642          392          250 3.9712746e-13 2.3881111e-14          0.1 0.0090064425    20.250335  0.029889256 
number of iterations: 1797 
   16500    48.134045      654          398          256 4.0239025e-13 2.4116773e-14          0.1 0.0090065119    20.553516   0.02988914 
number of iterations: 1821 
   16600    48.341518      662          402          260 4.0772279e-13 2.4355329e-14          0.1 0.0090065982    20.860722  0.029888996 
number of iterations: 1879 
   16700    48.539654      670          407          263  4.13126e-13 2.4596813e-14          0.1 0.0090066948    21.172007  0.029888835 
number of iterations: 1862 
   16800    48.740548      677          411          266 4.1860082e-13 2.4841257e-14          0.1 0.0090067934    21.487423  0.029888671 
number of iterations: 1826 
   16900    48.947558      687          419          268 4.2414818e-13 2.5088697e-14          0.1 0.0090068739    21.807027  0.029888537 
number of iterations: 1839 
   17000    49.185743      694          422          272 4.2976906e-13 2.5339164e-14          0.1  0.009006965    22.130873  0.029888385 
number of iterations: 1910 
   17100    49.392765      699          426          273 4.3546443e-13 2.5592695e-14          0.1  0.009007061    22.459017  0.029888225 
number of iterations: 1838 
   17200    49.590774      707          433          274 4.4123527e-13 2.5849324e-14          0.1 0.0090071471    22.791518  0.029888081 
number of iterations: 1865 
   17300    49.832849      718          442          276 4.4708259e-13 2.6109087e-14          0.1 0.0090072421    23.128432  0.029887922 
number of iterations: 1822 
   17400    50.027819      724          445          279 4.530074e-13 2.637202e-14          0.1 0.0090073316    23.469818  0.029887773 
number of iterations: 1891 
   17500    50.246121      731          448          283 4.5901072e-13 2.663816e-14          0.1 0.0090074315    23.815735  0.029887607 
number of iterations: 1928 
   17600    50.504022      743          457          286 4.6509361e-13 2.690754e-14          0.1 0.0090075416    24.166246  0.029887423 
number of iterations: 1938 
   17700    50.711557      754          466          288 4.712571e-13 2.7180202e-14          0.1 0.0090076488    24.521409  0.029887244 
number of iterations: 1871 
   17800    50.919486      755          467          288 4.7750227e-13 2.745618e-14          0.1 0.0090077539    24.881286  0.029887069 
number of iterations: 1865 
   17900    51.155357      762          472          290 4.838302e-13 2.7735514e-14          0.1 0.0090078491    25.245941   0.02988691 
number of iterations: 1868 
   18000    51.378516      772          478          294 4.9024199e-13 2.8018242e-14          0.1 0.0090079556    25.615437  0.029886733 
number of iterations: 1907 
   18100    51.567618      779          482          297 4.9673875e-13 2.8304404e-14          0.1 0.0090080727    25.989837  0.029886538 
number of iterations: 1896 
   18200    51.765919      789          486          303 5.0332161e-13 2.8594039e-14          0.1 0.0090081794    26.369208   0.02988636 
number of iterations: 1922 
   18300    51.966045      801          495          306 5.099917e-13 2.8887185e-14          0.1 0.0090083008    26.753616  0.029886157 
number of iterations: 1876 
   18400    52.158599      814          503          311 5.1675019e-13 2.9183883e-14          0.1 0.0090084025    27.143128  0.029885988 
number of iterations: 1866 
   18500    52.357015      821          508          313 5.2359824e-13 2.9484175e-14          0.1   0.00900851    27.537811  0.029885808 
number of iterations: 1870 
   18600    52.556988      834          518          316 5.3053704e-13 2.9788102e-14          0.1 0.0090085903    27.937734  0.029885674 
number of iterations: 1914 
   18700    52.793737      844          525          319 5.375678e-13 3.0095705e-14          0.1 0.0090087073    28.342966  0.029885479 
number of iterations: 1900 
   18800    53.005254      850          530          320 5.4469172e-13 3.0407028e-14          0.1  0.009008834    28.753577  0.029885268 
number of iterations: 1916 
   18900    53.242774      857          536          321 5.5191006e-13 3.0722112e-14          0.1 0.0090089542    29.169641  0.029885068 
number of iterations: 1920 
   19000    53.438224      868          544          324 5.5922405e-13 3.1041002e-14          0.1 0.0090090828    29.591228  0.029884853 
number of iterations: 1951 
   19100    53.640876      878          552          326 5.6663496e-13 3.1363741e-14          0.1 0.0090091972    30.018413  0.029884663 
number of iterations: 1920 
   19200    53.845196      890          560          330 5.7414409e-13 3.1690374e-14          0.1  0.009009325    30.451268  0.029884449 
number of iterations: 1931 
   19300     54.03478      907          571          336 5.8175273e-13 3.2020946e-14          0.1 0.0090094662    30.889871  0.029884214 
number of iterations: 1945 
   19400      54.2512      921          580          341 5.894622e-13 3.2355502e-14          0.1 0.0090095983    31.334298  0.029883994 
number of iterations: 1938 
   19500    54.452628      937          592          345 5.9727383e-13 3.2694088e-14          0.1 0.0090097469    31.784626  0.029883746 
number of iterations: 1968 
   19600    54.651215      948          599          349 6.0518899e-13 3.3036752e-14          0.1 0.0090098788    32.240933  0.029883526 
number of iterations: 1929 
   19700    54.860038      960          608          352 6.1320904e-13 3.338354e-14          0.1 0.0090100103    32.703298  0.029883307 
number of iterations: 1982 
   19800    55.075278      971          618          353 6.2133537e-13  3.37345e-14          0.1 0.0090101482    33.171803  0.029883077 
number of iterations: 1936 
   19900    55.313735      985          624          361 6.2956939e-13 3.4089681e-14          0.1 0.0090102871    33.646527  0.029882845 
number of iterations: 1957 
   20000    55.527989      994          628          366 6.3791252e-13 3.4449133e-14          0.1 0.0090104214    34.127554  0.029882621 
number of iterations: 1966 
   20100    55.744097     1011          640          371 6.4636622e-13 3.4812903e-14          0.1 0.0090105637    34.614967  0.029882384 
number of iterations: 1949 
   20200    56.017315     1029          653          376 6.5493195e-13 3.5181043e-14          0.1 0.0090107154     35.10885  0.029882131 
number of iterations: 1916 
   20300    56.240313     1039          661          378 6.636112e-13 3.5553602e-14          0.1 0.0090108444     35.60929  0.029881916 
number of iterations: 1931 
   20400      56.4618     1054          670          384 6.7240546e-13 3.5930632e-14          0.1   0.00901098    36.116375   0.02988169 
number of iterations: 1935 
   20500    56.697464     1065          678          387 6.8131626e-13 3.6312185e-14          0.1 0.0090111041    36.630194  0.029881483 
number of iterations: 1953 
   20600    56.912592     1078          687          391 6.9034515e-13 3.6698314e-14          0.1 0.0090112522    37.150834  0.029881236 
number of iterations: 1977 
   20700    57.132913     1096          699          397 6.9949369e-13 3.7089071e-14          0.1 0.0090113988    37.678387  0.029880992 
number of iterations: 1950 
   20800    57.370004     1105          705          400 7.0876347e-13 3.7484511e-14          0.1 0.0090115417    38.212943  0.029880754 
number of iterations: 1958 
   20900    57.583973     1117          710          407 7.1815609e-13 3.7884688e-14          0.1 0.0090116893    38.754597  0.029880508 
number of iterations: 1939 
   21000    57.808888     1130          719          411 7.2767319e-13 3.8289657e-14          0.1 0.0090118439    39.303443   0.02988025 
number of iterations: 1939 
   21100    58.026857     1140          724          416 7.373164e-13 3.8699472e-14          0.1  0.009011995    39.859576  0.029879998 
number of iterations: 1975 
   21200    58.236865     1160          738          422 7.4708741e-13 3.9114193e-14          0.1 0.0090121443    40.423092  0.029879749 
number of iterations: 1996 
   21300    58.484243     1167          742          425 7.569879e-13 3.9533874e-14          0.1 0.0090123242     40.99409  0.029879449 
number of iterations: 1995 
   21400    58.731171     1188          758          430 7.6701959e-13 3.9958573e-14          0.1 0.0090124879    41.572669  0.029879176 
number of iterations: 1930 
   21500    58.933777     1201          765          436 7.7718423e-13 4.038835e-14          0.1 0.0090126211     42.15893  0.029878954 
number of iterations: 1973 
   21600    59.146003     1213          773          440 7.8748357e-13 4.0823262e-14          0.1 0.0090127946    42.752975  0.029878664 
number of iterations: 1963 
   21700    59.398964     1236          790          446 7.9791939e-13 4.1263371e-14          0.1 0.0090129462    43.354908  0.029878412 
number of iterations: 1993 
   21800    59.606317     1241          795          446 8.0849351e-13 4.1708735e-14          0.1 0.0090131134    43.964834  0.029878133 
number of iterations: 2039 
   21900    59.819588     1255          808          447 8.1920776e-13 4.2159416e-14          0.1 0.0090132957    44.582857  0.029877829 
number of iterations: 2024 
   22000     60.02812     1269          817          452 8.3006399e-13 4.2615476e-14          0.1 0.0090134706    45.209087  0.029877537 
number of iterations: 2065 
   22100    60.247378     1281          826          455 8.4106409e-13 4.307698e-14          0.1 0.0090136623    45.843632  0.029877218 
number of iterations: 2017 
   22200    60.469463     1295          833          462 8.5220997e-13 4.3543988e-14          0.1 0.0090138486    46.486602  0.029876907 
number of iterations: 1969 
   22300    60.675866     1308          842          466 8.6350355e-13 4.4016567e-14          0.1 0.0090140205    47.138109  0.029876621 
number of iterations: 2020 
   22400    60.893082     1335          858          477 8.7494679e-13 4.4494781e-14          0.1 0.0090142279    47.798266  0.029876275 
number of iterations: 2014 
   22500    61.108255     1351          869          482 8.8654168e-13 4.4978697e-14          0.1 0.0090144099    48.467188  0.029875971 
number of iterations: 2011 
   22600    61.351084     1368          883          485 8.9829022e-13 4.546838e-14          0.1 0.0090146042    49.144992  0.029875647 
number of iterations: 2026 
   22700    61.567416     1384          895          489 9.1019446e-13 4.5963897e-14          0.1  0.009014805    49.831796  0.029875313 
number of iterations: 2002 
   22800    61.773334     1400          909          491 9.2225645e-13 4.6465317e-14          0.1  0.009014991     50.52772  0.029875003 
number of iterations: 2015 
   22900    61.988245     1413          917          496 9.3447829e-13 4.6972709e-14          0.1 0.0090151645    51.232883  0.029874713 
number of iterations: 2005 
   23000    62.221607     1431          928          503 9.4686209e-13 4.7486142e-14          0.1 0.0090153656     51.94741  0.029874378 
number of iterations: 2020 
   23100    62.452472     1444          937          507 9.5834587e-13 4.8005687e-14          0.1 0.0090155729    52.670609  0.029874033 
number of iterations: 2000 
   23200     62.69325     1466          953          513 9.7104596e-13 4.8531414e-14          0.1 0.0090157577    53.403409  0.029873724 
number of iterations: 1993 
   23300    62.923756     1483          965          518 9.8391436e-13 4.9063397e-14          0.1  0.009015949    54.145938  0.029873405 
number of iterations: 2039 
   23400    63.167464     1494          971          523 9.9695329e-13 4.9601709e-14          0.1 0.0090161744    54.898325   0.02987303 
number of iterations: 2007 
   23500     63.38946     1511          979          532 1.010165e-12 5.0146423e-14          0.1 0.0090163735    55.660701  0.029872698 
number of iterations: 2052 
   23600    63.632741     1535          999          536 1.0235518e-12 5.0697613e-14          0.1 0.0090166108      56.4332  0.029872302 
number of iterations: 2038 
   23700    63.866989     1561         1017          544 1.037116e-12 5.1255356e-14          0.1  0.009016806    57.215956  0.029871977 
number of iterations: 2060 
   23800    64.091737     1584         1031          553  1.05086e-12 5.1819727e-14          0.1 0.0090170337    58.009105  0.029871597 
number of iterations: 2059 
   23900     64.32618     1609         1050          559 1.0647861e-12 5.2390805e-14          0.1 0.0090172604    58.812785  0.029871219 
number of iterations: 2063 
   24000     64.54275     1628         1062          566 1.0788967e-12 5.2968669e-14          0.1 0.0090174916    59.627135  0.029870834 
number of iterations: 2041 
   24100    64.773182     1646         1073          573 1.0931943e-12 5.3553398e-14          0.1 0.0090177093    60.452298  0.029870471 
number of iterations: 2072 
   24200    64.988665     1670         1089          581 1.1076814e-12 5.4145072e-14          0.1 0.0090179502    61.288415  0.029870069 
number of iterations: 2085 
   24300    65.228761     1688         1102          586 1.1223605e-12 5.4743773e-14          0.1 0.0090181934    62.135634  0.029869664 
number of iterations: 2097 
   24400    65.456002     1709         1121          588 1.1372341e-12 5.5349583e-14          0.1 0.0090184682    62.994103  0.029869206 
number of iterations: 2086 
   24500    65.701578     1725         1134          591 1.1523049e-12 5.5962584e-14          0.1 0.0090187197    63.863969  0.029868786 
number of iterations: 2079 
   24600    65.957078     1745         1148          597 1.1675753e-12 5.6582862e-14          0.1  0.009018967    64.745385  0.029868374 
number of iterations: 2033 
   24700    66.176239     1769         1163          606 1.1830481e-12  5.72105e-14          0.1 0.0090192027    65.638503  0.029867981 
number of iterations: 2078 
   24800    66.430134     1800         1188          612 1.1987259e-12 5.7845587e-14          0.1 0.0090194559    66.543481  0.029867559 
number of iterations: 2054 
   24900    66.663169     1819         1201          618 1.2146115e-12 5.8488207e-14          0.1 0.0090197112    67.460475  0.029867133 
number of iterations: 2068 
   25000    66.881774     1840         1213          627 1.2307077e-12 5.9138449e-14          0.1 0.0090199572    68.389644  0.029866723 
number of iterations: 2060 
   25100    67.116757     1863         1234          629 1.2470171e-12 5.9796404e-14          0.1 0.0090202094     69.33115  0.029866303 
number of iterations: 2097 
   25200    67.348786     1880         1248          632 1.2635426e-12 6.046216e-14          0.1 0.0090204994    70.285156  0.029865819 
number of iterations: 2108 
   25300    67.606516     1904         1267          637 1.2802872e-12 6.1135811e-14          0.1 0.0090207773    71.251829  0.029865356 
number of iterations: 2070 
   25400    67.854871     1923         1281          642 1.2972536e-12 6.1817448e-14          0.1 0.0090210245    72.231336  0.029864944 
number of iterations: 2088 
   25500    68.076736     1948         1300          648 1.3144449e-12 6.2507165e-14          0.1 0.0090213107    73.223848  0.029864467 
number of iterations: 2088 
   25600    68.313578     1966         1310          656 1.331864e-12 6.3205056e-14          0.1 0.0090215606    74.229537   0.02986405 
number of iterations: 2096 
   25700    68.534867     1997         1333          664 1.349514e-12 6.3911216e-14          0.1  0.009021837    75.248579  0.029863589 
number of iterations: 2108 
   25800    68.760596     2028         1352          676 1.3673978e-12 6.4625744e-14          0.1 0.0090221277    76.281152  0.029863105 
number of iterations: 2116 
   25900    68.998612     2050         1370          680 1.3855187e-12 6.5348736e-14          0.1 0.0090224415    77.327435  0.029862582 
number of iterations: 2129 
   26000    69.229324     2071         1381          690 1.4038796e-12 6.6080291e-14          0.1 0.0090227581     78.38761  0.029862054 
number of iterations: 2112 
   26100    69.452666     2099         1401          698 1.4224839e-12 6.6820511e-14          0.1 0.0090230498     79.46186  0.029861567 
number of iterations: 2115 
   26200    69.718665     2125         1420          705 1.4413348e-12 6.7569498e-14          0.1 0.0090233633    80.550372  0.029861045 
number of iterations: 2131 
   26300    69.981379     2145         1433          712 1.4604354e-12 6.8327355e-14          0.1 0.0090236671    81.653335  0.029860538 
number of iterations: 2142 
   26400    70.239738     2168         1448          720 1.4797892e-12 6.9094184e-14          0.1 0.0090239992    82.770941  0.029859985 
number of iterations: 2128 
   26500    70.463635     2209         1478          731 1.4993994e-12 6.9870092e-14          0.1 0.0090243092    83.903385  0.029859468 
number of iterations: 2143 
   26600    70.698245     2238         1501          737 1.5192695e-12 7.0655186e-14          0.1 0.0090246534    85.050864  0.029858894 
number of iterations: 2159 
   26700    70.939682     2270         1521          749 1.5394029e-12 7.1449573e-14          0.1 0.0090249911    86.213576  0.029858331 
number of iterations: 2116 
   26800    71.186377     2297         1535          762 1.5588653e-12 7.225336e-14          0.1 0.0090253053    87.391007  0.029857808 
number of iterations: 2121 
   26900    71.427323     2329         1558          771 1.5795234e-12 7.3066657e-14          0.1 0.0090256375    88.584071  0.029857254 
number of iterations: 2125 
   27000    71.683745     2359         1579          780 1.5997186e-12 7.3889575e-14          0.1 0.0090259764    89.792414  0.029856689 
number of iterations: 2136 
   27100    71.923771     2392         1603          789 1.6209181e-12 7.4722229e-14          0.1 0.0090263277    91.016798  0.029856103 
number of iterations: 2149 
   27200    72.151168     2422         1623          799 1.6423986e-12 7.5564733e-14          0.1 0.0090266846    92.257438  0.029855508 
number of iterations: 2136 
   27300    72.382354     2457         1647          810 1.6641637e-12 7.6417202e-14          0.1 0.0090270446    93.514549  0.029854908 
number of iterations: 2185 
   27400    72.627617     2494         1665          829 1.6862172e-12 7.7279755e-14          0.1 0.0090274319    94.788348  0.029854263 
number of iterations: 2190 
   27500    72.892865     2512         1677          835 1.708563e-12 7.8152508e-14          0.1 0.0090278284    96.079059  0.029853602 
number of iterations: 2149 
   27600     73.12565     2544         1698          846 1.7312049e-12 7.9035581e-14          0.1 0.0090282144    97.386906  0.029852958 
number of iterations: 2157 
   27700    73.373944     2579         1714          865 1.7541469e-12 7.9929097e-14          0.1 0.0090285943    98.712115  0.029852325 
number of iterations: 2150 
   27800    73.607683     2613         1738          875 1.7773929e-12 8.0833175e-14          0.1 0.0090289762    100.05492  0.029851688 
number of iterations: 2175 
   27900    73.859116     2649         1759          890 1.8009469e-12 8.1747941e-14          0.1 0.0090293726    101.41555  0.029851028 
number of iterations: 2168 
   28000     74.09865     2683         1787          896 1.8234797e-12 8.2673522e-14          0.1 0.0090297637    102.79322  0.029850376 
number of iterations: 2125 
   28100    74.340213     2720         1817          903 1.8476445e-12 8.3610042e-14          0.1 0.0090301352    104.18918  0.029849756 
number of iterations: 2163 
   28200    74.569937     2751         1838          913 1.8721295e-12 8.4557631e-14          0.1 0.0090305437    105.60368  0.029849075 
number of iterations: 2145 
   28300    74.798454     2788         1866          922 1.8969389e-12 8.551642e-14          0.1 0.0090309124    107.03695  0.029848461 
number of iterations: 2169 
   28400    75.043247     2818         1887          931 1.9189133e-12 8.6486537e-14          0.1 0.0090313091    108.48685  0.029847799 
number of iterations: 2216 
   28500    75.294201     2857         1917          940 1.9443428e-12 8.7468116e-14          0.1 0.0090317227      109.956   0.02984711 
number of iterations: 2188 
   28600    75.573362     2892         1938          954 1.9701092e-12 8.8461294e-14          0.1 0.0090321717    111.44465  0.029846361 
number of iterations: 2202 
   28700    75.895281     2944         1973          971 1.9962171e-12 8.9466204e-14          0.1 0.0090325924    112.95307   0.02984566 
number of iterations: 2206 
   28800     76.14704     2971         1994          977 2.022671e-12 9.0482988e-14          0.1 0.0090330606     114.4815  0.029844879 
number of iterations: 2183 
   28900    76.415387     3003         2020          983 2.0494754e-12 9.1511781e-14          0.1 0.0090335072    116.03023  0.029844135 
number of iterations: 2178 
   29000    76.648517     3033         2042          991 2.076635e-12 9.2552725e-14          0.1 0.0090339364    117.59953   0.02984342 
number of iterations: 2182 
   29100    76.888657     3071         2071         1000 2.1041546e-12 9.3605964e-14          0.1 0.0090343606    119.18965  0.029842712 
number of iterations: 2194 
   29200    77.152275     3115         2106         1009 2.1320388e-12 9.4671642e-14          0.1 0.0090348349    120.80089  0.029841922 
number of iterations: 2217 
   29300    77.403471     3160         2141         1019 2.1602925e-12 9.5749907e-14          0.1 0.0090353203    122.43352  0.029841112 
number of iterations: 2201 
   29400    77.668147     3201         2174         1027 2.1889207e-12 9.6840903e-14          0.1 0.0090357748    124.08782  0.029840355 
number of iterations: 2213 
   29500    77.971582     3241         2198         1043 2.2159795e-12 9.7944779e-14          0.1 0.0090362409     125.7626  0.029839578 
number of iterations: 2217 
   29600    78.217435     3265         2215         1050 2.2431932e-12 9.9061684e-14          0.1 0.0090366662    127.45797  0.029838869 
number of iterations: 2199 
   29700    78.470558     3312         2247         1065 2.2719874e-12 1.0019178e-13          0.1  0.009037094    129.17513  0.029838155 
number of iterations: 2192 
   29800    78.730741     3343         2265         1078 2.3007203e-12 1.0133521e-13          0.1 0.0090375677    130.91404  0.029837366 
number of iterations: 2211 
   29900    78.990523     3396         2307         1089 2.3312093e-12 1.0249214e-13          0.1 0.0090380726    132.67603  0.029836524 
number of iterations: 2222 
   30000    79.227325     3435         2335         1100 2.3621024e-12 1.0366272e-13          0.1 0.0090385974    134.46142  0.029835649 
number of iterations: 2243 
   30100    79.491737     3481         2366         1115 2.3934049e-12 1.0484712e-13          0.1 0.0090391178    136.27051  0.029834782 
number of iterations: 2217 
   30200    79.755069     3526         2400         1126 2.4251222e-12 1.060455e-13          0.1 0.0090396544    138.10362  0.029833887 
number of iterations: 2251 
   30300    80.014667     3575         2430         1145 2.4572599e-12 1.0725803e-13          0.1 0.0090402116    139.96106  0.029832959 
number of iterations: 2237 
   30400     80.28273     3620         2465         1155 2.4898234e-12 1.0848486e-13          0.1 0.0090407668    141.84316  0.029832033 
number of iterations: 2253 
   30500    80.560131     3668         2496         1172 2.5228184e-12 1.0972617e-13          0.1  0.009041333    143.75026  0.029831089 
number of iterations: 2225 
   30600     80.81494     3696         2516         1180 2.554958e-12 1.1098213e-13          0.1 0.0090418629    145.68169  0.029830206 
number of iterations: 2206 
   30700    81.073048     3733         2546         1187 2.5877276e-12 1.1225291e-13          0.1 0.0090423911    147.63792  0.029829325 
number of iterations: 2227 
   30800    81.377197     3772         2575         1197 2.6220201e-12 1.1353868e-13          0.1 0.0090429575    149.62013  0.029828381 
number of iterations: 2255 
   30900    81.620221     3806         2598         1208 2.6567669e-12 1.1483962e-13          0.1 0.0090435144    151.62865  0.029827453 
number of iterations: 2250 
   31000    81.910214     3846         2629         1217 2.691121e-12 1.1615591e-13          0.1 0.0090440915    153.66318  0.029826491 
number of iterations: 2245 
   31100    82.172489     3899         2670         1229 2.7267835e-12 1.1748773e-13          0.1 0.0090446641    155.72472  0.029825536 
number of iterations: 2264 
   31200     82.44703     3956         2712         1244 2.7620812e-12 1.1883526e-13          0.1  0.009045271    157.81299  0.029824525 
number of iterations: 2261 
   31300    82.772048     4004         2750         1254 2.7965177e-12 1.2019868e-13          0.1 0.0090458338    159.92733  0.029823587 
number of iterations: 2243 
   31400    83.022464     4059         2788         1271 2.833577e-12 1.2157819e-13          0.1 0.0090464044    162.06973  0.029822635 
number of iterations: 2237 
   31500    83.275014     4116         2836         1280 2.8711273e-12 1.2297398e-13          0.1 0.0090469999    164.24057  0.029821642 
number of iterations: 2291 
   31600    83.532319     4172         2875         1297 2.9091753e-12 1.2438622e-13          0.1 0.0090476063    166.44023  0.029820632 
number of iterations: 2267 
   31700    83.779219     4226         2911         1315 2.9477274e-12 1.2581512e-13          0.1 0.0090482529    168.66909  0.029819554 
number of iterations: 2273 
   31800    84.041625     4283         2950         1333 2.985436e-12 1.2726088e-13          0.1 0.0090488612     170.9265   0.02981854 
number of iterations: 2280 
   31900    84.302997     4333         2979         1354 3.0249987e-12 1.2872368e-13          0.1 0.0090495106    173.21389  0.029817457 
number of iterations: 2268 
   32000    84.592449     4394         3024         1370 3.0636088e-12 1.3020373e-13          0.1  0.009050132    175.53051  0.029816421 
number of iterations: 2241 
   32100    84.843194     4437         3052         1385 3.1031046e-12 1.3170124e-13          0.1 0.0090507386    177.87704   0.02981541 
number of iterations: 2297 
   32200    85.104744     4495         3090         1405 3.1442266e-12 1.3321641e-13          0.1 0.0090514319    180.25472  0.029814254 
number of iterations: 2282 
   32300    85.386994     4548         3126         1422 3.1849588e-12 1.3474944e-13          0.1 0.0090521443    182.66327  0.029813067 
number of iterations: 2278 
   32400    85.665101     4613         3168         1445 3.2271655e-12 1.3630056e-13          0.1 0.0090528112    185.10379  0.029811955 
number of iterations: 2270 
   32500    85.990742     4675         3211         1464 3.2689267e-12 1.3786996e-13          0.1 0.0090534918    187.57596   0.02981082 
number of iterations: 2302 
   32600    86.248932     4743         3262         1481 3.3122461e-12 1.3945786e-13          0.1 0.0090542124    190.08094  0.029809619 
number of iterations: 2300 
   32700    86.524057     4798         3305         1493 3.3561396e-12 1.4106449e-13          0.1 0.0090549345    192.61918  0.029808416 
number of iterations: 2312 
   32800    86.806281     4864         3356         1508 3.398393e-12 1.4269006e-13          0.1 0.0090556648    195.18941  0.029807198 
number of iterations: 2289 
   32900    87.087228     4937         3403         1534 3.4426515e-12 1.443348e-13          0.1 0.0090563908    197.79316  0.029805988 
number of iterations: 2319 
   33000    87.357207     4996         3443         1553 3.4871866e-12 1.4599893e-13          0.1 0.0090571914    200.43066  0.029804654 
number of iterations: 2320 
   33100    87.637807     5063         3493         1570 3.5308657e-12 1.4768268e-13          0.1 0.0090579799    203.10124  0.029803339 
number of iterations: 2304 
   33200    87.961653     5127         3534         1593 3.5748229e-12 1.4938628e-13          0.1 0.0090587028    205.80509  0.029802134 
number of iterations: 2299 
   33300    88.231566     5194         3582         1612 3.6194732e-12 1.5110996e-13          0.1 0.0090594161    208.54277  0.029800945 
number of iterations: 2338 
   33400     88.49933     5268         3631         1637 3.6674379e-12 1.5285396e-13          0.1 0.0090601942    211.31679  0.029799648 
number of iterations: 2311 
   33500    88.789099     5329         3680         1649 3.7160383e-12 1.5461852e-13          0.1 0.0090609923    214.12763  0.029798318 
number of iterations: 2325 
   33600    89.057244     5390         3717         1673 3.7640684e-12 1.5640388e-13          0.1 0.0090618018    216.97484  0.029796968 
number of iterations: 2338 
   33700    89.330535     5455         3765         1690 3.8139493e-12 1.5813521e-13          0.1 0.0090626222    219.85987  0.029795601 
number of iterations: 2328 
   33800    89.612785     5521         3809         1712 3.8632465e-12 1.5996204e-13          0.1 0.0090634842    222.78226  0.029794164 
number of iterations: 2315 
   33900    89.927732     5588         3861         1727 3.9136894e-12 1.6181041e-13          0.1 0.0090643404    225.74285  0.029792737 
number of iterations: 2338 
   34000    90.201417     5646         3907         1739 3.965553e-12 1.6368057e-13          0.1  0.009065208    228.74275  0.029791291 
number of iterations: 2327 
   34100      90.4972     5704         3947         1757 4.0181038e-12 1.6557278e-13          0.1 0.0090660849    231.78249  0.029789829 
number of iterations: 2324 
   34200    90.775077     5780         4005         1775 4.0695035e-12 1.6748729e-13          0.1 0.0090669113    234.86117  0.029788451 
number of iterations: 2331 
   34300     91.03695     5872         4063         1809 4.1223515e-12 1.6942436e-13          0.1 0.0090677602     237.9799  0.029787036 
number of iterations: 2347 
   34400    91.355027     5928         4101         1827 4.1710491e-12 1.7138425e-13          0.1 0.0090686014    241.13552  0.029785634 
number of iterations: 2321 
   34500    91.622963     6007         4160         1847 4.226323e-12 1.7336725e-13          0.1 0.0090694789    244.33304  0.029784171 
number of iterations: 2352 
   34600    91.910913     6086         4215         1871 4.2802322e-12 1.7537362e-13          0.1 0.0090704035    247.57141   0.02978263 
number of iterations: 2364 
   34700    92.195597     6162         4270         1892 4.336953e-12 1.7740364e-13          0.1 0.0090713882    250.85277  0.029780989 
number of iterations: 2362 
   34800    92.492233     6259         4339         1920 4.3934695e-12 1.7945758e-13          0.1 0.0090723218    254.17696  0.029779432 
number of iterations: 2348 
   34900    92.823559     6328         4392         1936 4.4505343e-12 1.8153573e-13          0.1 0.0090732597    257.54442  0.029777869 
number of iterations: 2399 
   35000    93.147261     6396         4441         1955 4.507633e-12 1.8363837e-13          0.1   0.00907421    260.95514  0.029776285 
Loop time of 93.1473 on 32 procs for 35000 steps with 6396 atoms

Performance: 324647075.696 tau/day, 375.749 timesteps/s
92.4% CPU use with 32 MPI tasks x no OpenMP threads

MPI task timing breakdown:
Section |  min time  |  avg time  |  max time  |%varavg| %total
---------------------------------------------------------------
Pair    | 0.0020515  | 0.093148   | 0.23961    |  19.6 |  0.10
Neigh   | 0.0026151  | 0.030267   | 0.063746   |   9.7 |  0.03
Comm    | 0.033791   | 0.21048    | 0.32998    |  15.7 |  0.23
Output  | 21.983     | 21.983     | 21.99      |   0.0 | 23.60
Modify  | 70.247     | 70.318     | 70.386     |   0.4 | 75.49
Other   |            | 0.5122     |            |       |  0.55

Nlocal:    199.875 ave 411 max 0 min
Histogram: 3 1 2 5 7 5 1 3 3 2
Nghost:    115.938 ave 233 max 2 min
Histogram: 3 3 2 2 4 7 3 5 2 1
Neighs:    780.625 ave 1811 max 0 min
Histogram: 4 1 2 11 4 2 1 4 0 3

Total # of neighbors = 24980
Ave neighs/atom = 3.90557
Neighbor list builds = 711
Dangerous builds = 0
Total wall time: 0:01:33
