 NUFEB Simulation

     50 atoms 
     2 atom types 
     4 nutrients 

  0.0e-4   1.00e-04  xlo xhi 
  0.0e-4   1.00e-04  ylo yhi 
  0.0e-4   5.00e-05  zlo zhi 

 Atoms 

     1 1 1.72e-06  370 4.38e-05 9.72e-05 3.66e-05 1.72e-06 
     2 1 1.65e-06  370 8.52e-06 4.66e-05 1.17e-05 1.65e-06 
     3 1 1.50e-06  370 2.52e-05 4.08e-05 3.84e-05 1.50e-06 
     4 1 1.55e-06  370 2.54e-05 4.95e-05 2.97e-06 1.55e-06 
     5 1 1.70e-06  370 5.40e-05 8.75e-05 3.45e-05 1.70e-06 
     6 1 1.76e-06  370 7.19e-05 3.75e-06 1.05e-05 1.76e-06 
     7 1 1.81e-06  370 8.71e-05 9.71e-05 3.95e-06 1.81e-06 
     8 1 1.43e-06  370 5.91e-05 7.29e-05 3.81e-05 1.43e-06 
     9 1 1.92e-06  370 4.24e-05 3.03e-05 6.30e-06 1.92e-06 
     10 1 1.49e-06  370 6.49e-05 3.50e-05 3.03e-06 1.49e-06 
     11 1 1.92e-06  370 1.36e-05 8.63e-05 3.75e-05 1.92e-06 
     12 1 1.93e-06  370 2.85e-05 2.84e-05 4.41e-05 1.93e-06 
     13 1 1.75e-06  370 1.81e-05 3.82e-05 1.33e-05 1.75e-06 
     14 1 1.82e-06  370 3.44e-05 1.51e-05 3.71e-05 1.82e-06 
     15 1 1.44e-06  370 8.03e-05 7.18e-05 3.75e-05 1.44e-06 
     16 1 1.80e-06  370 7.83e-05 2.43e-06 4.40e-05 1.80e-06 
     17 1 1.61e-06  370 7.45e-05 4.47e-05 1.59e-05 1.61e-06 
     18 1 1.89e-06  370 1.36e-05 9.13e-05 2.26e-05 1.89e-06 
     19 1 1.86e-06  370 3.66e-05 1.75e-05 4.13e-05 1.86e-06 
     20 1 1.69e-06  370 9.88e-06 9.24e-05 4.17e-05 1.69e-06 
     21 1 1.57e-06  370 7.83e-05 1.38e-05 6.28e-06 1.57e-06 
     22 1 1.56e-06  370 7.25e-05 8.23e-05 4.08e-05 1.56e-06 
     23 1 1.39e-06  370 4.02e-05 3.58e-05 2.31e-05 1.39e-06 
     24 1 1.61e-06  370 9.09e-06 8.57e-05 2.18e-05 1.61e-06 
     25 1 1.73e-06  370 6.89e-05 6.41e-05 4.57e-05 1.73e-06 
     26 1 1.53e-06  370 1.58e-05 8.73e-05 1.69e-05 1.53e-06 
     27 1 1.76e-06  370 4.84e-05 5.84e-05 2.65e-05 1.76e-06 
     28 1 1.85e-06  370 6.36e-06 9.53e-05 2.44e-05 1.85e-06 
     29 1 1.78e-06  370 2.82e-06 6.58e-05 3.84e-05 1.78e-06 
     30 1 1.58e-06  370 7.12e-05 5.16e-05 3.74e-06 1.58e-06 
     31 1 1.89e-06  370 7.33e-05 8.78e-05 1.78e-05 1.89e-06 
     32 1 1.40e-06  370 4.75e-05 1.52e-05 4.34e-05 1.40e-06 
     33 1 1.85e-06  370 2.41e-05 5.93e-05 2.05e-05 1.85e-06 
     34 1 1.60e-06  370 4.59e-05 9.62e-05 3.71e-05 1.60e-06 
     35 1 1.75e-06  370 8.39e-05 4.83e-05 3.55e-05 1.75e-06 
     36 1 1.44e-06  370 3.88e-05 1.29e-05 2.05e-05 1.44e-06 
     37 1 1.56e-06  370 4.11e-05 8.09e-05 2.81e-05 1.56e-06 
     38 1 1.48e-06  370 7.69e-05 9.66e-06 2.26e-05 1.48e-06 
     39 1 1.66e-06  370 7.69e-05 4.01e-05 3.39e-05 1.66e-06 
     40 1 1.71e-06  370 4.55e-06 5.91e-05 7.47e-06 1.71e-06 
     41 1 1.67e-06  370 2.52e-05 6.83e-05 1.81e-05 1.67e-06 
     42 1 1.67e-06  370 9.58e-05 1.34e-05 5.93e-06 1.67e-06 
     43 1 1.78e-06  370 3.79e-05 7.31e-05 3.28e-05 1.78e-06 
     44 1 1.77e-06  370 3.52e-06 8.21e-05 4.01e-05 1.77e-06 
     45 1 1.67e-06  370 3.42e-05 1.74e-05 8.07e-06 1.67e-06 
     46 1 1.42e-06  370 7.60e-05 9.12e-05 1.01e-05 1.42e-06 
     47 1 1.67e-06  370 9.19e-05 7.82e-06 3.74e-05 1.67e-06 
     48 1 1.37e-06  370 3.47e-05 8.35e-05 3.11e-05 1.37e-06 
     49 1 1.82e-06  370 2.49e-05 9.46e-05 4.03e-05 1.82e-06 
     50 1 1.67e-06  370 3.72e-05 8.47e-06 3.18e-05 1.67e-06 

 Nutrients 

     1 sub g nn nn nn 1.00e-01 1.00e-01 
     2 o2 l nn nn nd 9.00e-03 9.00e-03 
     3 suc l nn nn nn 3.42e-20 3.42e-20 
     4 co2 l nn nn nd 2.99e-02 2.99e-02 

 Type Name 

     1 cyano  
     2 ecw  

 Diffusion Coeffs 

     sub 0 
     o2 2.3e-09 
     suc 5.2e-10 
     co2 1.9e-09 

 Growth Rate 

     cyano 2.047e-05 
     ecw 6.71e-05 

 Ks 

     cyano 0.00035 0.0002 0.01 0.000138 
     ecw 0 0.001 3.6 0.05 

 Yield 

     cyano 0.55 
     ecw 0.43 

 Maintenance 

     cyano 0 
     ecw 9.5e-07 

 Decay 

     cyano 0 
     ecw 0 



