ITEM: TIMESTEP
0
ITEM: NUMBER OF ATOMS
50
ITEM: BOX BOUNDS ff ff ff
0.0000000000000000e+00 1.0000000000000000e-04
0.0000000000000000e+00 1.0000000000000000e-04
0.0000000000000000e+00 5.0000000000000002e-05
ITEM: ATOMS id type diameter x y z 
43 1 1.48e-06 1.12e-05 2.65e-05 3.15e-06 
31 1 1.88e-06 3.26e-06 1.19e-05 6.01e-06 
6 1 1.78e-06 4.97e-05 2.6e-05 7.23e-06 
22 1 1.53e-06 2.95e-05 4.98e-05 7.66e-06 
42 1 1.64e-06 1.61e-05 2.41e-05 1.09e-05 
29 1 1.76e-06 1.41e-05 2.61e-05 2.06e-05 
47 1 1.53e-06 4.5e-05 9.14e-06 2.26e-05 
12 1 1.51e-06 4.99e-05 1.59e-05 2.69e-05 
49 1 1.67e-06 3.73e-05 1.5e-05 2.88e-05 
50 1 1.43e-06 4.66e-05 3.72e-05 2.97e-05 
11 1 1.92e-06 3.56e-05 1.03e-05 3.5e-05 
40 1 1.58e-06 4.65e-05 2.7e-05 3.5e-05 
41 1 1.46e-06 4.65e-05 4.28e-05 4.14e-05 
17 1 1.46e-06 1.28e-05 5.86e-06 4.3e-05 
38 1 1.81e-06 2.77e-05 2.91e-05 4.71e-05 
3 1 1.89e-06 4.66e-05 5.04e-05 1.07e-05 
9 1 1.42e-06 2.84e-05 7.9e-05 1.12e-05 
34 1 1.56e-06 8.43e-06 5.24e-05 1.19e-05 
26 1 1.41e-06 3.51e-06 9.16e-05 1.31e-05 
36 1 1.86e-06 2.51e-05 5.73e-05 1.74e-05 
37 1 1.48e-06 1.2e-05 7.03e-05 2.24e-05 
39 1 1.89e-06 1.66e-05 7.3e-05 2.26e-05 
13 1 1.84e-06 4.85e-05 5.38e-05 2.68e-05 
25 1 1.49e-06 4.33e-05 5.39e-05 3.3e-05 
33 1 1.65e-06 4.64e-05 6.08e-05 3.36e-05 
30 1 1.5e-06 2.49e-05 9.31e-05 3.61e-05 
10 1 1.54e-06 4.64e-06 6e-05 4.17e-05 
46 1 1.68e-06 8.08e-05 2.01e-05 7.27e-06 
20 1 1.7e-06 7.24e-05 1.5e-05 8.09e-06 
35 1 1.77e-06 7.43e-05 4.96e-05 8.35e-06 
5 1 1.65e-06 8.01e-05 4.02e-05 1.41e-05 
44 1 1.69e-06 6.41e-05 2.13e-05 2.09e-05 
23 1 1.72e-06 8.16e-05 4.76e-05 2.17e-05 
4 1 1.92e-06 8.13e-05 3.58e-05 2.21e-05 
28 1 1.74e-06 9.04e-05 3.15e-05 2.41e-05 
15 1 1.93e-06 5.83e-05 8.27e-06 2.64e-05 
48 1 1.63e-06 9.27e-05 2.76e-05 3.04e-05 
2 1 1.72e-06 9.7e-05 3.66e-05 3.28e-05 
7 1 1.44e-06 9.47e-05 3.62e-05 3.92e-05 
27 1 1.52e-06 7.74e-05 6.84e-05 3.32e-06 
21 1 1.68e-06 5.13e-05 5.74e-05 1.07e-05 
24 1 1.71e-06 5.78e-05 5.05e-05 1.12e-05 
14 1 1.76e-06 9.58e-05 9.55e-05 1.17e-05 
16 1 1.42e-06 8.06e-05 6.5e-05 1.86e-05 
32 1 1.59e-06 9.14e-05 9.18e-05 2.45e-05 
18 1 1.77e-06 7.26e-05 6.47e-05 2.71e-05 
19 1 1.63e-06 6.21e-05 8.62e-05 2.82e-05 
8 1 1.63e-06 5.38e-05 8.08e-05 2.95e-05 
45 1 1.67e-06 8.29e-05 7.31e-05 3.42e-05 
1 1 1.41e-06 7.62e-05 9.55e-05 4.72e-05 
ITEM: TIMESTEP
100
ITEM: NUMBER OF ATOMS
50
ITEM: BOX BOUNDS ff ff ff
0.0000000000000000e+00 1.0000000000000000e-04
0.0000000000000000e+00 1.0000000000000000e-04
0.0000000000000000e+00 5.0000000000000002e-05
ITEM: ATOMS id type diameter x y z 
43 1 1.48916e-06 1.12e-05 2.65e-05 3.15e-06 
31 1 1.89163e-06 3.26e-06 1.19e-05 6.01e-06 
6 1 1.79102e-06 4.97e-05 2.6e-05 7.23e-06 
22 1 1.53947e-06 2.95e-05 4.98e-05 7.66e-06 
42 1 1.65015e-06 1.61e-05 2.41e-05 1.09e-05 
29 1 1.77089e-06 1.41e-05 2.61e-05 2.06e-05 
47 1 1.53947e-06 4.5e-05 9.14e-06 2.26e-05 
12 1 1.51934e-06 4.99e-05 1.59e-05 2.69e-05 
49 1 1.68033e-06 3.73e-05 1.5e-05 2.88e-05 
50 1 1.43885e-06 4.66e-05 3.72e-05 2.97e-05 
11 1 1.93188e-06 3.56e-05 1.03e-05 3.5e-05 
40 1 1.58978e-06 4.65e-05 2.7e-05 3.5e-05 
41 1 1.46904e-06 4.65e-05 4.28e-05 4.14e-05 
17 1 1.46904e-06 1.28e-05 5.86e-06 4.3e-05 
38 1 1.8212e-06 2.77e-05 2.91e-05 4.71e-05 
3 1 1.9017e-06 4.66e-05 5.04e-05 1.07e-05 
9 1 1.42879e-06 2.84e-05 7.9e-05 1.12e-05 
34 1 1.56965e-06 8.43e-06 5.24e-05 1.19e-05 
26 1 1.41873e-06 3.51e-06 9.16e-05 1.31e-05 
36 1 1.87151e-06 2.51e-05 5.73e-05 1.74e-05 
37 1 1.48916e-06 1.2e-05 7.03e-05 2.24e-05 
39 1 1.9017e-06 1.66e-05 7.3e-05 2.26e-05 
13 1 1.85139e-06 4.85e-05 5.38e-05 2.68e-05 
25 1 1.49922e-06 4.33e-05 5.39e-05 3.3e-05 
33 1 1.66021e-06 4.64e-05 6.08e-05 3.36e-05 
30 1 1.50928e-06 2.49e-05 9.31e-05 3.61e-05 
10 1 1.54953e-06 4.64e-06 6e-05 4.17e-05 
46 1 1.6904e-06 8.08e-05 2.01e-05 7.27e-06 
20 1 1.71052e-06 7.24e-05 1.5e-05 8.09e-06 
35 1 1.78095e-06 7.43e-05 4.96e-05 8.35e-06 
5 1 1.66021e-06 8.01e-05 4.02e-05 1.41e-05 
44 1 1.70046e-06 6.41e-05 2.13e-05 2.09e-05 
23 1 1.73064e-06 8.16e-05 4.76e-05 2.17e-05 
4 1 1.93188e-06 8.13e-05 3.58e-05 2.21e-05 
28 1 1.75077e-06 9.04e-05 3.15e-05 2.41e-05 
15 1 1.94194e-06 5.83e-05 8.27e-06 2.64e-05 
48 1 1.64009e-06 9.27e-05 2.76e-05 3.04e-05 
2 1 1.73064e-06 9.7e-05 3.66e-05 3.28e-05 
7 1 1.44891e-06 9.47e-05 3.62e-05 3.92e-05 
27 1 1.52941e-06 7.74e-05 6.84e-05 3.32e-06 
21 1 1.6904e-06 5.13e-05 5.74e-05 1.07e-05 
24 1 1.72058e-06 5.78e-05 5.05e-05 1.12e-05 
14 1 1.77089e-06 9.58e-05 9.55e-05 1.17e-05 
16 1 1.42879e-06 8.06e-05 6.5e-05 1.86e-05 
32 1 1.59984e-06 9.14e-05 9.18e-05 2.45e-05 
18 1 1.78095e-06 7.26e-05 6.47e-05 2.71e-05 
19 1 1.64009e-06 6.21e-05 8.62e-05 2.82e-05 
8 1 1.64009e-06 5.38e-05 8.08e-05 2.95e-05 
45 1 1.68033e-06 8.29e-05 7.31e-05 3.42e-05 
1 1 1.41873e-06 7.62e-05 9.55e-05 4.72e-05 
ITEM: TIMESTEP
200
ITEM: NUMBER OF ATOMS
50
ITEM: BOX BOUNDS ff ff ff
0.0000000000000000e+00 1.0000000000000000e-04
0.0000000000000000e+00 1.0000000000000000e-04
0.0000000000000000e+00 5.0000000000000002e-05
ITEM: ATOMS id type diameter x y z 
43 1 1.49837e-06 1.12e-05 2.65e-05 3.15e-06 
31 1 1.90334e-06 3.26e-06 1.19e-05 6.01e-06 
6 1 1.8021e-06 4.97e-05 2.6e-05 7.23e-06 
22 1 1.549e-06 2.95e-05 4.98e-05 7.66e-06 
42 1 1.66036e-06 1.61e-05 2.41e-05 1.09e-05 
29 1 1.78185e-06 1.41e-05 2.61e-05 2.06e-05 
47 1 1.549e-06 4.5e-05 9.14e-06 2.26e-05 
12 1 1.52875e-06 4.99e-05 1.59e-05 2.69e-05 
49 1 1.69073e-06 3.73e-05 1.5e-05 2.88e-05 
50 1 1.44775e-06 4.66e-05 3.72e-05 2.97e-05 
11 1 1.94384e-06 3.56e-05 1.03e-05 3.5e-05 
40 1 1.59962e-06 4.65e-05 2.7e-05 3.5e-05 
41 1 1.47813e-06 4.65e-05 4.28e-05 4.14e-05 
17 1 1.47813e-06 1.28e-05 5.86e-06 4.3e-05 
38 1 1.83247e-06 2.77e-05 2.91e-05 4.71e-05 
3 1 1.91346e-06 4.66e-05 5.04e-05 1.07e-05 
9 1 1.43763e-06 2.84e-05 7.9e-05 1.12e-05 
34 1 1.57937e-06 8.43e-06 5.24e-05 1.19e-05 
26 1 1.42751e-06 3.51e-06 9.16e-05 1.31e-05 
36 1 1.88309e-06 2.51e-05 5.73e-05 1.74e-05 
37 1 1.49837e-06 1.2e-05 7.03e-05 2.24e-05 
39 1 1.91346e-06 1.66e-05 7.3e-05 2.26e-05 
13 1 1.86284e-06 4.85e-05 5.38e-05 2.68e-05 
25 1 1.5085e-06 4.33e-05 5.39e-05 3.3e-05 
33 1 1.67049e-06 4.64e-05 6.08e-05 3.36e-05 
30 1 1.51862e-06 2.49e-05 9.31e-05 3.61e-05 
10 1 1.55912e-06 4.64e-06 6e-05 4.17e-05 
46 1 1.70086e-06 8.08e-05 2.01e-05 7.27e-06 
20 1 1.72111e-06 7.24e-05 1.5e-05 8.09e-06 
35 1 1.79197e-06 7.43e-05 4.96e-05 8.35e-06 
5 1 1.67049e-06 8.01e-05 4.02e-05 1.41e-05 
44 1 1.71098e-06 6.41e-05 2.13e-05 2.09e-05 
23 1 1.74135e-06 8.16e-05 4.76e-05 2.17e-05 
4 1 1.94384e-06 8.13e-05 3.58e-05 2.21e-05 
28 1 1.7616e-06 9.04e-05 3.15e-05 2.41e-05 
15 1 1.95396e-06 5.83e-05 8.27e-06 2.64e-05 
48 1 1.65024e-06 9.27e-05 2.76e-05 3.04e-05 
2 1 1.74135e-06 9.7e-05 3.66e-05 3.28e-05 
7 1 1.45788e-06 9.47e-05 3.62e-05 3.92e-05 
27 1 1.53887e-06 7.74e-05 6.84e-05 3.32e-06 
21 1 1.70086e-06 5.13e-05 5.74e-05 1.07e-05 
24 1 1.73123e-06 5.78e-05 5.05e-05 1.12e-05 
14 1 1.78185e-06 9.58e-05 9.55e-05 1.17e-05 
16 1 1.43763e-06 8.06e-05 6.5e-05 1.86e-05 
32 1 1.60974e-06 9.14e-05 9.18e-05 2.45e-05 
18 1 1.79197e-06 7.26e-05 6.47e-05 2.71e-05 
19 1 1.65024e-06 6.21e-05 8.62e-05 2.82e-05 
8 1 1.65024e-06 5.38e-05 8.08e-05 2.95e-05 
45 1 1.69073e-06 8.29e-05 7.31e-05 3.42e-05 
1 1 1.42751e-06 7.62e-05 9.55e-05 4.72e-05 
ITEM: TIMESTEP
300
ITEM: NUMBER OF ATOMS
50
ITEM: BOX BOUNDS ff ff ff
0.0000000000000000e+00 1.0000000000000000e-04
0.0000000000000000e+00 1.0000000000000000e-04
0.0000000000000000e+00 5.0000000000000002e-05
ITEM: ATOMS id type diameter x y z 
43 1 1.50765e-06 1.12e-05 2.65e-05 3.15e-06 
31 1 1.91512e-06 3.26e-06 1.19e-05 6.01e-06 
6 1 1.81325e-06 4.97e-05 2.6e-05 7.23e-06 
22 1 1.55858e-06 2.95e-05 4.98e-05 7.66e-06 
42 1 1.67064e-06 1.61e-05 2.41e-05 1.09e-05 
29 1 1.79288e-06 1.41e-05 2.61e-05 2.06e-05 
47 1 1.55858e-06 4.5e-05 9.14e-06 2.26e-05 
12 1 1.53821e-06 4.99e-05 1.59e-05 2.69e-05 
49 1 1.7012e-06 3.73e-05 1.5e-05 2.88e-05 
50 1 1.45671e-06 4.66e-05 3.72e-05 2.97e-05 
11 1 1.95587e-06 3.56e-05 1.03e-05 3.5e-05 
40 1 1.60952e-06 4.65e-05 2.7e-05 3.5e-05 
41 1 1.48727e-06 4.65e-05 4.28e-05 4.14e-05 
17 1 1.48727e-06 1.28e-05 5.86e-06 4.3e-05 
38 1 1.84381e-06 2.77e-05 2.91e-05 4.71e-05 
3 1 1.92531e-06 4.66e-05 5.04e-05 1.07e-05 
9 1 1.44653e-06 2.84e-05 7.9e-05 1.12e-05 
34 1 1.58914e-06 8.43e-06 5.24e-05 1.19e-05 
26 1 1.43634e-06 3.51e-06 9.16e-05 1.31e-05 
36 1 1.89475e-06 2.51e-05 5.73e-05 1.74e-05 
37 1 1.50765e-06 1.2e-05 7.03e-05 2.24e-05 
39 1 1.92531e-06 1.66e-05 7.3e-05 2.26e-05 
13 1 1.87437e-06 4.85e-05 5.38e-05 2.68e-05 
25 1 1.51783e-06 4.33e-05 5.39e-05 3.3e-05 
33 1 1.68082e-06 4.64e-05 6.08e-05 3.36e-05 
30 1 1.52802e-06 2.49e-05 9.31e-05 3.61e-05 
10 1 1.56877e-06 4.64e-06 6e-05 4.17e-05 
46 1 1.71138e-06 8.08e-05 2.01e-05 7.27e-06 
20 1 1.73176e-06 7.24e-05 1.5e-05 8.09e-06 
35 1 1.80306e-06 7.43e-05 4.96e-05 8.35e-06 
5 1 1.68082e-06 8.01e-05 4.02e-05 1.41e-05 
44 1 1.72157e-06 6.41e-05 2.13e-05 2.09e-05 
23 1 1.75213e-06 8.16e-05 4.76e-05 2.17e-05 
4 1 1.95587e-06 8.13e-05 3.58e-05 2.21e-05 
28 1 1.7725e-06 9.04e-05 3.15e-05 2.41e-05 
15 1 1.96605e-06 5.83e-05 8.27e-06 2.64e-05 
48 1 1.66045e-06 9.27e-05 2.76e-05 3.04e-05 
2 1 1.75213e-06 9.7e-05 3.66e-05 3.28e-05 
7 1 1.4669e-06 9.47e-05 3.62e-05 3.92e-05 
27 1 1.54839e-06 7.74e-05 6.84e-05 3.32e-06 
21 1 1.71138e-06 5.13e-05 5.74e-05 1.07e-05 
24 1 1.74194e-06 5.78e-05 5.05e-05 1.12e-05 
14 1 1.79288e-06 9.58e-05 9.55e-05 1.17e-05 
16 1 1.44653e-06 8.06e-05 6.5e-05 1.86e-05 
32 1 1.6197e-06 9.14e-05 9.18e-05 2.45e-05 
18 1 1.80306e-06 7.26e-05 6.47e-05 2.71e-05 
19 1 1.66045e-06 6.21e-05 8.62e-05 2.82e-05 
8 1 1.66045e-06 5.38e-05 8.08e-05 2.95e-05 
45 1 1.7012e-06 8.29e-05 7.31e-05 3.42e-05 
1 1 1.43634e-06 7.62e-05 9.55e-05 4.72e-05 
ITEM: TIMESTEP
400
ITEM: NUMBER OF ATOMS
51
ITEM: BOX BOUNDS ff ff ff
0.0000000000000000e+00 1.0000000000000000e-04
0.0000000000000000e+00 1.0000000000000000e-04
0.0000000000000000e+00 5.0000000000000002e-05
ITEM: ATOMS id type diameter x y z 
43 1 1.51698e-06 1.12e-05 2.65e-05 3.15e-06 
31 1 1.92697e-06 3.26e-06 1.19e-05 6.01e-06 
6 1 1.82447e-06 4.97e-05 2.6e-05 7.23e-06 
22 1 1.56823e-06 2.95e-05 4.98e-05 7.66e-06 
42 1 1.68097e-06 1.61e-05 2.41e-05 1.09e-05 
29 1 1.80397e-06 1.41e-05 2.61e-05 2.06e-05 
47 1 1.56823e-06 4.5e-05 9.14e-06 2.26e-05 
12 1 1.54773e-06 4.99e-05 1.59e-05 2.69e-05 
49 1 1.71172e-06 3.73e-05 1.5e-05 2.88e-05 
50 1 1.46573e-06 4.66e-05 3.72e-05 2.97e-05 
11 1 1.96797e-06 3.56e-05 1.03e-05 3.5e-05 
40 1 1.61948e-06 4.65e-05 2.7e-05 3.5e-05 
41 1 1.49648e-06 4.65e-05 4.28e-05 4.14e-05 
17 1 1.49648e-06 1.28e-05 5.86e-06 4.3e-05 
38 1 1.85522e-06 2.77e-05 2.91e-05 4.71e-05 
3 1 1.93722e-06 4.66e-05 5.04e-05 1.07e-05 
9 1 1.45548e-06 2.84e-05 7.9e-05 1.12e-05 
34 1 1.59898e-06 8.43e-06 5.24e-05 1.19e-05 
26 1 1.44523e-06 3.51e-06 9.16e-05 1.31e-05 
36 1 1.90647e-06 2.51e-05 5.73e-05 1.74e-05 
37 1 1.51698e-06 1.2e-05 7.03e-05 2.24e-05 
39 1 1.93722e-06 1.66e-05 7.3e-05 2.26e-05 
13 1 1.88597e-06 4.85e-05 5.38e-05 2.68e-05 
25 1 1.52723e-06 4.33e-05 5.39e-05 3.3e-05 
33 1 1.69122e-06 4.64e-05 6.08e-05 3.36e-05 
30 1 1.53748e-06 2.49e-05 9.31e-05 3.61e-05 
10 1 1.57848e-06 4.64e-06 6e-05 4.17e-05 
46 1 1.72197e-06 8.08e-05 2.01e-05 7.27e-06 
20 1 1.74247e-06 7.24e-05 1.5e-05 8.09e-06 
35 1 1.81422e-06 7.43e-05 4.96e-05 8.35e-06 
5 1 1.69122e-06 8.01e-05 4.02e-05 1.41e-05 
44 1 1.73222e-06 6.41e-05 2.13e-05 2.09e-05 
23 1 1.76297e-06 8.16e-05 4.76e-05 2.17e-05 
4 1 1.96797e-06 8.13e-05 3.58e-05 2.21e-05 
28 1 1.78347e-06 9.04e-05 3.15e-05 2.41e-05 
15 1 1.53587e-06 5.86601e-05 8.57117e-06 2.70066e-05 
48 1 1.67072e-06 9.27e-05 2.76e-05 3.04e-05 
2 1 1.76297e-06 9.7e-05 3.66e-05 3.28e-05 
7 1 1.47598e-06 9.47e-05 3.62e-05 3.92e-05 
51 1 1.60292e-06 5.79242e-05 7.95568e-06 2.57669e-05 
27 1 1.55798e-06 7.74e-05 6.84e-05 3.32e-06 
21 1 1.72197e-06 5.13e-05 5.74e-05 1.07e-05 
24 1 1.75272e-06 5.78e-05 5.05e-05 1.12e-05 
14 1 1.80397e-06 9.58e-05 9.55e-05 1.17e-05 
16 1 1.45548e-06 8.06e-05 6.5e-05 1.86e-05 
32 1 1.62973e-06 9.14e-05 9.18e-05 2.45e-05 
18 1 1.81422e-06 7.26e-05 6.47e-05 2.71e-05 
19 1 1.67072e-06 6.21e-05 8.62e-05 2.82e-05 
8 1 1.67072e-06 5.38e-05 8.08e-05 2.95e-05 
45 1 1.71172e-06 8.29e-05 7.31e-05 3.42e-05 
1 1 1.44523e-06 7.62e-05 9.55e-05 4.72e-05 
ITEM: TIMESTEP
500
ITEM: NUMBER OF ATOMS
53
ITEM: BOX BOUNDS ff ff ff
0.0000000000000000e+00 1.0000000000000000e-04
0.0000000000000000e+00 1.0000000000000000e-04
0.0000000000000000e+00 5.0000000000000002e-05
ITEM: ATOMS id type diameter x y z 
43 1 1.52636e-06 1.12e-05 2.65e-05 3.15e-06 
31 1 1.9389e-06 3.26e-06 1.19e-05 6.01e-06 
6 1 1.83576e-06 4.97e-05 2.6e-05 7.23e-06 
22 1 1.57793e-06 2.95e-05 4.98e-05 7.66e-06 
42 1 1.69138e-06 1.61e-05 2.41e-05 1.09e-05 
29 1 1.81514e-06 1.41e-05 2.61e-05 2.06e-05 
47 1 1.57793e-06 4.5e-05 9.14e-06 2.26e-05 
12 1 1.5573e-06 4.99e-05 1.59e-05 2.69e-05 
49 1 1.72232e-06 3.73e-05 1.5e-05 2.88e-05 
50 1 1.4748e-06 4.66e-05 3.72e-05 2.97e-05 
11 1 1.53737e-06 3.59604e-05 1.06015e-05 3.56072e-05 
40 1 1.6295e-06 4.65e-05 2.7e-05 3.5e-05 
41 1 1.50574e-06 4.65e-05 4.28e-05 4.14e-05 
17 1 1.50574e-06 1.28e-05 5.86e-06 4.3e-05 
38 1 1.8667e-06 2.77e-05 2.91e-05 4.71e-05 
52 1 1.60449e-06 3.52238e-05 9.98538e-06 3.43663e-05 
3 1 1.94921e-06 4.66e-05 5.04e-05 1.07e-05 
9 1 1.46449e-06 2.84e-05 7.9e-05 1.12e-05 
34 1 1.60887e-06 8.43e-06 5.24e-05 1.19e-05 
26 1 1.45417e-06 3.51e-06 9.16e-05 1.31e-05 
36 1 1.91827e-06 2.51e-05 5.73e-05 1.74e-05 
37 1 1.52636e-06 1.2e-05 7.03e-05 2.24e-05 
39 1 1.94921e-06 1.66e-05 7.3e-05 2.26e-05 
13 1 1.89764e-06 4.85e-05 5.38e-05 2.68e-05 
25 1 1.53668e-06 4.33e-05 5.39e-05 3.3e-05 
33 1 1.70169e-06 4.64e-05 6.08e-05 3.36e-05 
30 1 1.54699e-06 2.49e-05 9.31e-05 3.61e-05 
10 1 1.58824e-06 4.64e-06 6e-05 4.17e-05 
46 1 1.73263e-06 8.08e-05 2.01e-05 7.27e-06 
20 1 1.75326e-06 7.24e-05 1.5e-05 8.09e-06 
35 1 1.82545e-06 7.43e-05 4.96e-05 8.35e-06 
5 1 1.70169e-06 8.01e-05 4.02e-05 1.41e-05 
44 1 1.74294e-06 6.41e-05 2.13e-05 2.09e-05 
23 1 1.77388e-06 8.16e-05 4.76e-05 2.17e-05 
4 1 1.53379e-06 8.13715e-05 3.60771e-05 2.13895e-05 
28 1 1.79451e-06 9.04e-05 3.15e-05 2.41e-05 
15 1 1.54538e-06 5.86601e-05 8.57117e-06 2.70066e-05 
48 1 1.68106e-06 9.27e-05 2.76e-05 3.04e-05 
2 1 1.77388e-06 9.7e-05 3.66e-05 3.28e-05 
7 1 1.48511e-06 9.47e-05 3.62e-05 3.92e-05 
51 1 1.61284e-06 5.79242e-05 7.95568e-06 2.57669e-05 
53 1 1.60776e-06 8.1225e-05 3.55096e-05 2.28448e-05 
27 1 1.56762e-06 7.74e-05 6.84e-05 3.32e-06 
21 1 1.73263e-06 5.13e-05 5.74e-05 1.07e-05 
24 1 1.76357e-06 5.78e-05 5.05e-05 1.12e-05 
14 1 1.81514e-06 9.58e-05 9.55e-05 1.17e-05 
16 1 1.46449e-06 8.06e-05 6.5e-05 1.86e-05 
32 1 1.63981e-06 9.14e-05 9.18e-05 2.45e-05 
18 1 1.82545e-06 7.26e-05 6.47e-05 2.71e-05 
19 1 1.68106e-06 6.21e-05 8.62e-05 2.82e-05 
8 1 1.68106e-06 5.38e-05 8.08e-05 2.95e-05 
45 1 1.72232e-06 8.29e-05 7.31e-05 3.42e-05 
1 1 1.45417e-06 7.62e-05 9.55e-05 4.72e-05 
ITEM: TIMESTEP
600
ITEM: NUMBER OF ATOMS
53
ITEM: BOX BOUNDS ff ff ff
0.0000000000000000e+00 1.0000000000000000e-04
0.0000000000000000e+00 1.0000000000000000e-04
0.0000000000000000e+00 5.0000000000000002e-05
ITEM: ATOMS id type diameter x y z 
43 1 1.53581e-06 1.12e-05 2.65e-05 3.15e-06 
31 1 1.95089e-06 3.26e-06 1.19e-05 6.01e-06 
6 1 1.84712e-06 4.97e-05 2.6e-05 7.23e-06 
22 1 1.5877e-06 2.95e-05 4.98e-05 7.66e-06 
42 1 1.70184e-06 1.61e-05 2.41e-05 1.09e-05 
29 1 1.82637e-06 1.41e-05 2.61e-05 2.06e-05 
47 1 1.5877e-06 4.5e-05 9.14e-06 2.26e-05 
12 1 1.56694e-06 4.99e-05 1.59e-05 2.69e-05 
49 1 1.73298e-06 3.73e-05 1.5e-05 2.88e-05 
50 1 1.48393e-06 4.66e-05 3.72e-05 2.97e-05 
11 1 1.54689e-06 3.59604e-05 1.06015e-05 3.56072e-05 
40 1 1.63958e-06 4.65e-05 2.7e-05 3.5e-05 
41 1 1.51506e-06 4.65e-05 4.28e-05 4.14e-05 
17 1 1.51506e-06 1.28e-05 5.86e-06 4.3e-05 
38 1 1.87826e-06 2.77e-05 2.91e-05 4.71e-05 
52 1 1.61442e-06 3.52238e-05 9.98538e-06 3.43663e-05 
3 1 1.96127e-06 4.66e-05 5.04e-05 1.07e-05 
9 1 1.47355e-06 2.84e-05 7.9e-05 1.12e-05 
34 1 1.61883e-06 8.43e-06 5.24e-05 1.19e-05 
26 1 1.46317e-06 3.51e-06 9.16e-05 1.31e-05 
36 1 1.93014e-06 2.51e-05 5.73e-05 1.74e-05 
37 1 1.53581e-06 1.2e-05 7.03e-05 2.24e-05 
39 1 1.96127e-06 1.66e-05 7.3e-05 2.26e-05 
13 1 1.90939e-06 4.85e-05 5.38e-05 2.68e-05 
25 1 1.54619e-06 4.33e-05 5.39e-05 3.3e-05 
33 1 1.71222e-06 4.64e-05 6.08e-05 3.36e-05 
30 1 1.55656e-06 2.49e-05 9.31e-05 3.61e-05 
10 1 1.59807e-06 4.64e-06 6e-05 4.17e-05 
46 1 1.74335e-06 8.08e-05 2.01e-05 7.27e-06 
20 1 1.76411e-06 7.24e-05 1.5e-05 8.09e-06 
35 1 1.83675e-06 7.43e-05 4.96e-05 8.35e-06 
5 1 1.71222e-06 8.01e-05 4.02e-05 1.41e-05 
44 1 1.75373e-06 6.41e-05 2.13e-05 2.09e-05 
23 1 1.78486e-06 8.16e-05 4.76e-05 2.17e-05 
4 1 1.54329e-06 8.13715e-05 3.60771e-05 2.13895e-05 
28 1 1.80562e-06 9.04e-05 3.15e-05 2.41e-05 
15 1 1.55494e-06 5.86601e-05 8.57117e-06 2.70066e-05 
48 1 1.69147e-06 9.27e-05 2.76e-05 3.04e-05 
2 1 1.78486e-06 9.7e-05 3.66e-05 3.28e-05 
7 1 1.4943e-06 9.47e-05 3.62e-05 3.92e-05 
51 1 1.62282e-06 5.79242e-05 7.95568e-06 2.57669e-05 
53 1 1.61771e-06 8.1225e-05 3.55096e-05 2.28448e-05 
27 1 1.57732e-06 7.74e-05 6.84e-05 3.32e-06 
21 1 1.74335e-06 5.13e-05 5.74e-05 1.07e-05 
24 1 1.77448e-06 5.78e-05 5.05e-05 1.12e-05 
14 1 1.82637e-06 9.58e-05 9.55e-05 1.17e-05 
16 1 1.47355e-06 8.06e-05 6.5e-05 1.86e-05 
32 1 1.64996e-06 9.14e-05 9.18e-05 2.45e-05 
18 1 1.83675e-06 7.26e-05 6.47e-05 2.71e-05 
19 1 1.69147e-06 6.21e-05 8.62e-05 2.82e-05 
8 1 1.69147e-06 5.38e-05 8.08e-05 2.95e-05 
45 1 1.73298e-06 8.29e-05 7.31e-05 3.42e-05 
1 1 1.46317e-06 7.62e-05 9.55e-05 4.72e-05 
ITEM: TIMESTEP
700
ITEM: NUMBER OF ATOMS
55
ITEM: BOX BOUNDS ff ff ff
0.0000000000000000e+00 1.0000000000000000e-04
0.0000000000000000e+00 1.0000000000000000e-04
0.0000000000000000e+00 5.0000000000000002e-05
ITEM: ATOMS id type diameter x y z 
43 1 1.54531e-06 1.12e-05 2.65e-05 3.15e-06 
31 1 1.96297e-06 3.26e-06 1.19e-05 6.01e-06 
6 1 1.85855e-06 4.97e-05 2.6e-05 7.23e-06 
22 1 1.59752e-06 2.95e-05 4.98e-05 7.66e-06 
42 1 1.71238e-06 1.61e-05 2.41e-05 1.09e-05 
29 1 1.83767e-06 1.41e-05 2.61e-05 2.06e-05 
47 1 1.59752e-06 4.5e-05 9.14e-06 2.26e-05 
12 1 1.57664e-06 4.99e-05 1.59e-05 2.69e-05 
49 1 1.7437e-06 3.73e-05 1.5e-05 2.88e-05 
50 1 1.49311e-06 4.66e-05 3.72e-05 2.97e-05 
11 1 1.55646e-06 3.59604e-05 1.06015e-05 3.56072e-05 
40 1 1.64973e-06 4.65e-05 2.7e-05 3.5e-05 
41 1 1.52443e-06 4.65e-05 4.28e-05 4.14e-05 
17 1 1.52443e-06 1.28e-05 5.86e-06 4.3e-05 
38 1 1.88988e-06 2.77e-05 2.91e-05 4.71e-05 
52 1 1.62441e-06 3.52238e-05 9.98538e-06 3.43663e-05 
3 1 1.53214e-06 4.69592e-05 5.07004e-05 1.13051e-05 
9 1 1.48267e-06 2.84e-05 7.9e-05 1.12e-05 
34 1 1.62885e-06 8.43e-06 5.24e-05 1.19e-05 
26 1 1.47223e-06 3.51e-06 9.16e-05 1.31e-05 
36 1 1.94209e-06 2.51e-05 5.73e-05 1.74e-05 
54 1 1.59902e-06 4.62251e-05 5.00864e-05 1.00684e-05 
37 1 1.54531e-06 1.2e-05 7.03e-05 2.24e-05 
39 1 1.53214e-06 1.69592e-05 7.33004e-05 2.32051e-05 
13 1 1.9212e-06 4.85e-05 5.38e-05 2.68e-05 
25 1 1.55576e-06 4.33e-05 5.39e-05 3.3e-05 
33 1 1.72282e-06 4.64e-05 6.08e-05 3.36e-05 
30 1 1.5662e-06 2.49e-05 9.31e-05 3.61e-05 
10 1 1.60796e-06 4.64e-06 6e-05 4.17e-05 
55 1 1.59902e-06 1.62251e-05 7.26864e-05 2.19684e-05 
46 1 1.75414e-06 8.08e-05 2.01e-05 7.27e-06 
20 1 1.77502e-06 7.24e-05 1.5e-05 8.09e-06 
35 1 1.84811e-06 7.43e-05 4.96e-05 8.35e-06 
5 1 1.72282e-06 8.01e-05 4.02e-05 1.41e-05 
44 1 1.76458e-06 6.41e-05 2.13e-05 2.09e-05 
23 1 1.79591e-06 8.16e-05 4.76e-05 2.17e-05 
4 1 1.55284e-06 8.13715e-05 3.60771e-05 2.13895e-05 
28 1 1.81679e-06 9.04e-05 3.15e-05 2.41e-05 
15 1 1.56456e-06 5.86695e-05 8.57902e-06 2.70224e-05 
48 1 1.70193e-06 9.27e-05 2.76e-05 3.04e-05 
2 1 1.79591e-06 9.7e-05 3.66e-05 3.28e-05 
7 1 1.50355e-06 9.47e-05 3.62e-05 3.92e-05 
51 1 1.63287e-06 5.79148e-05 7.94783e-06 2.57511e-05 
53 1 1.62772e-06 8.1225e-05 3.55096e-05 2.28448e-05 
27 1 1.58708e-06 7.74e-05 6.84e-05 3.32e-06 
21 1 1.75414e-06 5.13e-05 5.74e-05 1.07e-05 
24 1 1.78547e-06 5.78e-05 5.05e-05 1.12e-05 
14 1 1.83767e-06 9.58e-05 9.55e-05 1.17e-05 
16 1 1.48267e-06 8.06e-05 6.5e-05 1.86e-05 
32 1 1.66017e-06 9.14e-05 9.18e-05 2.45e-05 
18 1 1.84811e-06 7.26e-05 6.47e-05 2.71e-05 
19 1 1.70193e-06 6.21e-05 8.62e-05 2.82e-05 
8 1 1.70193e-06 5.38e-05 8.08e-05 2.95e-05 
45 1 1.7437e-06 8.29e-05 7.31e-05 3.42e-05 
1 1 1.47223e-06 7.62e-05 9.55e-05 4.72e-05 
ITEM: TIMESTEP
800
ITEM: NUMBER OF ATOMS
56
ITEM: BOX BOUNDS ff ff ff
0.0000000000000000e+00 1.0000000000000000e-04
0.0000000000000000e+00 1.0000000000000000e-04
0.0000000000000000e+00 5.0000000000000002e-05
ITEM: ATOMS id type diameter x y z 
43 1 1.55488e-06 1.12e-05 2.65e-05 3.15e-06 
31 1 1.53346e-06 3.61951e-06 1.22007e-05 6.61566e-06 
6 1 1.87006e-06 4.97e-05 2.6e-05 7.23e-06 
22 1 1.60741e-06 2.95e-05 4.98e-05 7.66e-06 
42 1 1.72297e-06 1.61e-05 2.41e-05 1.09e-05 
56 1 1.60041e-06 2.8848e-06 1.15862e-05 5.3779e-06 
29 1 1.84904e-06 1.41e-05 2.61e-05 2.06e-05 
47 1 1.60741e-06 4.5e-05 9.14e-06 2.26e-05 
12 1 1.5864e-06 4.99e-05 1.59e-05 2.69e-05 
49 1 1.75449e-06 3.73e-05 1.5e-05 2.88e-05 
50 1 1.50235e-06 4.66e-05 3.72e-05 2.97e-05 
11 1 1.56609e-06 3.59698e-05 1.06093e-05 3.5623e-05 
40 1 1.65994e-06 4.65e-05 2.7e-05 3.5e-05 
41 1 1.53387e-06 4.65e-05 4.28e-05 4.14e-05 
17 1 1.53387e-06 1.28e-05 5.86e-06 4.3e-05 
38 1 1.90157e-06 2.77e-05 2.91e-05 4.71e-05 
52 1 1.63446e-06 3.52145e-05 9.97752e-06 3.43505e-05 
3 1 1.54162e-06 4.69592e-05 5.07004e-05 1.13051e-05 
9 1 1.49184e-06 2.84e-05 7.9e-05 1.12e-05 
34 1 1.63893e-06 8.43e-06 5.24e-05 1.19e-05 
26 1 1.48134e-06 3.51e-06 9.16e-05 1.31e-05 
36 1 1.9541e-06 2.51e-05 5.73e-05 1.74e-05 
54 1 1.60892e-06 4.62251e-05 5.00864e-05 1.00684e-05 
37 1 1.55488e-06 1.2e-05 7.03e-05 2.24e-05 
39 1 1.54162e-06 1.69592e-05 7.33004e-05 2.32051e-05 
13 1 1.93309e-06 4.85e-05 5.38e-05 2.68e-05 
25 1 1.56538e-06 4.33e-05 5.39e-05 3.3e-05 
33 1 1.73348e-06 4.64e-05 6.08e-05 3.36e-05 
30 1 1.57589e-06 2.49e-05 9.31e-05 3.61e-05 
10 1 1.61791e-06 4.64e-06 6e-05 4.17e-05 
55 1 1.60892e-06 1.62251e-05 7.26864e-05 2.19684e-05 
46 1 1.765e-06 8.08e-05 2.01e-05 7.27e-06 
20 1 1.78601e-06 7.24e-05 1.5e-05 8.09e-06 
35 1 1.85955e-06 7.43e-05 4.96e-05 8.35e-06 
5 1 1.73348e-06 8.01e-05 4.02e-05 1.41e-05 
44 1 1.7755e-06 6.41e-05 2.13e-05 2.09e-05 
23 1 1.80702e-06 8.16e-05 4.76e-05 2.17e-05 
4 1 1.56245e-06 8.13734e-05 3.60843e-05 2.13709e-05 
28 1 1.82803e-06 9.04e-05 3.15e-05 2.41e-05 
15 1 1.57425e-06 5.86695e-05 8.57902e-06 2.70224e-05 
48 1 1.71247e-06 9.27e-05 2.76e-05 3.04e-05 
2 1 1.80702e-06 9.7e-05 3.66e-05 3.28e-05 
7 1 1.51285e-06 9.47e-05 3.62e-05 3.92e-05 
51 1 1.64297e-06 5.79148e-05 7.94783e-06 2.57511e-05 
53 1 1.63779e-06 8.12231e-05 3.55023e-05 2.28633e-05 
27 1 1.5969e-06 7.74e-05 6.84e-05 3.32e-06 
21 1 1.765e-06 5.13e-05 5.74e-05 1.07e-05 
24 1 1.79651e-06 5.78e-05 5.05e-05 1.12e-05 
14 1 1.84904e-06 9.58e-05 9.55e-05 1.17e-05 
16 1 1.49184e-06 8.06e-05 6.5e-05 1.86e-05 
32 1 1.67044e-06 9.14e-05 9.18e-05 2.45e-05 
18 1 1.85955e-06 7.26e-05 6.47e-05 2.71e-05 
19 1 1.71247e-06 6.21e-05 8.62e-05 2.82e-05 
8 1 1.71247e-06 5.38e-05 8.08e-05 2.95e-05 
45 1 1.75449e-06 8.29e-05 7.31e-05 3.42e-05 
1 1 1.48134e-06 7.62e-05 9.55e-05 4.72e-05 
ITEM: TIMESTEP
900
ITEM: NUMBER OF ATOMS
56
ITEM: BOX BOUNDS ff ff ff
0.0000000000000000e+00 1.0000000000000000e-04
0.0000000000000000e+00 1.0000000000000000e-04
0.0000000000000000e+00 5.0000000000000002e-05
ITEM: ATOMS id type diameter x y z 
43 1 1.5645e-06 1.12e-05 2.65e-05 3.15e-06 
31 1 1.54295e-06 3.61951e-06 1.22007e-05 6.61566e-06 
6 1 1.88163e-06 4.97e-05 2.6e-05 7.23e-06 
22 1 1.61736e-06 2.95e-05 4.98e-05 7.66e-06 
42 1 1.73364e-06 1.61e-05 2.41e-05 1.09e-05 
56 1 1.61031e-06 2.8848e-06 1.15862e-05 5.3779e-06 
29 1 1.86049e-06 1.41e-05 2.61e-05 2.06e-05 
47 1 1.61736e-06 4.5e-05 9.14e-06 2.26e-05 
12 1 1.59621e-06 4.99e-05 1.59e-05 2.69e-05 
49 1 1.76535e-06 3.73e-05 1.5e-05 2.88e-05 
50 1 1.51165e-06 4.66e-05 3.72e-05 2.97e-05 
11 1 1.57578e-06 3.59698e-05 1.06093e-05 3.5623e-05 
40 1 1.67021e-06 4.65e-05 2.7e-05 3.5e-05 
41 1 1.54336e-06 4.65e-05 4.28e-05 4.14e-05 
17 1 1.54336e-06 1.28e-05 5.86e-06 4.3e-05 
38 1 1.91334e-06 2.77e-05 2.91e-05 4.71e-05 
52 1 1.64457e-06 3.52145e-05 9.97752e-06 3.43505e-05 
3 1 1.55116e-06 4.69592e-05 5.07004e-05 1.13051e-05 
9 1 1.50107e-06 2.84e-05 7.9e-05 1.12e-05 
34 1 1.64907e-06 8.43e-06 5.24e-05 1.19e-05 
26 1 1.4905e-06 3.51e-06 9.16e-05 1.31e-05 
36 1 1.9662e-06 2.51e-05 5.73e-05 1.74e-05 
54 1 1.61888e-06 4.62251e-05 5.00864e-05 1.00684e-05 
37 1 1.5645e-06 1.2e-05 7.03e-05 2.24e-05 
39 1 1.55116e-06 1.69592e-05 7.33004e-05 2.32051e-05 
13 1 1.94505e-06 4.85e-05 5.38e-05 2.68e-05 
25 1 1.57507e-06 4.33e-05 5.39e-05 3.3e-05 
33 1 1.74421e-06 4.64e-05 6.08e-05 3.36e-05 
30 1 1.58564e-06 2.49e-05 9.31e-05 3.61e-05 
10 1 1.62793e-06 4.64e-06 6e-05 4.17e-05 
55 1 1.61888e-06 1.62251e-05 7.26864e-05 2.19684e-05 
46 1 1.77592e-06 8.08e-05 2.01e-05 7.27e-06 
20 1 1.79706e-06 7.24e-05 1.5e-05 8.09e-06 
35 1 1.87106e-06 7.43e-05 4.96e-05 8.35e-06 
5 1 1.74421e-06 8.01e-05 4.02e-05 1.41e-05 
44 1 1.78649e-06 6.41e-05 2.13e-05 2.09e-05 
23 1 1.8182e-06 8.16e-05 4.76e-05 2.17e-05 
4 1 1.57212e-06 8.13734e-05 3.60843e-05 2.13709e-05 
28 1 1.83934e-06 9.04e-05 3.15e-05 2.41e-05 
15 1 1.58399e-06 5.86695e-05 8.57902e-06 2.70224e-05 
48 1 1.72306e-06 9.27e-05 2.76e-05 3.04e-05 
2 1 1.8182e-06 9.7e-05 3.66e-05 3.28e-05 
7 1 1.52222e-06 9.47e-05 3.62e-05 3.92e-05 
51 1 1.65314e-06 5.79148e-05 7.94783e-06 2.57511e-05 
53 1 1.64793e-06 8.12231e-05 3.55023e-05 2.28633e-05 
27 1 1.60678e-06 7.74e-05 6.84e-05 3.32e-06 
21 1 1.77592e-06 5.13e-05 5.74e-05 1.07e-05 
24 1 1.80763e-06 5.78e-05 5.05e-05 1.12e-05 
14 1 1.86049e-06 9.58e-05 9.55e-05 1.17e-05 
16 1 1.50107e-06 8.06e-05 6.5e-05 1.86e-05 
32 1 1.68078e-06 9.14e-05 9.18e-05 2.45e-05 
18 1 1.87106e-06 7.26e-05 6.47e-05 2.71e-05 
19 1 1.72306e-06 6.21e-05 8.62e-05 2.82e-05 
8 1 1.72306e-06 5.38e-05 8.08e-05 2.95e-05 
45 1 1.76535e-06 8.29e-05 7.31e-05 3.42e-05 
1 1 1.4905e-06 7.62e-05 9.55e-05 4.72e-05 
ITEM: TIMESTEP
1000
ITEM: NUMBER OF ATOMS
57
ITEM: BOX BOUNDS ff ff ff
0.0000000000000000e+00 1.0000000000000000e-04
0.0000000000000000e+00 1.0000000000000000e-04
0.0000000000000000e+00 5.0000000000000002e-05
ITEM: ATOMS id type diameter x y z 
43 1 1.57418e-06 1.12e-05 2.65e-05 3.15e-06 
56 1 1.62028e-06 2.8848e-06 1.15862e-05 5.3779e-06 
31 1 1.5525e-06 3.61951e-06 1.22007e-05 6.61566e-06 
6 1 1.89327e-06 4.97e-05 2.6e-05 7.23e-06 
22 1 1.62736e-06 2.95e-05 4.98e-05 7.66e-06 
42 1 1.74436e-06 1.61e-05 2.41e-05 1.09e-05 
29 1 1.872e-06 1.41e-05 2.61e-05 2.06e-05 
47 1 1.62736e-06 4.5e-05 9.14e-06 2.26e-05 
12 1 1.60609e-06 4.99e-05 1.59e-05 2.69e-05 
49 1 1.77627e-06 3.73e-05 1.5e-05 2.88e-05 
50 1 1.521e-06 4.66e-05 3.72e-05 2.97e-05 
52 1 1.65475e-06 3.52145e-05 9.97752e-06 3.43505e-05 
40 1 1.68055e-06 4.65e-05 2.7e-05 3.5e-05 
11 1 1.58553e-06 3.59698e-05 1.06093e-05 3.5623e-05 
41 1 1.55291e-06 4.65e-05 4.28e-05 4.14e-05 
17 1 1.55291e-06 1.28e-05 5.86e-06 4.3e-05 
38 1 1.92518e-06 2.77e-05 2.91e-05 4.71e-05 
54 1 1.6289e-06 4.62157e-05 5.00786e-05 1.00526e-05 
3 1 1.56076e-06 4.69686e-05 5.07083e-05 1.1321e-05 
9 1 1.51036e-06 2.84e-05 7.9e-05 1.12e-05 
34 1 1.65927e-06 8.43e-06 5.24e-05 1.19e-05 
26 1 1.49973e-06 3.51e-06 9.16e-05 1.31e-05 
36 1 1.53241e-06 2.51715e-05 5.75768e-05 1.66901e-05 
57 1 1.60631e-06 2.50251e-05 5.70098e-05 1.81441e-05 
55 1 1.6289e-06 1.62157e-05 7.26786e-05 2.19526e-05 
37 1 1.57418e-06 1.2e-05 7.03e-05 2.24e-05 
39 1 1.56076e-06 1.69686e-05 7.33083e-05 2.3221e-05 
13 1 1.95709e-06 4.85e-05 5.38e-05 2.68e-05 
25 1 1.58482e-06 4.33e-05 5.39e-05 3.3e-05 
33 1 1.755e-06 4.64e-05 6.08e-05 3.36e-05 
30 1 1.59545e-06 2.49e-05 9.31e-05 3.61e-05 
10 1 1.638e-06 4.64e-06 6e-05 4.17e-05 
46 1 1.78691e-06 8.08e-05 2.01e-05 7.27e-06 
20 1 1.80818e-06 7.24e-05 1.5e-05 8.09e-06 
35 1 1.88264e-06 7.43e-05 4.96e-05 8.35e-06 
5 1 1.755e-06 8.01e-05 4.02e-05 1.41e-05 
44 1 1.79755e-06 6.41e-05 2.13e-05 2.09e-05 
4 1 1.58184e-06 8.13734e-05 3.60843e-05 2.13709e-05 
23 1 1.82945e-06 8.16e-05 4.76e-05 2.17e-05 
53 1 1.65812e-06 8.12231e-05 3.55023e-05 2.28633e-05 
28 1 1.85073e-06 9.04e-05 3.15e-05 2.41e-05 
51 1 1.66337e-06 5.79148e-05 7.94783e-06 2.57511e-05 
15 1 1.59379e-06 5.86695e-05 8.57902e-06 2.70224e-05 
48 1 1.73373e-06 9.27e-05 2.76e-05 3.04e-05 
2 1 1.82945e-06 9.7e-05 3.66e-05 3.28e-05 
7 1 1.53164e-06 9.47e-05 3.62e-05 3.92e-05 
27 1 1.61673e-06 7.74e-05 6.84e-05 3.32e-06 
21 1 1.78691e-06 5.13e-05 5.74e-05 1.07e-05 
24 1 1.81882e-06 5.78e-05 5.05e-05 1.12e-05 
14 1 1.872e-06 9.58e-05 9.55e-05 1.17e-05 
16 1 1.51036e-06 8.06e-05 6.5e-05 1.86e-05 
32 1 1.69118e-06 9.14e-05 9.18e-05 2.45e-05 
18 1 1.88264e-06 7.26e-05 6.47e-05 2.71e-05 
19 1 1.73373e-06 6.21e-05 8.62e-05 2.82e-05 
8 1 1.73373e-06 5.38e-05 8.08e-05 2.95e-05 
45 1 1.77627e-06 8.29e-05 7.31e-05 3.42e-05 
1 1 1.49973e-06 7.62e-05 9.55e-05 4.72e-05 
ITEM: TIMESTEP
1100
ITEM: NUMBER OF ATOMS
57
ITEM: BOX BOUNDS ff ff ff
0.0000000000000000e+00 1.0000000000000000e-04
0.0000000000000000e+00 1.0000000000000000e-04
0.0000000000000000e+00 5.0000000000000002e-05
ITEM: ATOMS id type diameter x y z 
43 1 1.58392e-06 1.12e-05 2.65e-05 3.15e-06 
56 1 1.6303e-06 2.87541e-06 1.15783e-05 5.36208e-06 
31 1 1.56211e-06 3.6289e-06 1.22085e-05 6.63148e-06 
6 1 1.90499e-06 4.97e-05 2.6e-05 7.23e-06 
22 1 1.63743e-06 2.95e-05 4.98e-05 7.66e-06 
42 1 1.75516e-06 1.61e-05 2.41e-05 1.09e-05 
29 1 1.88359e-06 1.41e-05 2.61e-05 2.06e-05 
47 1 1.63743e-06 4.5e-05 9.14e-06 2.26e-05 
12 1 1.61603e-06 4.99e-05 1.59e-05 2.69e-05 
49 1 1.78727e-06 3.73e-05 1.5e-05 2.88e-05 
50 1 1.53041e-06 4.66e-05 3.72e-05 2.97e-05 
52 1 1.66499e-06 3.52145e-05 9.97752e-06 3.43505e-05 
40 1 1.69095e-06 4.65e-05 2.7e-05 3.5e-05 
11 1 1.59535e-06 3.59698e-05 1.06093e-05 3.5623e-05 
41 1 1.56252e-06 4.65e-05 4.28e-05 4.14e-05 
17 1 1.56252e-06 1.28e-05 5.86e-06 4.3e-05 
38 1 1.9371e-06 2.77e-05 2.91e-05 4.71e-05 
54 1 1.63898e-06 4.62157e-05 5.00786e-05 1.00526e-05 