ITEM: TIMESTEP
0
ITEM: NUMBER OF ATOMS
50
ITEM: BOX BOUNDS ff ff ff
0.0000000000000000e+00 1.0000000000000000e-04
0.0000000000000000e+00 1.0000000000000000e-04
0.0000000000000000e+00 5.0000000000000002e-05
ITEM: ATOMS id type diameter x y z 
21 1 1.88e-06 3.96e-05 4.9e-05 5.81e-06 
38 1 1.61e-06 3.21e-05 1.48e-05 2.05e-05 
36 1 1.55e-06 3.55e-05 1.44e-05 2.12e-05 
13 1 1.8e-06 8.15e-06 2.18e-05 2.62e-05 
19 1 1.88e-06 4.31e-06 4.05e-05 3.27e-05 
10 1 1.4e-06 4.68e-05 2.72e-05 3.32e-05 
17 1 1.51e-06 3.41e-06 2.23e-05 4.23e-05 
24 1 1.77e-06 1.61e-05 1.02e-05 4.35e-05 
4 1 1.89e-06 3.28e-05 3.36e-05 4.55e-05 
40 1 1.44e-06 1.75e-05 9.99e-06 4.82e-05 
30 1 1.81e-06 7.12e-06 6.69e-05 3.86e-06 
25 1 1.55e-06 2.7e-06 5.67e-05 1.04e-05 
6 1 1.47e-06 3.74e-05 6.84e-05 2.22e-05 
31 1 1.84e-06 2.26e-05 9.66e-05 2.28e-05 
37 1 1.8e-06 3.8e-05 5.58e-05 2.6e-05 
12 1 1.64e-06 1.12e-05 9.46e-05 3.28e-05 
3 1 1.4e-06 2.95e-05 5.38e-05 3.42e-05 
29 1 1.67e-06 1.56e-05 5.69e-05 3.69e-05 
45 1 1.87e-06 3.87e-05 5.38e-05 4.31e-05 
41 1 1.72e-06 2.4e-05 5.56e-05 4.5e-05 
2 1 1.4e-06 7.9e-05 2.06e-05 4.19e-06 
27 1 1.63e-06 9.42e-05 4.5e-06 1.08e-05 
46 1 1.65e-06 7.21e-05 3.46e-05 1.39e-05 
11 1 1.91e-06 9.53e-05 3.54e-06 1.42e-05 
39 1 1.52e-06 9.57e-05 2.76e-05 1.72e-05 
20 1 1.71e-06 7.84e-05 1.03e-05 1.98e-05 
23 1 1.73e-06 7.99e-05 2.48e-06 2.21e-05 
35 1 1.93e-06 7.17e-05 4.5e-05 2.21e-05 
26 1 1.55e-06 8.45e-05 3.44e-05 2.48e-05 
5 1 1.56e-06 5.81e-05 3.19e-05 2.94e-05 
42 1 1.81e-06 6.96e-05 1.07e-05 3.27e-05 
1 1 1.77e-06 5.26e-05 2.76e-05 3.29e-05 
28 1 1.81e-06 5.99e-05 5.35e-06 3.61e-05 
14 1 1.57e-06 5.16e-05 1.43e-05 3.7e-05 
50 1 1.62e-06 8.24e-05 4.59e-05 3.85e-05 
15 1 1.81e-06 9.5e-05 8.08e-06 4.35e-05 
34 1 1.41e-06 7.28e-05 7.22e-06 4.46e-05 
7 1 1.76e-06 6.91e-05 2.81e-05 4.5e-05 
8 1 1.7e-06 5.5e-05 2.29e-05 4.65e-05 
47 1 1.93e-06 7.82e-05 9.08e-06 4.66e-05 
44 1 1.75e-06 5.37e-05 2.92e-05 4.72e-05 
32 1 1.89e-06 7.34e-05 9.07e-05 8.53e-06 
18 1 1.54e-06 8.71e-05 9.08e-05 9.62e-06 
9 1 1.54e-06 9.55e-05 8.78e-05 1.11e-05 
48 1 1.52e-06 8.73e-05 8.94e-05 2.07e-05 
22 1 1.84e-06 8.65e-05 9.62e-05 3.59e-05 
49 1 1.77e-06 7.75e-05 9.02e-05 3.73e-05 
16 1 1.67e-06 6.37e-05 9.52e-05 4.13e-05 
43 1 1.81e-06 8.16e-05 7.82e-05 4.54e-05 
33 1 1.41e-06 7.05e-05 5.24e-05 4.76e-05 
ITEM: TIMESTEP
100
ITEM: NUMBER OF ATOMS
50
ITEM: BOX BOUNDS ff ff ff
0.0000000000000000e+00 1.0000000000000000e-04
0.0000000000000000e+00 1.0000000000000000e-04
0.0000000000000000e+00 5.0000000000000002e-05
ITEM: ATOMS id type diameter x y z 
21 1 1.89063e-06 3.96e-05 4.9e-05 5.81e-06 
38 1 1.6191e-06 3.21e-05 1.48e-05 2.05e-05 
36 1 1.55876e-06 3.55e-05 1.44e-05 2.12e-05 
13 1 1.81018e-06 8.15e-06 2.18e-05 2.62e-05 
19 1 1.89063e-06 4.31e-06 4.05e-05 3.27e-05 
10 1 1.40791e-06 4.68e-05 2.72e-05 3.32e-05 
17 1 1.51854e-06 3.41e-06 2.23e-05 4.23e-05 
24 1 1.78001e-06 1.61e-05 1.02e-05 4.35e-05 
4 1 1.90068e-06 3.28e-05 3.36e-05 4.55e-05 
40 1 1.44814e-06 1.75e-05 9.99e-06 4.82e-05 
30 1 1.82023e-06 7.12e-06 6.69e-05 3.86e-06 
25 1 1.55876e-06 2.7e-06 5.67e-05 1.04e-05 
6 1 1.47831e-06 3.74e-05 6.84e-05 2.22e-05 
31 1 1.8504e-06 2.26e-05 9.66e-05 2.28e-05 
37 1 1.81018e-06 3.8e-05 5.58e-05 2.6e-05 
12 1 1.64927e-06 1.12e-05 9.46e-05 3.28e-05 
3 1 1.40791e-06 2.95e-05 5.38e-05 3.42e-05 
29 1 1.67944e-06 1.56e-05 5.69e-05 3.69e-05 
45 1 1.88057e-06 3.87e-05 5.38e-05 4.31e-05 
41 1 1.72972e-06 2.4e-05 5.56e-05 4.5e-05 
2 1 1.40791e-06 7.9e-05 2.06e-05 4.19e-06 
27 1 1.63921e-06 9.42e-05 4.5e-06 1.08e-05 
46 1 1.65933e-06 7.21e-05 3.46e-05 1.39e-05 
11 1 1.9208e-06 9.53e-05 3.54e-06 1.42e-05 
39 1 1.52859e-06 9.57e-05 2.76e-05 1.72e-05 
20 1 1.71967e-06 7.84e-05 1.03e-05 1.98e-05 
23 1 1.73978e-06 7.99e-05 2.48e-06 2.21e-05 
35 1 1.94091e-06 7.17e-05 4.5e-05 2.21e-05 
26 1 1.55876e-06 8.45e-05 3.44e-05 2.48e-05 
5 1 1.56882e-06 5.81e-05 3.19e-05 2.94e-05 
42 1 1.82023e-06 6.96e-05 1.07e-05 3.27e-05 
1 1 1.78001e-06 5.26e-05 2.76e-05 3.29e-05 
28 1 1.82023e-06 5.99e-05 5.35e-06 3.61e-05 
14 1 1.57888e-06 5.16e-05 1.43e-05 3.7e-05 
50 1 1.62916e-06 8.24e-05 4.59e-05 3.85e-05 
15 1 1.82023e-06 9.5e-05 8.08e-06 4.35e-05 
34 1 1.41797e-06 7.28e-05 7.22e-06 4.46e-05 
7 1 1.76995e-06 6.91e-05 2.81e-05 4.5e-05 
8 1 1.70961e-06 5.5e-05 2.29e-05 4.65e-05 
47 1 1.94091e-06 7.82e-05 9.08e-06 4.66e-05 
44 1 1.75989e-06 5.37e-05 2.92e-05 4.72e-05 
32 1 1.90068e-06 7.34e-05 9.07e-05 8.53e-06 
18 1 1.54871e-06 8.71e-05 9.08e-05 9.62e-06 
9 1 1.54871e-06 9.55e-05 8.78e-05 1.11e-05 
48 1 1.52859e-06 8.73e-05 8.94e-05 2.07e-05 
22 1 1.8504e-06 8.65e-05 9.62e-05 3.59e-05 
49 1 1.78001e-06 7.75e-05 9.02e-05 3.73e-05 
16 1 1.67944e-06 6.37e-05 9.52e-05 4.13e-05 
43 1 1.82023e-06 8.16e-05 7.82e-05 4.54e-05 
33 1 1.41797e-06 7.05e-05 5.24e-05 4.76e-05 
ITEM: TIMESTEP
200
ITEM: NUMBER OF ATOMS
50
ITEM: BOX BOUNDS ff ff ff
0.0000000000000000e+00 1.0000000000000000e-04
0.0000000000000000e+00 1.0000000000000000e-04
0.0000000000000000e+00 5.0000000000000002e-05
ITEM: ATOMS id type diameter x y z 
21 1 1.90132e-06 3.96e-05 4.9e-05 5.81e-06 
38 1 1.62826e-06 3.21e-05 1.48e-05 2.05e-05 
36 1 1.56757e-06 3.55e-05 1.44e-05 2.12e-05 
13 1 1.82041e-06 8.15e-06 2.18e-05 2.62e-05 
19 1 1.90132e-06 4.31e-06 4.05e-05 3.27e-05 
10 1 1.41587e-06 4.68e-05 2.72e-05 3.32e-05 
17 1 1.52712e-06 3.41e-06 2.23e-05 4.23e-05 
24 1 1.79007e-06 1.61e-05 1.02e-05 4.35e-05 
4 1 1.91143e-06 3.28e-05 3.36e-05 4.55e-05 
40 1 1.45633e-06 1.75e-05 9.99e-06 4.82e-05 
30 1 1.83052e-06 7.12e-06 6.69e-05 3.86e-06 
25 1 1.56757e-06 2.7e-06 5.67e-05 1.04e-05 
6 1 1.48667e-06 3.74e-05 6.84e-05 2.22e-05 
31 1 1.86086e-06 2.26e-05 9.66e-05 2.28e-05 
37 1 1.82041e-06 3.8e-05 5.58e-05 2.6e-05 
12 1 1.6586e-06 1.12e-05 9.46e-05 3.28e-05 
3 1 1.41587e-06 2.95e-05 5.38e-05 3.42e-05 
29 1 1.68894e-06 1.56e-05 5.69e-05 3.69e-05 
45 1 1.8912e-06 3.87e-05 5.38e-05 4.31e-05 
41 1 1.7395e-06 2.4e-05 5.56e-05 4.5e-05 
2 1 1.41587e-06 7.9e-05 2.06e-05 4.19e-06 
27 1 1.64848e-06 9.42e-05 4.5e-06 1.08e-05 
46 1 1.66871e-06 7.21e-05 3.46e-05 1.39e-05 
11 1 1.93166e-06 9.53e-05 3.54e-06 1.42e-05 
39 1 1.53723e-06 9.57e-05 2.76e-05 1.72e-05 
20 1 1.72939e-06 7.84e-05 1.03e-05 1.98e-05 
23 1 1.74962e-06 7.99e-05 2.48e-06 2.21e-05 
35 1 1.95188e-06 7.17e-05 4.5e-05 2.21e-05 
26 1 1.56757e-06 8.45e-05 3.44e-05 2.48e-05 
5 1 1.57769e-06 5.81e-05 3.19e-05 2.94e-05 
42 1 1.83052e-06 6.96e-05 1.07e-05 3.27e-05 
1 1 1.79007e-06 5.26e-05 2.76e-05 3.29e-05 
28 1 1.83052e-06 5.99e-05 5.35e-06 3.61e-05 
14 1 1.5878e-06 5.16e-05 1.43e-05 3.7e-05 
50 1 1.63837e-06 8.24e-05 4.59e-05 3.85e-05 
15 1 1.83052e-06 9.5e-05 8.08e-06 4.35e-05 
34 1 1.42599e-06 7.28e-05 7.22e-06 4.46e-05 
7 1 1.77996e-06 6.91e-05 2.81e-05 4.5e-05 
8 1 1.71928e-06 5.5e-05 2.29e-05 4.65e-05 
47 1 1.95188e-06 7.82e-05 9.08e-06 4.66e-05 
44 1 1.76984e-06 5.37e-05 2.92e-05 4.72e-05 
32 1 1.91143e-06 7.34e-05 9.07e-05 8.53e-06 
18 1 1.55746e-06 8.71e-05 9.08e-05 9.62e-06 
9 1 1.55746e-06 9.55e-05 8.78e-05 1.11e-05 
48 1 1.53723e-06 8.73e-05 8.94e-05 2.07e-05 
22 1 1.86086e-06 8.65e-05 9.62e-05 3.59e-05 
49 1 1.79007e-06 7.75e-05 9.02e-05 3.73e-05 
16 1 1.68894e-06 6.37e-05 9.52e-05 4.13e-05 
43 1 1.83052e-06 8.16e-05 7.82e-05 4.54e-05 
33 1 1.42599e-06 7.05e-05 5.24e-05 4.76e-05 
ITEM: TIMESTEP
300
ITEM: NUMBER OF ATOMS
50
ITEM: BOX BOUNDS ff ff ff
0.0000000000000000e+00 1.0000000000000000e-04
0.0000000000000000e+00 1.0000000000000000e-04
0.0000000000000000e+00 5.0000000000000002e-05
ITEM: ATOMS id type diameter x y z 
21 1 1.91207e-06 3.96e-05 4.9e-05 5.81e-06 
38 1 1.63746e-06 3.21e-05 1.48e-05 2.05e-05 
36 1 1.57644e-06 3.55e-05 1.44e-05 2.12e-05 
13 1 1.8307e-06 8.15e-06 2.18e-05 2.62e-05 
19 1 1.91207e-06 4.31e-06 4.05e-05 3.27e-05 
10 1 1.42388e-06 4.68e-05 2.72e-05 3.32e-05 
17 1 1.53575e-06 3.41e-06 2.23e-05 4.23e-05 
24 1 1.80019e-06 1.61e-05 1.02e-05 4.35e-05 
4 1 1.92224e-06 3.28e-05 3.36e-05 4.55e-05 
40 1 1.46456e-06 1.75e-05 9.99e-06 4.82e-05 
30 1 1.84087e-06 7.12e-06 6.69e-05 3.86e-06 
25 1 1.57644e-06 2.7e-06 5.67e-05 1.04e-05 
6 1 1.49507e-06 3.74e-05 6.84e-05 2.22e-05 
31 1 1.87138e-06 2.26e-05 9.66e-05 2.28e-05 
37 1 1.8307e-06 3.8e-05 5.58e-05 2.6e-05 
12 1 1.66797e-06 1.12e-05 9.46e-05 3.28e-05 
3 1 1.42388e-06 2.95e-05 5.38e-05 3.42e-05 
29 1 1.69848e-06 1.56e-05 5.69e-05 3.69e-05 
45 1 1.90189e-06 3.87e-05 5.38e-05 4.31e-05 
41 1 1.74934e-06 2.4e-05 5.56e-05 4.5e-05 
2 1 1.42388e-06 7.9e-05 2.06e-05 4.19e-06 
27 1 1.6578e-06 9.42e-05 4.5e-06 1.08e-05 
46 1 1.67814e-06 7.21e-05 3.46e-05 1.39e-05 
11 1 1.94258e-06 9.53e-05 3.54e-06 1.42e-05 
39 1 1.54593e-06 9.57e-05 2.76e-05 1.72e-05 
20 1 1.73917e-06 7.84e-05 1.03e-05 1.98e-05 
23 1 1.75951e-06 7.99e-05 2.48e-06 2.21e-05 
35 1 1.96292e-06 7.17e-05 4.5e-05 2.21e-05 
26 1 1.57644e-06 8.45e-05 3.44e-05 2.48e-05 
5 1 1.58661e-06 5.81e-05 3.19e-05 2.94e-05 
42 1 1.84087e-06 6.96e-05 1.07e-05 3.27e-05 
1 1 1.80019e-06 5.26e-05 2.76e-05 3.29e-05 
28 1 1.84087e-06 5.99e-05 5.35e-06 3.61e-05 
14 1 1.59678e-06 5.16e-05 1.43e-05 3.7e-05 
50 1 1.64763e-06 8.24e-05 4.59e-05 3.85e-05 
15 1 1.84087e-06 9.5e-05 8.08e-06 4.35e-05 
34 1 1.43405e-06 7.28e-05 7.22e-06 4.46e-05 
7 1 1.79002e-06 6.91e-05 2.81e-05 4.5e-05 
8 1 1.729e-06 5.5e-05 2.29e-05 4.65e-05 
47 1 1.96292e-06 7.82e-05 9.08e-06 4.66e-05 
44 1 1.77985e-06 5.37e-05 2.92e-05 4.72e-05 
32 1 1.92224e-06 7.34e-05 9.07e-05 8.53e-06 
18 1 1.56627e-06 8.71e-05 9.08e-05 9.62e-06 
9 1 1.56627e-06 9.55e-05 8.78e-05 1.11e-05 
48 1 1.54593e-06 8.73e-05 8.94e-05 2.07e-05 
22 1 1.87138e-06 8.65e-05 9.62e-05 3.59e-05 
49 1 1.80019e-06 7.75e-05 9.02e-05 3.73e-05 
16 1 1.69848e-06 6.37e-05 9.52e-05 4.13e-05 
43 1 1.84087e-06 8.16e-05 7.82e-05 4.54e-05 
33 1 1.43405e-06 7.05e-05 5.24e-05 4.76e-05 
ITEM: TIMESTEP
400
ITEM: NUMBER OF ATOMS
52
ITEM: BOX BOUNDS ff ff ff
0.0000000000000000e+00 1.0000000000000000e-04
0.0000000000000000e+00 1.0000000000000000e-04
0.0000000000000000e+00 5.0000000000000002e-05
ITEM: ATOMS id type diameter x y z 
21 1 1.92287e-06 3.96e-05 4.9e-05 5.81e-06 
38 1 1.64672e-06 3.21e-05 1.48e-05 2.05e-05 
36 1 1.58535e-06 3.55e-05 1.44e-05 2.12e-05 
13 1 1.84105e-06 8.15e-06 2.18e-05 2.62e-05 
19 1 1.92288e-06 4.31e-06 4.05e-05 3.27e-05 
10 1 1.43193e-06 4.68e-05 2.72e-05 3.32e-05 
17 1 1.54444e-06 3.41e-06 2.23e-05 4.23e-05 
24 1 1.81037e-06 1.61e-05 1.02e-05 4.35e-05 
4 1 1.9331e-06 3.28e-05 3.36e-05 4.55e-05 
40 1 1.47284e-06 1.75e-05 9.99e-06 4.82e-05 
30 1 1.85128e-06 7.12e-06 6.69e-05 3.86e-06 
25 1 1.58535e-06 2.7e-06 5.67e-05 1.04e-05 
6 1 1.50352e-06 3.74e-05 6.84e-05 2.22e-05 
31 1 1.88196e-06 2.26e-05 9.66e-05 2.28e-05 
37 1 1.84105e-06 3.8e-05 5.58e-05 2.6e-05 
12 1 1.6774e-06 1.12e-05 9.46e-05 3.28e-05 
3 1 1.43193e-06 2.95e-05 5.38e-05 3.42e-05 
29 1 1.70809e-06 1.56e-05 5.69e-05 3.69e-05 
45 1 1.91265e-06 3.87e-05 5.38e-05 4.31e-05 
41 1 1.75923e-06 2.4e-05 5.56e-05 4.5e-05 
2 1 1.43193e-06 7.9e-05 2.06e-05 4.19e-06 
27 1 1.66717e-06 9.42e-05 4.5e-06 1.08e-05 
46 1 1.68763e-06 7.21e-05 3.46e-05 1.39e-05 
11 1 1.95356e-06 9.53e-05 3.54e-06 1.42e-05 
39 1 1.55466e-06 9.57e-05 2.76e-05 1.72e-05 
20 1 1.749e-06 7.84e-05 1.03e-05 1.98e-05 
23 1 1.76945e-06 7.99e-05 2.48e-06 2.21e-05 
35 1 1.51756e-06 7.23153e-05 4.45717e-05 2.22136e-05 
26 1 1.58535e-06 8.45e-05 3.44e-05 2.48e-05 
5 1 1.59558e-06 5.81e-05 3.19e-05 2.94e-05 
42 1 1.85128e-06 6.96e-05 1.07e-05 3.27e-05 
1 1 1.81037e-06 5.26e-05 2.76e-05 3.29e-05 
28 1 1.85128e-06 5.99e-05 5.35e-06 3.61e-05 
14 1 1.60581e-06 5.16e-05 1.43e-05 3.7e-05 
50 1 1.65695e-06 8.24e-05 4.59e-05 3.85e-05 
15 1 1.85128e-06 9.5e-05 8.08e-06 4.35e-05 
34 1 1.44216e-06 7.28e-05 7.22e-06 4.46e-05 
7 1 1.80014e-06 6.91e-05 2.81e-05 4.5e-05 
8 1 1.73877e-06 5.5e-05 2.29e-05 4.65e-05 
47 1 1.61653e-06 7.82069e-05 8.2828e-06 4.64701e-05 
44 1 1.78991e-06 5.37e-05 2.92e-05 4.72e-05 
51 1 1.61308e-06 7.10459e-05 4.54553e-05 2.19792e-05 
52 1 1.51365e-06 7.81935e-05 9.82646e-06 4.67216e-05 
32 1 1.9331e-06 7.34e-05 9.07e-05 8.53e-06 
18 1 1.57512e-06 8.71e-05 9.08e-05 9.62e-06 
9 1 1.57512e-06 9.55e-05 8.78e-05 1.11e-05 
48 1 1.55466e-06 8.73e-05 8.94e-05 2.07e-05 
22 1 1.88196e-06 8.65e-05 9.62e-05 3.59e-05 
49 1 1.81037e-06 7.75e-05 9.02e-05 3.73e-05 
16 1 1.70809e-06 6.37e-05 9.52e-05 4.13e-05 
43 1 1.85128e-06 8.16e-05 7.82e-05 4.54e-05 
33 1 1.44216e-06 7.05e-05 5.24e-05 4.76e-05 
ITEM: TIMESTEP
500
ITEM: NUMBER OF ATOMS
52
ITEM: BOX BOUNDS ff ff ff
0.0000000000000000e+00 1.0000000000000000e-04
0.0000000000000000e+00 1.0000000000000000e-04
0.0000000000000000e+00 5.0000000000000002e-05
ITEM: ATOMS id type diameter x y z 
21 1 1.93375e-06 3.96e-05 4.9e-05 5.81e-06 
38 1 1.65603e-06 3.21e-05 1.48e-05 2.05e-05 
36 1 1.59431e-06 3.55e-05 1.44e-05 2.12e-05 
13 1 1.85146e-06 8.15e-06 2.18e-05 2.62e-05 
19 1 1.93375e-06 4.31e-06 4.05e-05 3.27e-05 
10 1 1.44002e-06 4.68e-05 2.72e-05 3.32e-05 
17 1 1.55317e-06 3.41e-06 2.23e-05 4.23e-05 
24 1 1.8206e-06 1.61e-05 1.02e-05 4.35e-05 
4 1 1.94403e-06 3.28e-05 3.36e-05 4.55e-05 
40 1 1.48117e-06 1.75e-05 9.99e-06 4.82e-05 
30 1 1.86174e-06 7.12e-06 6.69e-05 3.86e-06 
25 1 1.59431e-06 2.7e-06 5.67e-05 1.04e-05 
6 1 1.51202e-06 3.74e-05 6.84e-05 2.22e-05 
31 1 1.8926e-06 2.26e-05 9.66e-05 2.28e-05 
37 1 1.85146e-06 3.8e-05 5.58e-05 2.6e-05 
12 1 1.68688e-06 1.12e-05 9.46e-05 3.28e-05 
3 1 1.44002e-06 2.95e-05 5.38e-05 3.42e-05 
29 1 1.71774e-06 1.56e-05 5.69e-05 3.69e-05 
45 1 1.92346e-06 3.87e-05 5.38e-05 4.31e-05 
41 1 1.76917e-06 2.4e-05 5.56e-05 4.5e-05 
2 1 1.44002e-06 7.9e-05 2.06e-05 4.19e-06 
27 1 1.6766e-06 9.42e-05 4.5e-06 1.08e-05 
46 1 1.69717e-06 7.21e-05 3.46e-05 1.39e-05 
11 1 1.9646e-06 9.53e-05 3.54e-06 1.42e-05 
39 1 1.56345e-06 9.57e-05 2.76e-05 1.72e-05 
20 1 1.75889e-06 7.84e-05 1.03e-05 1.98e-05 
23 1 1.77946e-06 7.99e-05 2.48e-06 2.21e-05 
35 1 1.52614e-06 7.23153e-05 4.45717e-05 2.22136e-05 
26 1 1.59431e-06 8.45e-05 3.44e-05 2.48e-05 
5 1 1.6046e-06 5.81e-05 3.19e-05 2.94e-05 
42 1 1.86174e-06 6.96e-05 1.07e-05 3.27e-05 
1 1 1.8206e-06 5.26e-05 2.76e-05 3.29e-05 
28 1 1.86174e-06 5.99e-05 5.35e-06 3.61e-05 
14 1 1.61488e-06 5.16e-05 1.43e-05 3.7e-05 
50 1 1.66631e-06 8.24e-05 4.59e-05 3.85e-05 
15 1 1.86174e-06 9.5e-05 8.08e-06 4.35e-05 
34 1 1.45031e-06 7.28e-05 7.22e-06 4.46e-05 
7 1 1.81032e-06 6.91e-05 2.81e-05 4.5e-05 
8 1 1.7486e-06 5.5e-05 2.29e-05 4.65e-05 
47 1 1.62567e-06 7.82069e-05 8.2828e-06 4.64701e-05 
44 1 1.80003e-06 5.37e-05 2.92e-05 4.72e-05 
51 1 1.6222e-06 7.10459e-05 4.54553e-05 2.19792e-05 
52 1 1.5222e-06 7.81935e-05 9.82646e-06 4.67216e-05 
32 1 1.94403e-06 7.34e-05 9.07e-05 8.53e-06 
18 1 1.58403e-06 8.71e-05 9.08e-05 9.62e-06 
9 1 1.58403e-06 9.55e-05 8.78e-05 1.11e-05 
48 1 1.56345e-06 8.73e-05 8.94e-05 2.07e-05 
22 1 1.8926e-06 8.65e-05 9.62e-05 3.59e-05 
49 1 1.8206e-06 7.75e-05 9.02e-05 3.73e-05 
16 1 1.71774e-06 6.37e-05 9.52e-05 4.13e-05 
43 1 1.86174e-06 8.16e-05 7.82e-05 4.54e-05 
33 1 1.45031e-06 7.05e-05 5.24e-05 4.76e-05 
ITEM: TIMESTEP
600
ITEM: NUMBER OF ATOMS
53
ITEM: BOX BOUNDS ff ff ff
0.0000000000000000e+00 1.0000000000000000e-04
0.0000000000000000e+00 1.0000000000000000e-04
0.0000000000000000e+00 5.0000000000000002e-05
ITEM: ATOMS id type diameter x y z 
21 1 1.94468e-06 3.96e-05 4.9e-05 5.81e-06 
38 1 1.66539e-06 3.21e-05 1.48e-05 2.05e-05 
36 1 1.60332e-06 3.55e-05 1.44e-05 2.12e-05 
13 1 1.86193e-06 8.15e-06 2.18e-05 2.62e-05 
19 1 1.94468e-06 4.31e-06 4.05e-05 3.27e-05 
10 1 1.44816e-06 4.68e-05 2.72e-05 3.32e-05 
17 1 1.56195e-06 3.41e-06 2.23e-05 4.23e-05 
24 1 1.83089e-06 1.61e-05 1.02e-05 4.35e-05 
4 1 1.95502e-06 3.28e-05 3.36e-05 4.55e-05 
40 1 1.48954e-06 1.75e-05 9.99e-06 4.82e-05 
30 1 1.87227e-06 7.12e-06 6.69e-05 3.86e-06 
25 1 1.60332e-06 2.7e-06 5.67e-05 1.04e-05 
6 1 1.52057e-06 3.74e-05 6.84e-05 2.22e-05 
31 1 1.9033e-06 2.26e-05 9.66e-05 2.28e-05 
37 1 1.86193e-06 3.8e-05 5.58e-05 2.6e-05 
12 1 1.69642e-06 1.12e-05 9.46e-05 3.28e-05 
3 1 1.44816e-06 2.95e-05 5.38e-05 3.42e-05 
29 1 1.72745e-06 1.56e-05 5.69e-05 3.69e-05 
45 1 1.93433e-06 3.87e-05 5.38e-05 4.31e-05 
41 1 1.77917e-06 2.4e-05 5.56e-05 4.5e-05 
2 1 1.44816e-06 7.9e-05 2.06e-05 4.19e-06 
27 1 1.68608e-06 9.42e-05 4.5e-06 1.08e-05 
46 1 1.70677e-06 7.21e-05 3.46e-05 1.39e-05 
11 1 1.51886e-06 9.59159e-05 3.11132e-06 1.43137e-05 
39 1 1.57229e-06 9.57e-05 2.76e-05 1.72e-05 
20 1 1.76883e-06 7.84e-05 1.03e-05 1.98e-05 
53 1 1.61447e-06 9.46454e-05 3.99566e-06 1.40791e-05 
23 1 1.78952e-06 7.99e-05 2.48e-06 2.21e-05 
35 1 1.53477e-06 7.23153e-05 4.45717e-05 2.22136e-05 
26 1 1.60332e-06 8.45e-05 3.44e-05 2.48e-05 
5 1 1.61367e-06 5.81e-05 3.19e-05 2.94e-05 
42 1 1.87227e-06 6.96e-05 1.07e-05 3.27e-05 
1 1 1.83089e-06 5.26e-05 2.76e-05 3.29e-05 
28 1 1.87227e-06 5.99e-05 5.35e-06 3.61e-05 
14 1 1.62401e-06 5.16e-05 1.43e-05 3.7e-05 
50 1 1.67573e-06 8.24e-05 4.59e-05 3.85e-05 
15 1 1.87227e-06 9.5e-05 8.08e-06 4.35e-05 
34 1 1.45851e-06 7.28e-05 7.22e-06 4.46e-05 
7 1 1.82055e-06 6.91e-05 2.81e-05 4.5e-05 
8 1 1.75849e-06 5.5e-05 2.29e-05 4.65e-05 
47 1 1.63486e-06 7.82069e-05 8.2828e-06 4.64701e-05 
44 1 1.81021e-06 5.37e-05 2.92e-05 4.72e-05 
51 1 1.63137e-06 7.10459e-05 4.54553e-05 2.19792e-05 
52 1 1.53081e-06 7.81935e-05 9.82646e-06 4.67216e-05 
32 1 1.95502e-06 7.34e-05 9.07e-05 8.53e-06 
18 1 1.59298e-06 8.71e-05 9.08e-05 9.62e-06 
9 1 1.59298e-06 9.55e-05 8.78e-05 1.11e-05 
48 1 1.57229e-06 8.73e-05 8.94e-05 2.07e-05 
22 1 1.9033e-06 8.65e-05 9.62e-05 3.59e-05 
49 1 1.83089e-06 7.75e-05 9.02e-05 3.73e-05 
16 1 1.72745e-06 6.37e-05 9.52e-05 4.13e-05 
43 1 1.87227e-06 8.16e-05 7.82e-05 4.54e-05 
33 1 1.45851e-06 7.05e-05 5.24e-05 4.76e-05 
ITEM: TIMESTEP
700
ITEM: NUMBER OF ATOMS
53
ITEM: BOX BOUNDS ff ff ff
0.0000000000000000e+00 1.0000000000000000e-04
0.0000000000000000e+00 1.0000000000000000e-04
0.0000000000000000e+00 5.0000000000000002e-05
ITEM: ATOMS id type diameter x y z 
21 1 1.95567e-06 3.96e-05 4.9e-05 5.81e-06 
38 1 1.6748e-06 3.21e-05 1.48e-05 2.05e-05 
36 1 1.61239e-06 3.55e-05 1.44e-05 2.12e-05 
13 1 1.87245e-06 8.15e-06 2.18e-05 2.62e-05 
19 1 1.95567e-06 4.31e-06 4.05e-05 3.27e-05 
10 1 1.45635e-06 4.68e-05 2.72e-05 3.32e-05 
17 1 1.57078e-06 3.41e-06 2.23e-05 4.23e-05 
24 1 1.84124e-06 1.61e-05 1.02e-05 4.35e-05 
4 1 1.96607e-06 3.28e-05 3.36e-05 4.55e-05 
40 1 1.49796e-06 1.75e-05 9.99e-06 4.82e-05 
30 1 1.88285e-06 7.12e-06 6.69e-05 3.86e-06 
25 1 1.61239e-06 2.7e-06 5.67e-05 1.04e-05 
6 1 1.52917e-06 3.74e-05 6.84e-05 2.22e-05 
31 1 1.91406e-06 2.26e-05 9.66e-05 2.28e-05 
37 1 1.87245e-06 3.8e-05 5.58e-05 2.6e-05 
12 1 1.70601e-06 1.12e-05 9.46e-05 3.28e-05 
3 1 1.45635e-06 2.95e-05 5.38e-05 3.42e-05 
29 1 1.73722e-06 1.56e-05 5.69e-05 3.69e-05 
45 1 1.94527e-06 3.87e-05 5.38e-05 4.31e-05 
41 1 1.78923e-06 2.4e-05 5.56e-05 4.5e-05 
2 1 1.45635e-06 7.9e-05 2.06e-05 4.19e-06 
27 1 1.69561e-06 9.42e-05 4.5e-06 1.08e-05 
46 1 1.71641e-06 7.21e-05 3.46e-05 1.39e-05 
11 1 1.52745e-06 9.59159e-05 3.11132e-06 1.43137e-05 
39 1 1.58118e-06 9.57e-05 2.76e-05 1.72e-05 
20 1 1.77883e-06 7.84e-05 1.03e-05 1.98e-05 
53 1 1.62359e-06 9.46454e-05 3.99566e-06 1.40791e-05 
23 1 1.79963e-06 7.99e-05 2.48e-06 2.21e-05 
35 1 1.54344e-06 7.23153e-05 4.45717e-05 2.22136e-05 
26 1 1.61239e-06 8.45e-05 3.44e-05 2.48e-05 
5 1 1.62279e-06 5.81e-05 3.19e-05 2.94e-05 
42 1 1.88285e-06 6.96e-05 1.07e-05 3.27e-05 
1 1 1.84124e-06 5.26e-05 2.76e-05 3.29e-05 
28 1 1.88285e-06 5.99e-05 5.35e-06 3.61e-05 
14 1 1.63319e-06 5.16e-05 1.43e-05 3.7e-05 
50 1 1.68521e-06 8.24e-05 4.59e-05 3.85e-05 
15 1 1.88285e-06 9.5e-05 8.08e-06 4.35e-05 
34 1 1.46675e-06 7.28e-05 7.22e-06 4.46e-05 
7 1 1.83084e-06 6.91e-05 2.81e-05 4.5e-05 
8 1 1.76843e-06 5.5e-05 2.29e-05 4.65e-05 
47 1 1.6441e-06 7.82069e-05 8.2828e-06 4.64701e-05 
44 1 1.82044e-06 5.37e-05 2.92e-05 4.72e-05 
51 1 1.6406e-06 7.10459e-05 4.54553e-05 2.19792e-05 
52 1 1.53946e-06 7.81935e-05 9.82646e-06 4.67216e-05 
32 1 1.96607e-06 7.34e-05 9.07e-05 8.53e-06 
18 1 1.60199e-06 8.71e-05 9.08e-05 9.62e-06 
9 1 1.60199e-06 9.55e-05 8.78e-05 1.11e-05 
48 1 1.58118e-06 8.73e-05 8.94e-05 2.07e-05 
22 1 1.91406e-06 8.65e-05 9.62e-05 3.59e-05 
49 1 1.84124e-06 7.75e-05 9.02e-05 3.73e-05 
16 1 1.73722e-06 6.37e-05 9.52e-05 4.13e-05 
43 1 1.88285e-06 8.16e-05 7.82e-05 4.54e-05 
33 1 1.46675e-06 7.05e-05 5.24e-05 4.76e-05 
ITEM: TIMESTEP
800
ITEM: NUMBER OF ATOMS
55
ITEM: BOX BOUNDS ff ff ff
0.0000000000000000e+00 1.0000000000000000e-04
0.0000000000000000e+00 1.0000000000000000e-04
0.0000000000000000e+00 5.0000000000000002e-05
ITEM: ATOMS id type diameter x y z 
21 1 1.96673e-06 3.96e-05 4.9e-05 5.81e-06 
38 1 1.68427e-06 3.21e-05 1.48e-05 2.05e-05 
36 1 1.6215e-06 3.55e-05 1.44e-05 2.12e-05 
13 1 1.88304e-06 8.15e-06 2.18e-05 2.62e-05 
19 1 1.96673e-06 4.31e-06 4.05e-05 3.27e-05 
10 1 1.46458e-06 4.68e-05 2.72e-05 3.32e-05 
17 1 1.57966e-06 3.41e-06 2.23e-05 4.23e-05 
24 1 1.85165e-06 1.61e-05 1.02e-05 4.35e-05 
4 1 1.52e-06 3.34163e-05 3.3171e-05 4.56138e-05 
40 1 1.50643e-06 1.75e-05 9.99e-06 4.82e-05 
54 1 1.61568e-06 3.21449e-05 3.4056e-05 4.5379e-05 
30 1 1.8935e-06 7.12e-06 6.69e-05 3.86e-06 
25 1 1.6215e-06 2.7e-06 5.67e-05 1.04e-05 
6 1 1.53781e-06 3.74e-05 6.84e-05 2.22e-05 
31 1 1.92488e-06 2.26e-05 9.66e-05 2.28e-05 
37 1 1.88304e-06 3.8e-05 5.58e-05 2.6e-05 
12 1 1.71566e-06 1.12e-05 9.46e-05 3.28e-05 
3 1 1.46458e-06 2.95e-05 5.38e-05 3.42e-05 
29 1 1.74704e-06 1.56e-05 5.69e-05 3.69e-05 
45 1 1.95627e-06 3.87e-05 5.38e-05 4.31e-05 
41 1 1.79935e-06 2.4e-05 5.56e-05 4.5e-05 
2 1 1.46458e-06 7.9e-05 2.06e-05 4.19e-06 
27 1 1.70519e-06 9.42e-05 4.5e-06 1.08e-05 
46 1 1.72612e-06 7.21e-05 3.46e-05 1.39e-05 
11 1 1.53608e-06 9.59159e-05 3.11132e-06 1.43137e-05 
39 1 1.59012e-06 9.57e-05 2.76e-05 1.72e-05 
20 1 1.78889e-06 7.84e-05 1.03e-05 1.98e-05 
53 1 1.63277e-06 9.46454e-05 3.99566e-06 1.40791e-05 
23 1 1.80981e-06 7.99e-05 2.48e-06 2.21e-05 
35 1 1.55217e-06 7.23316e-05 4.45604e-05 2.22166e-05 
26 1 1.6215e-06 8.45e-05 3.44e-05 2.48e-05 
5 1 1.63197e-06 5.81e-05 3.19e-05 2.94e-05 
42 1 1.8935e-06 6.96e-05 1.07e-05 3.27e-05 
1 1 1.85165e-06 5.26e-05 2.76e-05 3.29e-05 
28 1 1.8935e-06 5.99e-05 5.35e-06 3.61e-05 
14 1 1.64243e-06 5.16e-05 1.43e-05 3.7e-05 
50 1 1.69473e-06 8.24e-05 4.59e-05 3.85e-05 
15 1 1.8935e-06 9.5e-05 8.08e-06 4.35e-05 
34 1 1.47505e-06 7.28e-05 7.22e-06 4.46e-05 
7 1 1.84119e-06 6.91e-05 2.81e-05 4.5e-05 
8 1 1.77842e-06 5.5e-05 2.29e-05 4.65e-05 
47 1 1.6534e-06 7.82071e-05 8.26306e-06 4.64669e-05 
44 1 1.83073e-06 5.37e-05 2.92e-05 4.72e-05 
51 1 1.64987e-06 7.10297e-05 4.54666e-05 2.19762e-05 
52 1 1.54817e-06 7.81933e-05 9.8462e-06 4.67248e-05 
32 1 1.52e-06 7.40163e-05 9.0271e-05 8.64382e-06 
18 1 1.61104e-06 8.71e-05 9.08e-05 9.62e-06 
9 1 1.61104e-06 9.55e-05 8.78e-05 1.11e-05 
55 1 1.61568e-06 7.27449e-05 9.1156e-05 8.40902e-06 
48 1 1.59012e-06 8.73e-05 8.94e-05 2.07e-05 
22 1 1.92488e-06 8.65e-05 9.62e-05 3.59e-05 
49 1 1.85165e-06 7.75e-05 9.02e-05 3.73e-05 
16 1 1.74704e-06 6.37e-05 9.52e-05 4.13e-05 
43 1 1.8935e-06 8.16e-05 7.82e-05 4.54e-05 
33 1 1.47505e-06 7.05e-05 5.24e-05 4.76e-05 
ITEM: TIMESTEP
900
ITEM: NUMBER OF ATOMS
57
ITEM: BOX BOUNDS ff ff ff
0.0000000000000000e+00 1.0000000000000000e-04
0.0000000000000000e+00 1.0000000000000000e-04
0.0000000000000000e+00 5.0000000000000002e-05
ITEM: ATOMS id type diameter x y z 
21 1 1.52051e-06 4.02165e-05 4.85709e-05 5.92386e-06 
56 1 1.61621e-06 3.89447e-05 4.94562e-05 5.68898e-06 
38 1 1.69379e-06 3.21e-05 1.48e-05 2.05e-05 
36 1 1.63067e-06 3.55e-05 1.44e-05 2.12e-05 
13 1 1.89368e-06 8.15e-06 2.18e-05 2.62e-05 
19 1 1.61967e-06 4.31696e-06 3.97013e-05 3.25699e-05 
10 1 1.47286e-06 4.68e-05 2.72e-05 3.32e-05 
17 1 1.58859e-06 3.41e-06 2.23e-05 4.23e-05 
24 1 1.86212e-06 1.61e-05 1.02e-05 4.35e-05 
4 1 1.52859e-06 3.34163e-05 3.3171e-05 4.56138e-05 
40 1 1.51495e-06 1.75e-05 9.99e-06 4.82e-05 
54 1 1.62481e-06 3.21449e-05 3.4056e-05 4.5379e-05 
57 1 1.51658e-06 4.30348e-06 4.12479e-05 3.28219e-05 
30 1 1.9042e-06 7.12e-06 6.69e-05 3.86e-06 
25 1 1.63067e-06 2.7e-06 5.67e-05 1.04e-05 
6 1 1.54651e-06 3.74e-05 6.84e-05 2.22e-05 
31 1 1.93576e-06 2.26e-05 9.66e-05 2.28e-05 
37 1 1.89368e-06 3.8e-05 5.58e-05 2.6e-05 
12 1 1.72536e-06 1.12e-05 9.46e-05 3.28e-05 
3 1 1.47286e-06 2.95e-05 5.38e-05 3.42e-05 
29 1 1.75692e-06 1.56e-05 5.69e-05 3.69e-05 
45 1 1.96733e-06 3.87e-05 5.38e-05 4.31e-05 
41 1 1.80952e-06 2.4e-05 5.56e-05 4.5e-05 
2 1 1.47286e-06 7.9e-05 2.06e-05 4.19e-06 
27 1 1.71483e-06 9.42e-05 4.5e-06 1.08e-05 
46 1 1.73588e-06 7.21e-05 3.46e-05 1.39e-05 
11 1 1.54477e-06 9.59159e-05 3.11132e-06 1.43137e-05 
39 1 1.59911e-06 9.57e-05 2.76e-05 1.72e-05 
20 1 1.799e-06 7.84e-05 1.03e-05 1.98e-05 
53 1 1.642e-06 9.46454e-05 3.99566e-06 1.40791e-05 
23 1 1.82004e-06 7.99e-05 2.48e-06 2.21e-05 
35 1 1.56094e-06 7.23316e-05 4.45604e-05 2.22166e-05 
26 1 1.63067e-06 8.45e-05 3.44e-05 2.48e-05 
5 1 1.64119e-06 5.81e-05 3.19e-05 2.94e-05 
42 1 1.9042e-06 6.96e-05 1.07e-05 3.27e-05 
1 1 1.86212e-06 5.26e-05 2.76e-05 3.29e-05 
28 1 1.9042e-06 5.99e-05 5.35e-06 3.61e-05 
14 1 1.65171e-06 5.16e-05 1.43e-05 3.7e-05 
50 1 1.70431e-06 8.24e-05 4.59e-05 3.85e-05 
15 1 1.9042e-06 9.5e-05 8.08e-06 4.35e-05 
34 1 1.48338e-06 7.28e-05 7.22e-06 4.46e-05 
7 1 1.8516e-06 6.91e-05 2.81e-05 4.5e-05 
8 1 1.78848e-06 5.5e-05 2.29e-05 4.65e-05 
47 1 1.66274e-06 7.82071e-05 8.26306e-06 4.64669e-05 
44 1 1.84108e-06 5.37e-05 2.92e-05 4.72e-05 
51 1 1.6592e-06 7.10297e-05 4.54666e-05 2.19762e-05 
52 1 1.55692e-06 7.81933e-05 9.8462e-06 4.67248e-05 
32 1 1.52859e-06 7.40163e-05 9.0271e-05 8.64382e-06 
18 1 1.62015e-06 8.71e-05 9.08e-05 9.62e-06 
9 1 1.62015e-06 9.55e-05 8.78e-05 1.11e-05 
55 1 1.62481e-06 7.27449e-05 9.1156e-05 8.40902e-06 
48 1 1.59911e-06 8.73e-05 8.94e-05 2.07e-05 
22 1 1.93576e-06 8.65e-05 9.62e-05 3.59e-05 
49 1 1.86212e-06 7.75e-05 9.02e-05 3.73e-05 
16 1 1.75692e-06 6.37e-05 9.52e-05 4.13e-05 
43 1 1.9042e-06 8.16e-05 7.82e-05 4.54e-05 
33 1 1.48338e-06 7.05e-05 5.24e-05 4.76e-05 
ITEM: TIMESTEP
1000
ITEM: NUMBER OF ATOMS
58
ITEM: BOX BOUNDS ff ff ff
0.0000000000000000e+00 1.0000000000000000e-04
0.0000000000000000e+00 1.0000000000000000e-04
0.0000000000000000e+00 5.0000000000000002e-05
ITEM: ATOMS id type diameter x y z 
21 1 1.5291e-06 4.02165e-05 4.85709e-05 5.92386e-06 
56 1 1.62535e-06 3.89447e-05 4.94562e-05 5.68898e-06 
38 1 1.70337e-06 3.21e-05 1.48e-05 2.05e-05 
36 1 1.63989e-06 3.55e-05 1.44e-05 2.12e-05 
13 1 1.90439e-06 8.15e-06 2.18e-05 2.62e-05 
19 1 1.62882e-06 4.31696e-06 3.97013e-05 3.25699e-05 
57 1 1.52516e-06 4.30348e-06 4.12479e-05 3.28219e-05 
10 1 1.48119e-06 4.68e-05 2.72e-05 3.32e-05 
17 1 1.59757e-06 3.41e-06 2.23e-05 4.23e-05 
24 1 1.87265e-06 1.61e-05 1.02e-05 4.35e-05 
54 1 1.634e-06 3.21449e-05 3.4056e-05 4.5379e-05 
4 1 1.53723e-06 3.34163e-05 3.3171e-05 4.56138e-05 
40 1 1.52351e-06 1.75e-05 9.99e-06 4.82e-05 
30 1 1.91497e-06 7.12e-06 6.69e-05 3.86e-06 
25 1 1.63989e-06 2.7e-06 5.67e-05 1.04e-05 
6 1 1.55525e-06 3.74e-05 6.84e-05 2.22e-05 
31 1 1.94671e-06 2.26e-05 9.66e-05 2.28e-05 
37 1 1.90439e-06 3.8e-05 5.58e-05 2.6e-05 
12 1 1.73511e-06 1.12e-05 9.46e-05 3.28e-05 
3 1 1.48119e-06 2.95e-05 5.38e-05 3.42e-05 
29 1 1.76685e-06 1.56e-05 5.69e-05 3.69e-05 
58 1 1.6167e-06 3.80445e-05 5.42563e-05 4.29789e-05 
45 1 1.52097e-06 3.93167e-05 5.33707e-05 4.32139e-05 
41 1 1.81975e-06 2.4e-05 5.56e-05 4.5e-05 
2 1 1.48119e-06 7.9e-05 2.06e-05 4.19e-06 
27 1 1.72453e-06 9.42e-05 4.5e-06 1.08e-05 
46 1 1.74569e-06 7.21e-05 3.46e-05 1.39e-05 
11 1 1.5535e-06 9.59321e-05 3.10003e-06 1.43167e-05 
53 1 1.65129e-06 9.46291e-05 4.00696e-06 1.40761e-05 
39 1 1.60815e-06 9.57e-05 2.76e-05 1.72e-05 
20 1 1.80917e-06 7.84e-05 1.03e-05 1.98e-05 
51 1 1.66858e-06 7.10297e-05 4.54666e-05 2.19762e-05 
23 1 1.83033e-06 7.99e-05 2.48e-06 2.21e-05 
35 1 1.56977e-06 7.23316e-05 4.45604e-05 2.22166e-05 
26 1 1.63989e-06 8.45e-05 3.44e-05 2.48e-05 
5 1 1.65047e-06 5.81e-05 3.19e-05 2.94e-05 
42 1 1.91497e-06 6.96e-05 1.07e-05 3.27e-05 
1 1 1.87265e-06 5.26e-05 2.76e-05 3.29e-05 
28 1 1.91497e-06 5.99e-05 5.35e-06 3.61e-05 
14 1 1.66105e-06 5.16e-05 1.43e-05 3.7e-05 
50 1 1.71395e-06 8.24e-05 4.59e-05 3.85e-05 
15 1 1.91497e-06 9.5e-05 8.08e-06 4.35e-05 
34 1 1.49177e-06 7.28e-05 7.22e-06 4.46e-05 
7 1 1.86207e-06 6.91e-05 2.81e-05 4.5e-05 
47 1 1.67214e-06 7.82071e-05 8.26306e-06 4.64669e-05 
8 1 1.79859e-06 5.5e-05 2.29e-05 4.65e-05 
52 1 1.56572e-06 7.81933e-05 9.8462e-06 4.67248e-05 
44 1 1.85149e-06 5.37e-05 2.92e-05 4.72e-05 
55 1 1.634e-06 7.27449e-05 9.1156e-05 8.40902e-06 
32 1 1.53723e-06 7.40163e-05 9.0271e-05 8.64382e-06 
18 1 1.62931e-06 8.71e-05 9.08e-05 9.62e-06 
9 1 1.62931e-06 9.55e-05 8.78e-05 1.11e-05 
48 1 1.60815e-06 8.73e-05 8.94e-05 2.07e-05 
22 1 1.94671e-06 8.65e-05 9.62e-05 3.59e-05 
49 1 1.87265e-06 7.75e-05 9.02e-05 3.73e-05 
16 1 1.76685e-06 6.37e-05 9.52e-05 4.13e-05 
43 1 1.91497e-06 8.16e-05 7.82e-05 4.54e-05 
33 1 1.49177e-06 7.05e-05 5.24e-05 4.76e-05 
ITEM: TIMESTEP
1100
ITEM: NUMBER OF ATOMS
58
ITEM: BOX BOUNDS ff ff ff
0.0000000000000000e+00 1.0000000000000000e-04
0.0000000000000000e+00 1.0000000000000000e-04
0.0000000000000000e+00 5.0000000000000002e-05
ITEM: ATOMS id type diameter x y z 
21 1 1.53775e-06 4.02165e-05 4.85709e-05 5.92386e-06 
56 1 1.63454e-06 3.89447e-05 4.94562e-05 5.68898e-06 
38 1 1.713e-06 3.21e-05 1.48e-05 2.05e-05 
36 1 1.64916e-06 3.55e-05 1.44e-05 2.12e-05 
13 1 1.91515e-06 8.15e-06 2.18e-05 2.62e-05 
19 1 1.63803e-06 4.31696e-06 3.97013e-05 3.25699e-05 
57 1 1.53378e-06 4.30348e-06 4.12479e-05 3.28219e-05 
10 1 1.48956e-06 4.68e-05 2.72e-05 3.32e-05 
17 1 1.6066e-06 3.41e-06 2.23e-05 4.23e-05 
24 1 1.88324e-06 1.61e-05 1.02e-05 4.35e-05 
54 1 1.64323e-06 3.21449e-05 3.4056e-05 4.5379e-05 
4 1 1.54593e-06 3.34163e-05 3.3171e-05 4.56138e-05 
40 1 1.53212e-06 1.75e-05 9.99e-06 4.82e-05 
30 1 1.92579e-06 7.12e-06 6.69e-05 3.86e-06 
25 1 1.64916e-06 2.7e-06 5.67e-05 1.04e-05 
6 1 1.56404e-06 3.74e-05 6.84e-05 2.22e-05 
31 1 1.95771e-06 2.26e-05 9.66e-05 2.28e-05 
37 1 1.91515e-06 3.8e-05 5.58e-05 2.6e-05 
12 1 1.74492e-06 1.12e-05 9.46e-05 3.28e-05 