LAMMPS (20 Nov 2019)
Reading data file ...
  orthogonal box = (0 0 0) to (0.0001 0.0001 0.0001)
  2 by 4 by 4 MPI processor grid
  reading atoms ...
  100 atoms
  4 nutrients
Lattice spacing in x,y,z = 100 100 100
100 atoms in group CYANO
0 atoms in group ECW
Model is defined as a closed system. 
Neighbor list info ...
  update every 1 steps, delay 0 steps, check yes
  max neighbors/atom: 5000, page size: 100000
  master list distance cutoff = 2.43e-06
  ghost atom cutoff = 2.43e-06
  binsize = 1.215e-06, bins = 83 83 83
  1 neighbor lists, perpetual/occasional/extra = 1 0 0
  (1) pair gran/hooke/history, perpetual
      attributes: half, newton off, size, history
      pair build: half/size/bin/newtoff
      stencil: half/bin/3d/newtoff
      bin: standard
Setting up Verlet run ...
  Unit style    : lj
  Current step  : 0
  Time step     : 10
Per MPI rank memory allocation (min/avg/max) = 5.856 | 9.546 | 10.91 Mbytes
Step CPU Atoms c_myNtypes[1] c_myNtypes[2] c_myMass[1] c_myMass[2] c_myCon[1] c_myCon[2] c_myCon[3] c_myCon[4] 
       0            0      100          100            0 8.9732555e-14            0          0.1        0.009     3.42e-20       0.0299 
number of iterations: 122225 
     100    1.3230654      100          100            0 9.1246206e-14            0          0.1 0.0090010173 1.4885401e-05  0.029898306 
number of iterations: 105571 
     200    2.4226655      100          100            0 9.278539e-14            0          0.1 0.0090010345 3.9845513e-05  0.029898278 
number of iterations: 94285 
     300    3.4247471      100          100            0 9.4350538e-14            0          0.1 0.0090010519 7.8072384e-05  0.029898249 
number of iterations: 84018 
     400    4.3259678      103          103            0 9.5942087e-14            0          0.1 0.0090010697 0.00013659472  0.029898219 
number of iterations: 74292 
     500    5.1340359      103          103            0 9.7560484e-14            0          0.1 0.0090010877 0.00022633094  0.029898189 
number of iterations: 64829 
     600     5.845858      104          104            0 9.920618e-14            0          0.1 0.0090011061 0.00036451359  0.029898158 
number of iterations: 55425 
     700    6.4690831      106          106            0 1.0087964e-13            0          0.1 0.0090011247 0.00057906187  0.029898127 
number of iterations: 45860 
     800    6.9981209      108          108            0 1.0258132e-13            0          0.1 0.0090011437 0.00091755869  0.029898096 
number of iterations: 35767 
     900    7.4296234      108          108            0 1.0431171e-13            0          0.1  0.009001163 0.0014699935  0.029898064 
number of iterations: 24140 
    1000     7.747518      110          110            0 1.0607129e-13            0          0.1 0.0090011768 0.0024520708  0.029898041 
number of iterations: 14987 
    1100    7.9747928      112          112            0 1.0786055e-13            0          0.1 0.0090011966 0.0041550903  0.029898008 
number of iterations: 15042 
    1200    8.1930145      113          113            0 1.0967999e-13            0          0.1 0.0090012168  0.006241931  0.029897974 
number of iterations: 15097 
    1300     8.409298      116          116            0 1.1153013e-13            0          0.1 0.0090012368 0.0086935201  0.029897941 
number of iterations: 15151 
    1400    8.6212002      120          120            0 1.1341147e-13            0          0.1 0.0090012576  0.011537931  0.029897906 
number of iterations: 15206 
    1500    8.8281262      123          123            0 1.1532455e-13            0          0.1 0.0090012788  0.014821042  0.029897871 
number of iterations: 15261 
    1600    9.0683289      123          123            0 1.172699e-13            0          0.1 0.0090013004  0.018510875  0.029897835 
number of iterations: 15315 
    1700    9.3050324      124          124            0 1.1924806e-13            0          0.1 0.0090013223  0.022491199  0.029897798 
number of iterations: 15370 
    1800    9.5170546      128          128            0 1.2125959e-13            0          0.1 0.0090013446  0.026754716  0.029897761 
number of iterations: 15425 
    1900    9.7223076      131          131            0 1.2330506e-13            0          0.1 0.0090013673  0.031296381  0.029897723 
number of iterations: 15479 
    2000    9.9286325      132          132            0 1.2538503e-13            0          0.1 0.0090013904  0.036113537  0.029897685 
number of iterations: 15534 
    2100    10.134058      134          134            0 1.2750008e-13            0          0.1 0.0090014138  0.041205016  0.029897646 
number of iterations: 14801 
    2200     10.32756      135          135            0 1.2965081e-13            0          0.1 0.0090014377   0.04657114  0.029897606 
number of iterations: 15634 
    2300    10.535427      138          138            0 1.3183782e-13            0          0.1 0.0090014619  0.052212255  0.029897566 
number of iterations: 15687 
    2400    10.739203      138          138            0 1.3406172e-13            0          0.1 0.0090014866  0.058130241  0.029897525 
number of iterations: 15742 
    2500    10.946869      139          139            0 1.3632314e-13            0          0.1 0.0090015117  0.064326384  0.029897483 
number of iterations: 15796 
    2600     11.15116      141          141            0 1.386227e-13            0          0.1 0.0090015372  0.070802762  0.029897441 
number of iterations: 15851 
    2700    11.358944      141          141            0 1.4096106e-13            0          0.1 0.0090015631  0.077562907  0.029897397 
number of iterations: 15906 
    2800    11.563707      142          142            0 1.4333885e-13            0          0.1 0.0090015895  0.084610055  0.029897353 
number of iterations: 15596 
    2900    11.768179      146          146            0 1.4575676e-13            0          0.1 0.0090016132  0.091953771  0.029897314 
number of iterations: 16009 
    3000    11.975092      148          148            0 1.4821545e-13            0          0.1 0.0090016405  0.099591631  0.029897269 
number of iterations: 16064 
    3100    12.179824      151          151            0 1.5071562e-13            0          0.1 0.0090016681   0.10752715  0.029897222 
number of iterations: 16118 
    3200    12.384469      153          153            0 1.5325796e-13            0          0.1 0.0090016963   0.11576429  0.029897176 
number of iterations: 16294 
    3300    12.594543      155          155            0 1.5584319e-13            0          0.1 0.0090017256    0.1243064  0.029897127 
number of iterations: 16230 
    3400    12.801155      155          155            0 1.5847203e-13            0          0.1 0.0090017548   0.13315858  0.029897078 
number of iterations: 16284 
    3500    13.010625      155          155            0 1.6114521e-13            0          0.1 0.0090017844   0.14232571  0.029897029 
number of iterations: 16778 
    3600    13.221654      158          158            0 1.6386348e-13            0          0.1  0.009001812     0.151497  0.029896983 
number of iterations: 16199 
    3700    13.427999      161          161            0 1.666276e-13            0          0.1 0.0090018407   0.16093129  0.029896935 
number of iterations: 16453 
    3800    13.636641      161          161            0 1.6943836e-13            0          0.1 0.0090018718   0.17063198  0.029896883 
number of iterations: 16508 
    3900    13.848199      162          162            0 1.7229652e-13            0          0.1 0.0090019033   0.18060161  0.029896831 
number of iterations: 16562 
    4000    14.058998      166          166            0 1.752029e-13            0          0.1 0.0090019355   0.19084239  0.029896777 
number of iterations: 16617 
    4100    14.269755      167          167            0 1.7815831e-13            0          0.1 0.0090019681   0.20136039  0.029896723 
number of iterations: 16671 
    4200    14.481992      168          168            0 1.8116356e-13            0          0.1 0.0090020013   0.21215738  0.029896668 
number of iterations: 16726 
    4300    14.694513      168          168            0 1.8421951e-13            0          0.1 0.0090020351   0.22323696  0.029896612 
number of iterations: 16780 
    4400    14.905549      169          169            0 1.8732702e-13            0          0.1 0.0090020694   0.23460259  0.029896554 
number of iterations: 16835 
    4500    15.121308      175          175            0 1.9048694e-13            0          0.1 0.0090021043   0.24625988  0.029896496 
number of iterations: 16180 
    4600     15.32585      183          183            0 1.9370016e-13            0          0.1 0.0090021285    0.2582076  0.029896456 
number of iterations: 16673 
    4700     15.53601      186          186            0 1.9696758e-13            0          0.1  0.009002155    0.2704518  0.029896412 
number of iterations: 16983 
    4800    15.751871      190          190            0 2.0029012e-13            0          0.1 0.0090021914   0.28299991  0.029896351 
number of iterations: 17038 
    4900    15.967894      196          196            0 2.0366871e-13            0          0.1 0.0090022283   0.29585456   0.02989629 
number of iterations: 17093 
    5000    16.185452      198          198            0 2.0710429e-13            0          0.1 0.0090022659   0.30902373  0.029896227 
number of iterations: 17147 
    5100    16.402402      204          204            0 2.1059782e-13            0          0.1 0.0090023041   0.32250983  0.029896164 
number of iterations: 17314 
    5200    16.620931      210          210            0 2.1415028e-13            0          0.1 0.0090023413   0.33631994  0.029896102 
number of iterations: 17258 
    5300    16.837867      212          212            0 2.1776267e-13            0          0.1 0.0090023807   0.35045745  0.029896036 
number of iterations: 17313 
    5400    17.056486      216          216            0 2.2143599e-13            0          0.1 0.0090024209   0.36492743  0.029895969 
number of iterations: 17367 
    5500    17.276531      221          221            0 2.2517128e-13            0          0.1 0.0090024617   0.37973486  0.029895901 
number of iterations: 17807 
    5600     17.49989      232          232            0 2.2896957e-13            0          0.1 0.0090025061   0.39488829  0.029895827 
number of iterations: 17883 
    5700    17.726048      237          237            0 2.3283194e-13            0          0.1 0.0090025511   0.41038904  0.029895752 
number of iterations: 17767 
    5800    17.948344      237          237            0 2.3675945e-13            0          0.1 0.0090025964   0.42620334  0.029895677 
number of iterations: 17603 
    5900    18.170855      242          242            0 2.4075322e-13            0          0.1 0.0090026402    0.4422844  0.029895604 
number of iterations: 17657 
    6000    18.394086      246          246            0 2.4481436e-13            0          0.1 0.0090026847   0.45864031   0.02989553 
number of iterations: 17652 
    6100    18.616553      252          252            0  2.48944e-13            0          0.1 0.0090027298   0.47527211  0.029895455 
number of iterations: 15742 
    6200    18.816025      255          255            0 2.531433e-13            0          0.1 0.0090027644   0.49218445  0.029895397 
number of iterations: 17768 
    6300    19.063239      260          260            0 2.5741344e-13            0          0.1 0.0090028093   0.50938208  0.029895322 
number of iterations: 17849 
    6400    19.318082      267          267            0 2.6175561e-13            0          0.1 0.0090028567    0.5268698  0.029895243 
number of iterations: 17979 
    6500    19.546999      272          272            0 2.6617103e-13            0          0.1    0.0090029    0.5446525  0.029895171 
number of iterations: 17958 
    6600    19.785479      279          279            0 2.7066092e-13            0          0.1 0.0090029489   0.56273517   0.02989509 
number of iterations: 18013 
    6700    20.015316      281          281            0 2.7522655e-13            0          0.1 0.0090029987   0.58112286  0.029895007 
number of iterations: 18068 
    6800    20.242145      285          285            0 2.798692e-13            0          0.1 0.0090030493   0.59982072  0.029894923 
number of iterations: 17841 
    6900    20.466664      287          287            0 2.8459017e-13            0          0.1 0.0090030997     0.618834  0.029894839 
number of iterations: 18172 
    7000    20.697924      292          292            0 2.8939076e-13            0          0.1  0.009003152   0.63816799  0.029894752 
number of iterations: 18227 
    7100    20.925818      294          294            0 2.9427234e-13            0          0.1 0.0090032051   0.65782813  0.029894663 
number of iterations: 18217 
    7200    21.152618      297          297            0 2.9923626e-13            0          0.1 0.0090032584    0.6778199  0.029894574 
number of iterations: 18485 
    7300    21.384403      299          299            0 3.0428392e-13            0          0.1 0.0090033146   0.69814891  0.029894481 
number of iterations: 18391 
    7400    21.613224      305          305            0 3.0941672e-13            0          0.1 0.0090033705   0.71882083  0.029894388 
number of iterations: 18446 
    7500    21.846938      305          305            0 3.146361e-13            0          0.1 0.0090034273   0.73984146  0.029894293 
number of iterations: 18500 
    7600    22.076973      307          307            0 3.1994353e-13            0          0.1 0.0090034852   0.76121667  0.029894197 
number of iterations: 18420 
    7700    22.307684      309          309            0 3.2534048e-13            0          0.1 0.0090035413   0.78295245  0.029894103 
number of iterations: 18607 
    7800    22.544903      315          315            0 3.3082848e-13            0          0.1 0.0090036011   0.80505488  0.029894004 
number of iterations: 18608 
    7900    22.778032      319          319            0 3.3640904e-13            0          0.1 0.0090036616   0.82753014  0.029893903 
number of iterations: 18715 
    8000    23.013976      324          324            0 3.4208374e-13            0          0.1 0.0090037234   0.85038451    0.0298938 
number of iterations: 18769 
    8100    23.248907      328          328            0 3.4785417e-13            0          0.1 0.0090037862   0.87362441  0.029893696 
number of iterations: 18824 
    8200    23.485759      338          338            0 3.5372193e-13            0          0.1 0.0090038501   0.89725633  0.029893589 
number of iterations: 19232 
    8300    23.725501      344          344            0 3.5968868e-13            0          0.1 0.0090039247   0.92128689  0.029893465 
number of iterations: 18939 
    8400    23.962157      351          351            0 3.6575607e-13            0          0.1 0.0090039909   0.94572282  0.029893355 
number of iterations: 18993 
    8500    24.200668      353          353            0 3.7192581e-13            0          0.1 0.0090040582   0.97057094  0.029893243 
number of iterations: 19062 
    8600    24.439202      360          360            0 3.7819962e-13            0          0.1 0.0090041298   0.99583822  0.029893124 
number of iterations: 18754 
    8700    24.675386      369          369            0 3.8457927e-13            0          0.1 0.0090041996    1.0215317  0.029893007 
Loop time of 24.6754 on 32 procs for 8700 steps with 369 atoms

Performance: 304627212.044 tau/day, 352.578 timesteps/s
98.4% CPU use with 32 MPI tasks x no OpenMP threads

MPI task timing breakdown:
Section |  min time  |  avg time  |  max time  |%varavg| %total
---------------------------------------------------------------
Pair    | 0.0004264  | 0.002158   | 0.005411   |   2.4 |  0.01
Neigh   | 0.001028   | 0.0019252  | 0.0046887  |   1.7 |  0.01
Comm    | 0.010133   | 0.03366    | 0.055855   |   6.8 |  0.14
Output  | 0.94469    | 0.94511    | 0.94623    |   0.0 |  3.83
Modify  | 23.644     | 23.647     | 23.652     |   0.0 | 95.83
Other   |            | 0.04508    |            |       |  0.18

Nlocal:    11.5312 ave 46 max 0 min
Histogram: 4 12 9 2 3 0 0 0 1 1
Nghost:    5.34375 ave 16 max 0 min
Histogram: 7 4 8 3 1 3 3 0 2 1
Neighs:    11.5 ave 46 max 0 min
Histogram: 5 12 6 5 1 1 1 0 0 1

Total # of neighbors = 368
Ave neighs/atom = 0.99729
Neighbor list builds = 101
Dangerous builds = 0
Total wall time: 0:00:24
