LAMMPS (20 Nov 2019)
Reading data file ...
  orthogonal box = (0 0 0) to (0.0001 0.0001 0.0001)
  2 by 4 by 4 MPI processor grid
  reading atoms ...
  100 atoms
  4 nutrients
Lattice spacing in x,y,z = 100 100 100
100 atoms in group CYANO
0 atoms in group ECW
Model is defined as a closed system. 
Neighbor list info ...
  update every 1 steps, delay 0 steps, check yes
  max neighbors/atom: 5000, page size: 100000
  master list distance cutoff = 2.43e-06
  ghost atom cutoff = 2.43e-06
  binsize = 1.215e-06, bins = 83 83 83
  1 neighbor lists, perpetual/occasional/extra = 1 0 0
  (1) pair gran/hooke/history, perpetual
      attributes: half, newton off, size, history
      pair build: half/size/bin/newtoff
      stencil: half/bin/3d/newtoff
      bin: standard
Setting up Verlet run ...
  Unit style    : lj
  Current step  : 0
  Time step     : 10
Per MPI rank memory allocation (min/avg/max) = 5.852 | 9.762 | 10.91 Mbytes
Step CPU Atoms c_myNtypes[1] c_myNtypes[2] c_myMass[1] c_myMass[2] c_myCon[1] c_myCon[2] c_myCon[3] c_myCon[4] 
       0            0      100          100            0 9.0027951e-14            0          0.1        0.009     3.42e-20       0.0299 
number of iterations: 120416 
     100    1.3134262      100          100            0 9.1556427e-14            0          0.1 0.0090011571 1.8457875e-05  0.029898073 
number of iterations: 104749 
     200    2.4616259      100          100            0 9.3110854e-14            0          0.1 0.0090011768 4.9151742e-05  0.029898041 
number of iterations: 93822 
     300    3.4589546      100          100            0 9.4691671e-14            0          0.1 0.0090011968 9.5941786e-05  0.029898007 
number of iterations: 83833 
     400    4.3560593      101          101            0 9.6299327e-14            0          0.1 0.0090012171 0.0001671062  0.029897974 
number of iterations: 74379 
     500    5.2118645      104          104            0 9.7934278e-14            0          0.1  0.009001238 0.0002752266  0.029897939 
number of iterations: 65230 
     600    5.9325665      105          105            0 9.9596986e-14            0          0.1  0.009001259 0.00043956102  0.029897904 
number of iterations: 56157 
     700    6.5790383      106          106            0 1.0128792e-13            0          0.1 0.0090012904 0.00068981249  0.029897851 
number of iterations: 47228 
     800    7.1342472      109          109            0 1.0300757e-13            0          0.1 0.0090013167 0.0010737521  0.029897808 
number of iterations: 38021 
     900    7.5925563      111          111            0 1.0475641e-13            0          0.1  0.009001339 0.0016722083   0.02989777 
number of iterations: 28103 
    1000    7.9609713      113          113            0 1.0653494e-13            0          0.1 0.0090013617 0.0026447952  0.029897733 
number of iterations: 16864 
    1100    8.2118892      114          114            0 1.0834367e-13            0          0.1 0.0090013849 0.0044736943  0.029897694 
number of iterations: 16919 
    1200    8.4467521      116          116            0 1.1018311e-13            0          0.1 0.0090014084 0.0072042822  0.029897655 
number of iterations: 16973 
    1300    8.6754659      117          117            0 1.1205378e-13            0          0.1 0.0090014323  0.010474511  0.029897615 
number of iterations: 18208 
    1400    8.9156528      118          118            0 1.139562e-13            0          0.1 0.0090014571  0.014143149  0.029897574 
number of iterations: 17105 
    1500    9.1416584      119          119            0 1.1589093e-13            0          0.1 0.0090014819  0.018168656  0.029897533 
number of iterations: 17159 
    1600    9.3675248      120          120            0 1.178585e-13            0          0.1  0.009001507  0.022530707  0.029897491 
number of iterations: 17213 
    1700    9.5909969      122          122            0 1.1985948e-13            0          0.1 0.0090015326  0.027218166  0.029897448 
number of iterations: 17268 
    1800    9.8167154      126          126            0 1.2189443e-13            0          0.1 0.0090015586  0.032211618  0.029897405 
number of iterations: 17322 
    1900    10.041415      129          129            0 1.2396393e-13            0          0.1 0.0090015851  0.037449025  0.029897361 
number of iterations: 17376 
    2000    10.265212      131          131            0 1.2606856e-13            0          0.1  0.009001612  0.042922249  0.029897316 
number of iterations: 17430 
    2100    10.489248      132          132            0 1.2820893e-13            0          0.1 0.0090016394  0.048624664   0.02989727 
number of iterations: 17484 
    2200    10.713701      132          132            0 1.3038563e-13            0          0.1 0.0090016672  0.054552541  0.029897224 
number of iterations: 17538 
    2300    10.938235      134          134            0 1.3259929e-13            0          0.1 0.0090016955  0.060702307  0.029897177 
number of iterations: 17592 
    2400    11.162233      136          136            0 1.3485053e-13            0          0.1 0.0090017243  0.067071879  0.029897129 
number of iterations: 17647 
    2500    11.386473      140          140            0   1.3714e-13            0          0.1 0.0090017536  0.073660414   0.02989708 
number of iterations: 17701 
    2600    11.613581      140          140            0 1.3946833e-13            0          0.1 0.0090017834  0.080466871  0.029897031 
number of iterations: 17755 
    2700    11.838936      141          141            0 1.418362e-13            0          0.1 0.0090018136  0.087492155   0.02989698 
number of iterations: 17809 
    2800    12.094134      143          143            0 1.4424426e-13            0          0.1 0.0090018444   0.09473541  0.029896929 
number of iterations: 17863 
    2900    12.320081      143          143            0 1.4669321e-13            0          0.1 0.0090018757   0.10219819  0.029896877 
number of iterations: 17917 
    3000    12.550655      148          148            0 1.4918374e-13            0          0.1 0.0090019076   0.10988157  0.029896824 
number of iterations: 17972 
    3100    12.776862      148          148            0 1.5171655e-13            0          0.1   0.00900194   0.11778725   0.02989677 
number of iterations: 18026 
    3200     13.00346      149          149            0 1.5429236e-13            0          0.1 0.0090019729   0.12591654  0.029896715 
number of iterations: 18080 
    3300     13.23076      150          150            0 1.5691191e-13            0          0.1 0.0090020064   0.13427031  0.029896659 
number of iterations: 18134 
    3400    13.458802      153          153            0 1.5957593e-13            0          0.1 0.0090020405   0.14285163  0.029896602 
number of iterations: 18188 
    3500    13.687422      156          156            0 1.6228517e-13            0          0.1 0.0090020751   0.15166339  0.029896545 
number of iterations: 18242 
    3600    13.916208      156          156            0 1.6504042e-13            0          0.1 0.0090021103   0.16070684  0.029896486 
number of iterations: 18296 
    3700    14.145533      158          158            0 1.6784244e-13            0          0.1 0.0090021462   0.16998435  0.029896426 
number of iterations: 18351 
    3800    14.374015      160          160            0 1.7069203e-13            0          0.1 0.0090021826   0.17949958  0.029896366 
number of iterations: 18405 
    3900    14.603734      166          166            0 1.7359001e-13            0          0.1 0.0090022197   0.18925609  0.029896304 
number of iterations: 18459 
    4000    14.836193      172          172            0 1.7653718e-13            0          0.1 0.0090022574   0.19925572  0.029896241 
number of iterations: 18513 
    4100    15.101695      173          173            0 1.7953439e-13            0          0.1 0.0090022957   0.20950173  0.029896178 
number of iterations: 18567 
    4200    15.334376      178          178            0 1.8258249e-13            0          0.1 0.0090023347   0.21999725  0.029896113 
number of iterations: 18621 
    4300    15.566441      182          182            0 1.8568234e-13            0          0.1 0.0090023743   0.23074527  0.029896047 
number of iterations: 18676 
    4400    15.797992      183          183            0 1.8883481e-13            0          0.1 0.0090024146   0.24174867   0.02989598 
number of iterations: 18730 
    4500    16.031221      185          185            0 1.9204081e-13            0          0.1 0.0090024556   0.25301205  0.029895911 
number of iterations: 18489 
    4600    16.263714      188          188            0 1.9530124e-13            0          0.1 0.0090024967   0.26453614  0.029895843 
number of iterations: 17719 
    4700    16.488646      193          193            0 1.9861702e-13            0          0.1 0.0090025343    0.2762981   0.02989578 
number of iterations: 18872 
    4800    16.723762      195          195            0 2.019891e-13            0          0.1 0.0090025773   0.28832901  0.029895709 
number of iterations: 18926 
    4900    16.961448      196          196            0 2.0541843e-13            0          0.1  0.009002621   0.30063326  0.029895636 
number of iterations: 17023 
    5000    17.177997      199          199            0 2.0890598e-13            0          0.1 0.0090026541    0.3131786  0.029895581 
number of iterations: 20226 
    5100    17.430644      202          202            0 2.1245274e-13            0          0.1 0.0090027108   0.32604046  0.029895486 
number of iterations: 19089 
    5200    17.668935      206          206            0 2.1605972e-13            0          0.1 0.0090027568   0.33918871   0.02989541 
number of iterations: 19270 
    5300    17.908907      214          214            0 2.1972794e-13            0          0.1 0.0090028028   0.35262847  0.029895333 
number of iterations: 19199 
    5400    18.151919      219          219            0 2.2345843e-13            0          0.1 0.0090028504   0.36636083  0.029895254 
number of iterations: 19253 
    5500    18.390803      220          220            0 2.2725226e-13            0          0.1 0.0090028988   0.38039242  0.029895173 
number of iterations: 19307 
    5600    18.633117      227          227            0 2.311105e-13            0          0.1  0.009002948   0.39473001  0.029895091 
number of iterations: 19362 
    5700    18.874596      228          228            0 2.3503425e-13            0          0.1 0.0090029977    0.4093737  0.029895009 
number of iterations: 19416 
    5800    19.117093      236          236            0 2.3902461e-13            0          0.1 0.0090030486   0.42433209  0.029894924 
number of iterations: 19470 
    5900    19.361701      244          244            0 2.4308272e-13            0          0.1 0.0090030998   0.43960509  0.029894839 
number of iterations: 19524 
    6000    19.605386      253          253            0 2.4720972e-13            0          0.1 0.0090031525   0.45520416  0.029894751 
number of iterations: 19578 
    6100     19.85045      254          254            0 2.514068e-13            0          0.1  0.009003206   0.47113075  0.029894662 
number of iterations: 19606 
    6200    20.098485      256          256            0 2.5567513e-13            0          0.1 0.0090032602   0.48739196  0.029894571 
number of iterations: 19686 
    6300    20.345426      263          263            0 2.6001592e-13            0          0.1 0.0090033156   0.50399202  0.029894479 
number of iterations: 19740 
    6400    20.591259      270          270            0 2.6443042e-13            0          0.1 0.0090033719   0.52093819  0.029894386 
number of iterations: 19795 
    6500    20.838425      273          273            0 2.6891986e-13            0          0.1 0.0090034291   0.53823474   0.02989429 
number of iterations: 19849 
    6600     21.08552      274          274            0 2.7348553e-13            0          0.1 0.0090034873   0.55588911  0.029894193 
number of iterations: 19903 
    6700    21.333794      277          277            0 2.781287e-13            0          0.1 0.0090035466   0.57390558  0.029894095 
number of iterations: 19957 
    6800    21.582625      280          280            0 2.8285071e-13            0          0.1 0.0090036068   0.59229177  0.029893994 
number of iterations: 19992 
    6900    21.830835      286          286            0 2.8765289e-13            0          0.1 0.0090036675     0.611052  0.029893893 
number of iterations: 20065 
    7000    22.126976      290          290            0 2.925366e-13            0          0.1 0.0090037298   0.63019403   0.02989379 
number of iterations: 20119 
    7100     22.39088      292          292            0 2.9750322e-13            0          0.1 0.0090037931   0.64972219  0.029893684 
number of iterations: 20174 
    7200    22.643747      297          297            0 3.0255417e-13            0          0.1 0.0090038575   0.66964443  0.029893577 
number of iterations: 20228 
    7300    22.892799      301          301            0 3.0769086e-13            0          0.1  0.009003923   0.68996886  0.029893468 
number of iterations: 20282 
    7400    23.145258      302          302            0 3.1291477e-13            0          0.1 0.0090039896   0.71066908  0.029893357 
number of iterations: 20336 
    7500    23.398637      305          305            0 3.1822737e-13            0          0.1 0.0090040573   0.73172074  0.029893244 
number of iterations: 20390 
    7600    23.652285      311          311            0 3.2363017e-13            0          0.1 0.0090041262   0.75312982  0.029893129 
number of iterations: 20445 
    7700    23.904842      314          314            0 3.2912469e-13            0          0.1 0.0090041963   0.77490237  0.029893013 
number of iterations: 20499 
    7800    24.160303      322          322            0 3.3471249e-13            0          0.1 0.0090042675   0.79704457  0.029892894 
number of iterations: 20073 
    7900    24.409519      327          327            0 3.4039517e-13            0          0.1 0.0090043381    0.8195627  0.029892777 
number of iterations: 20625 
    8000    24.667076      333          333            0 3.4617432e-13            0          0.1 0.0090044129   0.84246312  0.029892652 
number of iterations: 20815 
    8100    24.925181      339          339            0 3.5205159e-13            0          0.1 0.0090044885   0.86575234  0.029892526 
number of iterations: 19802 
    8200    25.211652      348          348            0 3.5802865e-13            0          0.1 0.0090045606   0.88943696  0.029892406 
number of iterations: 20752 
    8300    25.471321      350          350            0 3.6410718e-13            0          0.1  0.009004638   0.91352369  0.029892277 
number of iterations: 20806 
    8400    25.732065      353          353            0 3.7028891e-13            0          0.1 0.0090047167   0.93801936  0.029892146 
number of iterations: 21175 
    8500    25.997304      362          362            0 3.7657559e-13            0          0.1  0.009004801   0.96293092  0.029892006 
number of iterations: 20390 
    8600     26.25414      368          368            0 3.8296901e-13            0          0.1 0.0090048731   0.98826542  0.029891886 
number of iterations: 20983 
    8700    26.515959      374          374            0 3.8947097e-13            0          0.1 0.0090049564      1.01403  0.029891747 
Loop time of 26.516 on 32 procs for 8700 steps with 374 atoms

Performance: 283481893.872 tau/day, 328.104 timesteps/s
98.8% CPU use with 32 MPI tasks x no OpenMP threads

MPI task timing breakdown:
Section |  min time  |  avg time  |  max time  |%varavg| %total
---------------------------------------------------------------
Pair    | 0.00042098 | 0.0021127  | 0.0070804  |   2.8 |  0.01
Neigh   | 0.0010095  | 0.0019069  | 0.0047262  |   1.8 |  0.01
Comm    | 0.013398   | 0.031653   | 0.052348   |   6.1 |  0.12
Output  | 0.80581    | 0.80639    | 0.80749    |   0.0 |  3.04
Modify  | 25.624     | 25.627     | 25.633     |   0.0 | 96.65
Other   |            | 0.04686    |            |       |  0.18

Nlocal:    11.6875 ave 55 max 0 min
Histogram: 9 10 6 3 3 0 0 0 0 1
Nghost:    5.15625 ave 13 max 0 min
Histogram: 6 3 3 5 4 2 4 2 1 2
Neighs:    10.9375 ave 50 max 0 min
Histogram: 10 7 7 3 2 2 0 0 0 1

Total # of neighbors = 350
Ave neighs/atom = 0.935829
Neighbor list builds = 98
Dangerous builds = 0
Total wall time: 0:00:26
