LAMMPS (20 Nov 2019)
Reading data file ...
  orthogonal box = (0 0 0) to (0.0001 0.0001 1e-05)
  8 by 4 by 1 MPI processor grid
  reading atoms ...
  100 atoms
  4 nutrients
Lattice spacing in x,y,z = 100 100 100
50 atoms in group CYANO
50 atoms in group ECW
Model is defined as a closed system. 
Neighbor list info ...
  update every 1 steps, delay 0 steps, check yes
  max neighbors/atom: 5000, page size: 100000
  master list distance cutoff = 2.43e-06
  ghost atom cutoff = 2.43e-06
  binsize = 1.215e-06, bins = 83 83 9
  1 neighbor lists, perpetual/occasional/extra = 1 0 0
  (1) pair gran/hooke/history, perpetual
      attributes: half, newton off, size, history
      pair build: half/size/bin/newtoff
      stencil: half/bin/3d/newtoff
      bin: standard
Setting up Verlet run ...
  Unit style    : lj
  Current step  : 0
  Time step     : 10
Per MPI rank memory allocation (min/avg/max) = 6.792 | 10.95 | 12.11 Mbytes
Step CPU Atoms c_myNtypes[1] c_myNtypes[2] c_myMass[1] c_myMass[2] c_myCon[1] c_myCon[2] c_myCon[3] c_myCon[4] 
       0            0      100           50           50 4.4005776e-14 8.4750273e-15          0.1        0.009     3.42e-20       0.0299 
number of iterations: 326936 
     100    15.793603      129           50           79 4.4588951e-14 8.468152e-15          0.1 0.0090007633  0.035365955  0.029898729 
number of iterations: 3746 
     200    16.112527      142           50           92 4.5179853e-14 8.4616252e-15          0.1 0.0090007734  0.070069608  0.029898712 
number of iterations: 2136 
     300    16.347094      142           50           92 4.5778586e-14 8.4554596e-15          0.1 0.0090007836   0.10521906  0.029898695 
number of iterations: 1724 
     400    16.567035      142           50           92 4.6385254e-14 8.4496526e-15          0.1  0.009000794   0.14082494  0.029898677 
number of iterations: 1538 
     500    16.779464      144           52           92 4.6999961e-14 8.4442013e-15          0.1 0.0090007995   0.17689395  0.029898668 
number of iterations: 1455 
     600    16.998347      144           52           92 4.7622815e-14 8.4391027e-15          0.1   0.00900081   0.21343284  0.029898651 
number of iterations: 1577 
     700    17.210485      146           54           92 4.8253923e-14 8.4343525e-15          0.1 0.0090008228   0.25044813  0.029898629 
number of iterations: 1456 
     800    17.426741      146           54           92 4.8893394e-14 8.4299483e-15          0.1 0.0090008337   0.28794652  0.029898611 
number of iterations: 1460 
     900    17.633346      146           54           92 4.954134e-14 8.4258873e-15          0.1 0.0090008448   0.32593461  0.029898593 
number of iterations: 1462 
    1000    17.862206      146           54           92 5.0197872e-14 8.4221665e-15          0.1 0.0090008559   0.36441908  0.029898574 
number of iterations: 1619 
    1100    18.069578      148           56           92 5.0863105e-14 8.4187831e-15          0.1 0.0090008694   0.40340686  0.029898552 
number of iterations: 1539 
    1200    18.255925      149           57           92 5.1537154e-14 8.4157346e-15          0.1 0.0090008824    0.4429046   0.02989853 
number of iterations: 1472 
    1300    18.433447      149           57           92 5.2220136e-14 8.4130182e-15          0.1 0.0090008941   0.48291926  0.029898511 
number of iterations: 1475 
    1400    18.622961      149           57           92 5.2912168e-14 8.4106315e-15          0.1 0.0090009059   0.52345786  0.029898491 
number of iterations: 1477 
    1500    18.805864      149           57           92 5.3613372e-14 8.4085718e-15          0.1 0.0090009179   0.56452749  0.029898471 
number of iterations: 1480 
    1600    18.980187      149           57           92 5.4323867e-14 8.4068366e-15          0.1 0.0090009301   0.60613537  0.029898451 
number of iterations: 1486 
    1700    19.191998      150           58           92 5.5043779e-14 8.4054234e-15          0.1 0.0090009439   0.64828876  0.029898427 
number of iterations: 1486 
    1800    19.392579      150           58           92 5.5773231e-14 8.4043299e-15          0.1 0.0090009564   0.69099506  0.029898407 
number of iterations: 1489 
    1900    19.616131      150           58           92 5.651235e-14 8.4035536e-15          0.1 0.0090009691   0.73426174  0.029898386 
number of iterations: 1492 
    2000    19.825372      150           58           92 5.7261263e-14 8.4030922e-15          0.1 0.0090009819   0.77809638  0.029898364 
number of iterations: 1494 
    2100    20.088171      150           58           92 5.8020102e-14 8.4029433e-15          0.1 0.0090009949   0.82250665  0.029898342 
number of iterations: 1547 
    2200    20.270263      153           61           92 5.8788997e-14 8.4031049e-15          0.1 0.0090010045   0.86750031  0.029898327 
number of iterations: 1611 
    2300    20.451432      155           63           92 5.9568081e-14 8.4035746e-15          0.1 0.0090010196   0.91308526  0.029898301 
number of iterations: 1498 
    2400    20.645766      155           63           92 6.035749e-14 8.4043502e-15          0.1 0.0090010331   0.95926946  0.029898279 
number of iterations: 1501 
    2500    20.836474      155           63           92 6.115736e-14 8.4054293e-15          0.1 0.0090010468     1.006061  0.029898256 
number of iterations: 1666 
    2600    21.018184      156           64           92 6.196783e-14 8.4068101e-15          0.1 0.0090010641    1.0534681  0.029898227 
number of iterations: 1510 
    2700    21.217402      156           64           92 6.2789041e-14 8.4084902e-15          0.1 0.0090010782    1.1014989  0.029898204 
number of iterations: 1513 
    2800    21.403505      156           64           92 6.3621135e-14 8.4104676e-15          0.1 0.0090010924    1.1501621   0.02989818 
number of iterations: 1619 
    2900    21.614398      159           67           92 6.4464256e-14 8.4127404e-15          0.1 0.0090011057    1.1994659  0.029898158 
number of iterations: 1520 
    3000    21.839716      159           67           92 6.531855e-14 8.4153064e-15          0.1 0.0090011203    1.2494192  0.029898134 
number of iterations: 1523 
    3100    22.032239      159           67           92 6.6184165e-14 8.4181637e-15          0.1 0.0090011351    1.3000305  0.029898109 
number of iterations: 1526 
    3200    22.230954      159           67           92 6.7061251e-14 8.4213102e-15          0.1 0.0090011502    1.3513088  0.029898084 
number of iterations: 1529 
    3300    22.397627      160           68           92 6.7949961e-14 8.4247442e-15          0.1 0.0090011623     1.403263  0.029898063 
number of iterations: 1532 
    3400    22.586493      160           68           92 6.8850448e-14 8.4284636e-15          0.1 0.0090011777    1.4559021  0.029898038 
number of iterations: 1527 
    3500    22.755038      162           70           92 6.9762869e-14 8.4324666e-15          0.1  0.009001188    1.5092356  0.029898021 
number of iterations: 1536 
    3600    22.935608      162           70           92 7.0687381e-14 8.4367514e-15          0.1 0.0090012037    1.5632725  0.029897995 
number of iterations: 1627 
    3700    23.127762      163           71           92 7.1624145e-14 8.4413163e-15          0.1 0.0090012259    1.6180224  0.029897958 
number of iterations: 1541 
    3800    23.329176      164           72           92 7.2573323e-14 8.4461593e-15          0.1 0.0090012421    1.6734949  0.029897931 
number of iterations: 1594 
    3900    23.512153      165           73           92 7.353508e-14 8.4512793e-15          0.1 0.0090012616    1.7296996  0.029897898 
number of iterations: 1547 
    4000    23.746604      165           73           92 7.4509583e-14 8.456674e-15          0.1 0.0090012783    1.7866463   0.02989787 
number of iterations: 1550 
    4100    23.926746      166           74           92 7.5496999e-14 8.4623421e-15          0.1 0.0090012915     1.844345  0.029897848 
number of iterations: 1553 
    4200    24.158781      166           74           92 7.6497501e-14 8.4682815e-15          0.1 0.0090013086    1.9028057   0.02989782 
number of iterations: 1556 
    4300    24.358285      166           74           92 7.7511262e-14 8.4744905e-15          0.1 0.0090013259    1.9620387  0.029897791 
number of iterations: 1553 
    4400    24.540618      167           75           92 7.8538457e-14 8.4809677e-15          0.1 0.0090013384    2.0220544   0.02989777 
number of iterations: 1623 
    4500    24.725769      169           77           92 7.9579265e-14 8.4877114e-15          0.1 0.0090013549    2.0828634  0.029897743 
number of iterations: 1565 
    4600    24.911188      170           77           93 8.0633866e-14 8.4947199e-15          0.1 0.0090013728    2.1444761  0.029897713 
number of iterations: 1568 
    4700    25.148404      170           77           93 8.1702443e-14 8.5019918e-15          0.1  0.009001391    2.2069035  0.029897682 
number of iterations: 1607 
    4800    25.337391      172           79           93 8.2785181e-14 8.5095255e-15          0.1 0.0090014094    2.2701562  0.029897652 
number of iterations: 1570 
    4900    25.516189      172           79           93 8.3882267e-14 8.5173194e-15          0.1 0.0090014281    2.3342455  0.029897621 
number of iterations: 1573 
    5000    25.722096      172           79           93 8.4993892e-14 8.5253721e-15          0.1  0.009001447    2.3991825  0.029897589 
number of iterations: 1533 
    5100    25.907338      178           85           93 8.6120249e-14 8.5336818e-15          0.1 0.0090014491    2.4649784  0.029897586 
number of iterations: 1569 
    5200    26.085884      178           85           93 8.7261532e-14 8.5422475e-15          0.1 0.0090014636    2.5316449  0.029897561 
number of iterations: 1670 
    5300    26.284365      180           87           93 8.841794e-14 8.5510678e-15          0.1 0.0090014794    2.5991935  0.029897535 
number of iterations: 1757 
    5400     26.49583      181           88           93 8.9589673e-14 8.5601412e-15          0.1 0.0090015097    2.6676362  0.029897485 
number of iterations: 1588 
    5500    26.672802      181           88           93 9.0776933e-14 8.5694663e-15          0.1 0.0090015297    2.7369848  0.029897451 
number of iterations: 1591 
    5600    26.861379      182           89           93 9.1979928e-14 8.5790418e-15          0.1 0.0090015546    2.8072514   0.02989741 
number of iterations: 1611 
    5700    27.029293      184           91           93 9.3198865e-14 8.5888664e-15          0.1 0.0090015764    2.8784486  0.029897374 
number of iterations: 1569 
    5800    27.215101      187           94           93 9.4433956e-14 8.5989386e-15          0.1 0.0090015911    2.9505886  0.029897349 
number of iterations: 1626 
    5900    27.463459      188           95           93 9.5685414e-14 8.6092571e-15          0.1 0.0090016091    3.0236839  0.029897319 
number of iterations: 1602 
    6000    27.663301      188           95           93 9.6953457e-14 8.6198207e-15          0.1 0.0090016304    3.0977474  0.029897284 
number of iterations: 1648 
    6100    27.862315      189           96           93 9.8238304e-14 8.6306283e-15          0.1  0.009001656     3.172792  0.029897241 
number of iterations: 1609 
    6200    28.053291      189           96           93 9.9540178e-14 8.6416785e-15          0.1 0.0090016779    3.2488308  0.029897205 
number of iterations: 1609 
    6300    28.250619      190           97           93 1.008593e-13 8.6529703e-15          0.1 0.0090016986     3.325877   0.02989717 
number of iterations: 1612 
    6400     28.45981      190           97           93 1.0219591e-13 8.6645026e-15          0.1 0.0090017211    3.4039441  0.029897133 
number of iterations: 1621 
    6500     28.64688      192           99           93 1.0355023e-13 8.6762741e-15          0.1 0.0090017461    3.4830454  0.029897091 
number of iterations: 1711 
    6600    28.841584      193          100           93 1.049225e-13 8.6882837e-15          0.1 0.0090017739    3.5631951  0.029897045 
number of iterations: 1623 
    6700    29.017527      193          100           93 1.0631296e-13 8.7005301e-15          0.1 0.0090017974    3.6444071  0.029897006 
number of iterations: 1749 
    6800    29.225951      198          105           93 1.0772184e-13 8.7130124e-15          0.1 0.0090018193    3.7266958  0.029896969 
number of iterations: 1584 
    6900     29.42021      200          107           93 1.0914939e-13 8.7257293e-15          0.1 0.0090018354    3.8100753  0.029896942 
number of iterations: 1707 
    7000    29.613793      204          111           93 1.1059586e-13 8.7386797e-15          0.1 0.0090018581      3.89456  0.029896904 
number of iterations: 1537 
    7100    29.805212      206          113           93 1.120615e-13 8.7518626e-15          0.1  0.009001877    3.9801652  0.029896873 
number of iterations: 1623 
    7200    30.146226      206          113           93 1.1354656e-13 8.7652773e-15          0.1 0.0090019019    4.0669052  0.029896831 
number of iterations: 1634 
    7300    30.349875      208          115           93 1.150513e-13 8.7789226e-15          0.1 0.0090019306    4.1547955  0.029896784 
number of iterations: 1605 
    7400    30.550214      211          118           93 1.1657598e-13 8.7927974e-15          0.1 0.0090019552    4.2438511  0.029896743 
number of iterations: 1784 
    7500    30.764015      214          121           93 1.1812087e-13 8.8069007e-15          0.1 0.0090019858     4.334088  0.029896692 
number of iterations: 1648 
    7600    30.939888      214          121           93 1.1968623e-13 8.8212314e-15          0.1 0.0090020121    4.4255218  0.029896648 
number of iterations: 1656 
    7700    31.133222      214          121           93 1.2127234e-13 8.835789e-15          0.1 0.0090020388    4.5181684  0.029896603 
number of iterations: 1650 
    7800    31.308498      218          125           93 1.2287947e-13 8.8505721e-15          0.1 0.0090020679     4.612044  0.029896555 
number of iterations: 1657 
    7900    31.487002      218          125           93 1.2450789e-13 8.8655801e-15          0.1 0.0090020953     4.707165  0.029896509 
number of iterations: 1654 
    8000    31.666882      219          126           93 1.2615789e-13 8.8808116e-15          0.1 0.0090021231    4.8035483  0.029896463 
number of iterations: 1666 
    8100    31.846363      221          128           93 1.2782976e-13 8.8962661e-15          0.1 0.0090021543    4.9012102  0.029896411 
number of iterations: 1665 
    8200    32.038948      222          129           93 1.2952379e-13 8.9119426e-15          0.1 0.0090021829    5.0001681  0.029896363 
number of iterations: 1643 
    8300    32.241193      225          132           93 1.3124026e-13 8.9278403e-15          0.1 0.0090022126    5.1004389  0.029896314 
number of iterations: 1654 
    8400    32.431478      228          135           93 1.3297949e-13 8.9439583e-15          0.1  0.009002237    5.2020404  0.029896273 
number of iterations: 1686 
    8500    32.613632      229          136           93 1.3474176e-13 8.9602957e-15          0.1 0.0090022635    5.3049901  0.029896229 
number of iterations: 1676 
    8600    32.817153      230          137           93 1.3652738e-13 8.9768517e-15          0.1 0.0090022935    5.4093058  0.029896179 
number of iterations: 1679 
    8700    33.008784      230          137           93 1.3833667e-13 8.9936254e-15          0.1  0.009002324     5.515006  0.029896128 
number of iterations: 1682 
    8800    33.216019      231          137           94 1.4016993e-13 9.0106161e-15          0.1 0.0090023548     5.622109  0.029896077 
number of iterations: 1650 
    8900    33.418413      235          141           94 1.4202749e-13 9.0278229e-15          0.1 0.0090023831    5.7306334   0.02989603 
number of iterations: 1729 
    9000    33.620117      238          144           94 1.4390967e-13 9.0452452e-15          0.1 0.0090024197     5.840598  0.029895969 
number of iterations: 1739 
    9100    33.843586      240          146           94 1.4581679e-13 9.062882e-15          0.1 0.0090024542    5.9520219  0.029895911 
number of iterations: 1691 
    9200     34.03691      240          146           94 1.4774918e-13 9.0807327e-15          0.1 0.0090024867    6.0649249  0.029895857 
number of iterations: 1675 
    9300     34.25332      243          149           94 1.4970718e-13 9.0987965e-15          0.1 0.0090025129    6.1793266  0.029895814 
number of iterations: 1604 
    9400    34.463048      244          150           94 1.5169113e-13 9.1170728e-15          0.1 0.0090025427    6.2952469  0.029895764 
number of iterations: 1739 
    9500    34.651106      244          150           94 1.5370137e-13 9.1355614e-15          0.1 0.0090025764    6.4127057  0.029895708 
number of iterations: 1702 
    9600    34.830816      250          155           95 1.5573825e-13 9.1542607e-15          0.1 0.0090026039    6.5317243  0.029895662 
number of iterations: 1791 
    9700    35.107875      251          156           95 1.5780213e-13 9.1731704e-15          0.1 0.0090026448    6.6523231  0.029895594 
number of iterations: 1706 
    9800    35.333869      252          157           95 1.5989335e-13 9.1922899e-15          0.1 0.0090026785     6.774523  0.029895538 
number of iterations: 1710 
    9900    35.529325      253          158           95 1.6201229e-13 9.2116185e-15          0.1 0.0090027178    6.8983453  0.029895472 
number of iterations: 1729 
   10000    35.730382      256          161           95 1.6415931e-13 9.2311557e-15          0.1 0.0090027399    7.0238116  0.029895436 
number of iterations: 1696 
   10100    35.926682      258          163           95 1.6633478e-13 9.2509006e-15          0.1 0.0090027722    7.1509437  0.029895382 
number of iterations: 1684 
   10200    36.144547      260          165           95 1.6853908e-13 9.2708527e-15          0.1 0.0090028042    7.2797639  0.029895329 
number of iterations: 1720 
   10300    36.353515      263          165           98 1.7077259e-13 9.2910111e-15          0.1 0.0090028387    7.4102945  0.029895271 
number of iterations: 1725 
   10400    36.564306      267          169           98 1.730357e-13 9.3113754e-15          0.1 0.0090028788    7.5425581  0.029895204 
number of iterations: 1700 
   10500    36.742237      272          174           98 1.753288e-13 9.3319451e-15          0.1 0.0090029163     7.676578  0.029895142 
number of iterations: 1745 
   10600    36.953537      274          175           99 1.7765229e-13  9.35272e-15          0.1 0.0090029583    7.8123775  0.029895072 
number of iterations: 1662 
   10700    37.150233      276          176          100 1.8000658e-13 9.3736991e-15          0.1 0.0090029869    7.9499803  0.029895024 
number of iterations: 1640 
   10800    37.355594      279          179          100 1.8239206e-13 9.3948821e-15          0.1   0.00900302    8.0894102  0.029894969 
number of iterations: 1677 
   10900    37.555739      281          181          100 1.8480915e-13 9.4162685e-15          0.1 0.0090030584    8.2306916  0.029894905 
number of iterations: 1725 
   11000    37.767251      282          181          101 1.8725828e-13 9.4378578e-15          0.1 0.0090030977    8.3738491   0.02989484 
number of iterations: 1797 
   11100    37.990307      290          189          101 1.8973986e-13 9.4596495e-15          0.1 0.0090031484    8.5189081  0.029894755 
number of iterations: 1762 
   11200    38.169012      291          189          102 1.9225433e-13 9.481643e-15          0.1 0.0090031928     8.665893  0.029894681 
number of iterations: 1744 
   11300    38.367467      292          189          103 1.9480212e-13 9.5038377e-15          0.1 0.0090032351    8.8148302  0.029894611 
number of iterations: 1751 
   11400    38.564919      297          194          103 1.9738367e-13 9.5262331e-15          0.1  0.009003284    8.9657448  0.029894529 
number of iterations: 1891 
   11500    38.760569      299          196          103 1.9999944e-13 9.5488287e-15          0.1   0.00900334    9.1186639  0.029894436 
number of iterations: 1736 
   11600    38.936829      305          200          105 2.0264987e-13 9.5716243e-15          0.1 0.0090033775     9.273614  0.029894374 
number of iterations: 1780 
   11700    39.128791      309          203          106 2.0533542e-13 9.5946195e-15          0.1 0.0090034252    9.4306215  0.029894294 
number of iterations: 1755 
   11800    39.339929      311          205          106 2.0805656e-13 9.6178137e-15          0.1 0.0090034706    9.5897139  0.029894219 
number of iterations: 1749 
   11900    39.547748      315          209          106 2.1081377e-13 9.6412064e-15          0.1 0.0090035064    9.7509193  0.029894159 
number of iterations: 1737 
   12000    39.744537      319          213          106 2.1360751e-13 9.6647975e-15          0.1 0.0090035572    9.9142649  0.029894074 
number of iterations: 1720 
   12100     39.95083      323          217          106 2.1643828e-13 9.6885865e-15          0.1 0.0090035917     10.07978  0.029894017 
number of iterations: 1792 
   12200    40.161991      324          218          106 2.1930656e-13 9.7125729e-15          0.1 0.0090036369    10.247493  0.029893942 
number of iterations: 1868 
   12300    40.358875      328          221          107 2.2221285e-13 9.7367564e-15          0.1 0.0090036956    10.417433  0.029893844 
number of iterations: 1856 
   12400    40.568772      329          222          107 2.2515765e-13 9.7611368e-15          0.1  0.009003745     10.58963  0.029893762 
number of iterations: 1781 
   12500    40.784473      331          224          107 2.2814148e-13 9.7857134e-15          0.1 0.0090037917    10.764115  0.029893684 
number of iterations: 1807 
   12600    40.970535      338          230          108 2.3116486e-13 9.810486e-15          0.1 0.0090038455    10.940916  0.029893594 
number of iterations: 1790 
   12700    41.193293      340          232          108 2.342283e-13 9.8354546e-15          0.1 0.0090038978    11.120066  0.029893507 
number of iterations: 1879 
   12800    41.393239      341          233          108 2.3733233e-13 9.8606186e-15          0.1 0.0090039478    11.301595  0.029893424 
number of iterations: 1873 
   12900    41.598612      346          238          108 2.404775e-13 9.8859774e-15          0.1 0.0090040024    11.485535  0.029893333 
number of iterations: 1791 
   13000    41.797534      349          241          108 2.4366435e-13 9.9115312e-15          0.1 0.0090040492    11.671919  0.029893255 
number of iterations: 1821 
   13100     42.02658      354          246          108 2.4689344e-13 9.9372795e-15          0.1 0.0090041151    11.860778  0.029893145 
number of iterations: 1861 
   13200    42.237244      359          250          109 2.5016531e-13 9.963222e-15          0.1 0.0090041743    12.052145  0.029893047 
number of iterations: 1818 
   13300     42.42433      361          252          109 2.5348055e-13 9.9893584e-15          0.1 0.0090042304    12.246054  0.029892953 
number of iterations: 1802 
   13400     42.60822      364          255          109 2.5683972e-13 1.0015688e-14          0.1 0.0090042819    12.442538  0.029892867 
number of iterations: 1815 
   13500    42.811886      367          258          109 2.602434e-13 1.0042212e-14          0.1 0.0090043347    12.641632  0.029892779 
number of iterations: 1811 
   13600    43.015988      372          263          109 2.636922e-13 1.0068928e-14          0.1 0.0090043842    12.843369  0.029892697 
number of iterations: 1784 
   13700    43.207746      377          268          109 2.6718669e-13 1.0095837e-14          0.1 0.0090044344    13.047787  0.029892613 
number of iterations: 1766 
   13800    43.411468      379          270          109 2.707275e-13 1.0122939e-14          0.1 0.0090044871    13.254919  0.029892526 
number of iterations: 1900 
   13900    43.610806      383          274          109 2.7431523e-13 1.0150233e-14          0.1 0.0090045456    13.464803  0.029892428 
number of iterations: 1843 
   14000    43.813452      387          278          109 2.779505e-13 1.017772e-14          0.1 0.0090046123    13.677473  0.029892317 
number of iterations: 1877 
   14100    44.046781      390          280          110 2.8163395e-13 1.0205398e-14          0.1 0.0090046795    13.892968  0.029892205 
number of iterations: 1833 
   14200    44.274931      396          286          110 2.8536621e-13 1.0233267e-14          0.1 0.0090047392    14.111326  0.029892106 
number of iterations: 1824 
   14300    44.470875      398          288          110 2.8914793e-13 1.0261329e-14          0.1 0.0090048021    14.332583  0.029892001 
number of iterations: 1902 
   14400    44.670593      403          293          110 2.9297977e-13 1.0289581e-14          0.1 0.0090048675    14.556779  0.029891892 
number of iterations: 1816 
   14500    44.867549      409          299          110 2.9686239e-13 1.0318025e-14          0.1 0.0090049281    14.783953  0.029891791 
number of iterations: 1845 
   14600    45.085394      414          302          112 3.0079646e-13 1.034666e-14          0.1 0.0090049903    15.014146  0.029891688 
number of iterations: 1772 
   14700     45.28731      415          302          113 3.0478267e-13 1.0375486e-14          0.1 0.0090050492    15.247395   0.02989159 
number of iterations: 1754 
   14800    45.482573      417          304          113 3.088217e-13 1.0404503e-14          0.1 0.0090051049    15.483742  0.029891497 
number of iterations: 1838 
   14900    45.665595      418          305          113 3.1291426e-13 1.0433711e-14          0.1 0.0090051686    15.723228  0.029891391 
number of iterations: 1919 
   15000    45.865546      421          308          113 3.1706105e-13 1.0463109e-14          0.1 0.0090052414    15.965895   0.02989127 
number of iterations: 1855 
   15100    46.114377      428          315          113 3.212628e-13 1.0492697e-14          0.1 0.0090053126    16.211784  0.029891151 
number of iterations: 1863 
   15200    46.292741      430          317          113 3.2552023e-13 1.0522476e-14          0.1  0.009005383    16.460939  0.029891034 
number of iterations: 1866 
   15300    46.493461      434          321          113 3.2983408e-13 1.0552444e-14          0.1 0.0090054581    16.713402  0.029890909 
number of iterations: 1884 
   15400    46.696104      436          323          113 3.342051e-13 1.0582603e-14          0.1 0.0090055343    16.969219  0.029890782 
number of iterations: 1862 
   15500    46.895934      440          327          113 3.3863404e-13 1.0612951e-14          0.1 0.0090056059    17.228432  0.029890663 
number of iterations: 1816 
   15600    47.100752      443          330          113 3.4312167e-13 1.0643489e-14          0.1 0.0090056723    17.491088  0.029890552 
number of iterations: 1855 
   15700    47.316244      451          338          113 3.4766878e-13 1.0674217e-14          0.1 0.0090057438    17.757231  0.029890433 
number of iterations: 1833 
   15800    47.526756      457          344          113 3.5227614e-13 1.0705134e-14          0.1 0.0090058132    18.026907  0.029890317 
number of iterations: 1915 
   15900    47.750494      463          349          114 3.5694457e-13 1.0736241e-14          0.1 0.0090058865    18.300165  0.029890195 
number of iterations: 1936 
   16000    47.963921      472          358          114 3.6167486e-13 1.0767538e-14          0.1 0.0090059761    18.577051  0.029890046 
number of iterations: 1923 
   16100    48.232943      479          365          114 3.6646783e-13 1.0799024e-14          0.1 0.0090060433    18.857613  0.029889934 
number of iterations: 1890 
   16200     48.42449      485          371          114 3.7132432e-13 1.0830699e-14          0.1 0.0090061156      19.1419  0.029889814 
number of iterations: 1852 
   16300    48.620294      490          376          114 3.7624517e-13 1.0862564e-14          0.1  0.009006185    19.429963  0.029889698 
number of iterations: 1891 
   16400    48.813678      492          377          115 3.8123124e-13 1.0894618e-14          0.1 0.0090062702    19.721851  0.029889556 
number of iterations: 1852 
   16500    49.006814      497          381          116 3.8628338e-13 1.0926862e-14          0.1 0.0090063435    20.017615  0.029889434 
number of iterations: 1923 
   16600    49.221534      505          388          117 3.9140247e-13 1.0959295e-14          0.1 0.0090064345    20.317305  0.029889283 
number of iterations: 1907 
   16700    49.414991      509          391          118 3.9658939e-13 1.0991917e-14          0.1 0.0090065213    20.620974  0.029889138 
number of iterations: 1920 
   16800    49.633321      513          395          118 4.0184506e-13 1.1024729e-14          0.1  0.009006609    20.928676  0.029888992 
number of iterations: 1889 
   16900    49.835353      517          399          118 4.0717038e-13 1.105773e-14          0.1  0.009006693    21.240464  0.029888852 
number of iterations: 1863 
   17000     50.02024      523          405          118 4.1256626e-13 1.109092e-14          0.1 0.0090067737    21.556392  0.029888718 
number of iterations: 1903 
   17100    50.342141      531          413          118 4.1803366e-13  1.11243e-14          0.1 0.0090068653    21.876515  0.029888565 
number of iterations: 1927 
   17200    50.552567      539          421          118 4.2357351e-13 1.1157869e-14          0.1 0.0090069403    22.200888   0.02988844 
number of iterations: 1913 
   17300    50.800737      544          426          118 4.2918677e-13 1.1191627e-14          0.1 0.0090070418    22.529568  0.029888271 
number of iterations: 1957 
   17400    51.010985      551          433          118 4.3487442e-13 1.1225575e-14          0.1 0.0090071486    22.862611  0.029888093 
number of iterations: 1891 
   17500    51.201889      557          439          118 4.4063744e-13 1.1259713e-14          0.1 0.0090072414    23.200076  0.029887939 
number of iterations: 1941 
   17600    51.401499      566          448          118 4.4647684e-13 1.129404e-14          0.1 0.0090073516    23.542022  0.029887755 
number of iterations: 2062 
   17700    51.627343      570          451          119 4.5239362e-13 1.1328557e-14          0.1 0.0090074614    23.888508  0.029887573 
number of iterations: 1926 
   17800    51.836974      573          454          119 4.5838881e-13 1.1363263e-14          0.1 0.0090075631    24.239594  0.029887403 
number of iterations: 1915 
   17900    52.046504      579          460          119 4.6446344e-13 1.1398159e-14          0.1 0.0090076619     24.59534  0.029887239 
number of iterations: 1973 
   18000    52.250399      587          468          119 4.7061858e-13 1.1433245e-14          0.1 0.0090077632    24.955809   0.02988707 
number of iterations: 1913 
   18100    52.466223      594          475          119 4.7685529e-13 1.1468521e-14          0.1 0.0090078666    25.321063  0.029886898 
number of iterations: 1983 
   18200    52.663474      603          484          119 4.8317465e-13 1.1503987e-14          0.1 0.0090079889    25.691168  0.029886694 
number of iterations: 1906 
   18300    52.854929      608          488          120 4.8957775e-13 1.1539644e-14          0.1  0.009008091    26.066186  0.029886524 
number of iterations: 1986 
   18400    53.082405      613          493          120 4.9606571e-13 1.157549e-14          0.1 0.0090082032    26.446182  0.029886337 
number of iterations: 1872 
   18500    53.287438      620          500          120 5.0263964e-13 1.1611527e-14          0.1 0.0090083034    26.831223   0.02988617 
number of iterations: 1906 
   18600    53.493038      623          503          120 5.0930069e-13 1.1647754e-14          0.1 0.0090084063    27.221376  0.029885999 
number of iterations: 1881 
   18700    53.697366      634          514          120 5.1605002e-13 1.1684172e-14          0.1 0.0090085007    27.616708  0.029885842 
number of iterations: 1979 
   18800    53.908109      642          522          120 5.2288879e-13 1.172078e-14          0.1 0.0090086218    28.017288   0.02988564 
number of iterations: 1965 
   18900    54.128065      646          525          121 5.2981819e-13 1.1757579e-14          0.1 0.0090087408    28.423186  0.029885442 
number of iterations: 1976 
   19000    54.400821      651          530          121 5.3683941e-13 1.1794569e-14          0.1 0.0090088665    28.834472  0.029885233 
number of iterations: 1898 
   19100    54.615934      665          544          121 5.4395368e-13 1.1831751e-14          0.1 0.0090089633    29.251217  0.029885072 
number of iterations: 1961 
   19200     54.83952      676          553          123 5.5116223e-13 1.1869123e-14          0.1 0.0090090787    29.673494  0.029884879 
number of iterations: 2008 
   19300    55.044576      681          558          123 5.5846631e-13 1.1906687e-14          0.1 0.0090092123    30.101377  0.029884657 
number of iterations: 1967 
   19400    55.307301      688          563          125 5.6586719e-13 1.1944443e-14          0.1 0.0090093447    30.534939  0.029884436 
number of iterations: 1997 
   19500    55.516913      689          564          125 5.7336614e-13 1.198239e-14          0.1 0.0090094652    30.974257  0.029884236 
number of iterations: 1970 
   19600    55.713773      695          568          127 5.8096446e-13 1.202053e-14          0.1 0.0090095803    31.419406  0.029884044 
number of iterations: 2004 
   19700    55.940009      700          573          127 5.8866348e-13 1.2058862e-14          0.1  0.009009713    31.870465  0.029883823 
number of iterations: 1985 
   19800    56.132958      707          579          128 5.9646453e-13 1.2097385e-14          0.1 0.0090098376    32.327511  0.029883616 
number of iterations: 2005 
   19900    56.332585      722          592          130 6.0436896e-13 1.2136102e-14          0.1 0.0090099767    32.790624  0.029883384 
number of iterations: 2023 
   20000    56.556579      730          599          131 6.1237813e-13 1.2175011e-14          0.1 0.0090101195    33.259883  0.029883146 
number of iterations: 1973 
   20100    56.766783      745          613          132 6.2049345e-13 1.2214113e-14          0.1 0.0090102564     33.73537  0.029882918 
number of iterations: 1965 
   20200    56.971595      751          619          132 6.2871631e-13 1.2253409e-14          0.1  0.009010392    34.217169  0.029882692 
number of iterations: 1882 
   20300    57.176079      759          627          132 6.3704814e-13 1.2292898e-14          0.1  0.009010501    34.705361  0.029882511 
number of iterations: 2028 
   20400    57.456371      771          638          133 6.4549038e-13 1.233258e-14          0.1 0.0090106423    35.200033  0.029882276 
number of iterations: 1964 
   20500    57.655052      783          650          133 6.540445e-13 1.2372456e-14          0.1 0.0090107896     35.70127   0.02988203 
number of iterations: 2089 
   20600    57.867103      790          657          133 6.6271198e-13 1.2412526e-14          0.1  0.009010942    36.209159  0.029881776 
number of iterations: 1963 
   20700    58.076934      801          668          133 6.7149432e-13 1.245279e-14          0.1 0.0090110723     36.72379   0.02988156 
number of iterations: 2029 
   20800     58.28752      811          677          134 6.8039305e-13 1.2493249e-14          0.1 0.0090112228     37.24525  0.029881309 
number of iterations: 2044 
   20900    58.508665      821          687          134 6.894097e-13 1.2533902e-14          0.1 0.0090113834    37.773631  0.029881042 
number of iterations: 2003 
   21000    58.756287      827          693          134 6.9854584e-13 1.2574751e-14          0.1 0.0090115289    38.309025  0.029880799 
number of iterations: 2062 
   21100    59.006206      831          697          134 7.0780305e-13 1.2615795e-14          0.1 0.0090117013    38.851524  0.029880512 
number of iterations: 1963 
   21200    59.211232      842          707          135 7.1718295e-13 1.2657034e-14          0.1  0.009011859    39.401223   0.02988025 
number of iterations: 2041 
   21300    59.422032      852          716          136 7.2668714e-13 1.2698469e-14          0.1 0.0090120113    39.958219  0.029879996 
number of iterations: 2035 
   21400    59.630541      870          733          137 7.3631728e-13  1.27401e-14          0.1 0.0090121592    40.522605   0.02987975 
number of iterations: 2001 
   21500    59.852887      873          736          137 7.4607505e-13 1.2781928e-14          0.1 0.0090122884    41.094481  0.029879534 
number of iterations: 2031 
   21600    60.069225      882          745          137 7.5596212e-13 1.2823952e-14          0.1 0.0090124543    41.673946  0.029879258 
number of iterations: 2077 
   21700    60.318885      889          751          138 7.6598022e-13 1.2866174e-14          0.1 0.0090126156    42.261101   0.02987899 
number of iterations: 2016 
   21800    60.530617      903          765          138 7.7613107e-13 1.2908592e-14          0.1 0.0090127823    42.856046  0.029878712 
number of iterations: 2052 
   21900    60.791883      907          769          138 7.8641645e-13 1.2951208e-14          0.1 0.0090129497    43.458887  0.029878433 
number of iterations: 2101 
   22000    61.006786      921          783          138 7.9683813e-13 1.2994022e-14          0.1 0.0090131388    44.069728  0.029878118 
number of iterations: 2021 
   22100    61.229111      930          791          139 8.0739792e-13 1.3037034e-14          0.1  0.009013286    44.688675  0.029877873 
number of iterations: 2037 
   22200    61.448896      939          800          139 8.1809764e-13 1.3080245e-14          0.1 0.0090134646    45.315836  0.029877576 
number of iterations: 2057 
   22300    61.690027      948          808          140 8.2893916e-13 1.3123655e-14          0.1 0.0090136523    45.951319  0.029877263 
number of iterations: 1988 
   22400    61.916772      967          826          141 8.3992435e-13 1.3167264e-14          0.1 0.0090138183    46.595234  0.029876987 
number of iterations: 2079 
   22500    62.143187      981          840          141 8.5105512e-13 1.3211072e-14          0.1  0.009013992    47.247693  0.029876698 
number of iterations: 2040 
   22600    62.379816      992          850          142 8.6233339e-13 1.325508e-14          0.1  0.009014188     47.90881  0.029876371 
number of iterations: 2031 
   22700    62.600744     1004          861          143 8.7376112e-13 1.3299288e-14          0.1 0.0090143431    48.578699  0.029876113 
number of iterations: 2109 
   22800     62.86171     1013          870          143 8.8534029e-13 1.3343697e-14          0.1  0.009014546    49.257478  0.029875775 
number of iterations: 2068 
   22900    63.074797     1029          885          144 8.9707291e-13 1.3388307e-14          0.1 0.0090147395    49.945262  0.029875453 
number of iterations: 2053 
   23000    63.301751     1038          894          144 9.0896101e-13 1.3433118e-14          0.1 0.0090149267    50.642172  0.029875141 
number of iterations: 2106 
   23100    63.525394     1048          904          144 9.2100665e-13 1.347813e-14          0.1 0.0090151269     51.34833  0.029874808 
number of iterations: 2092 
   23200    63.749668     1063          917          146 9.3321192e-13 1.3523345e-14          0.1 0.0090153317    52.063857  0.029874467 
number of iterations: 2072 
   23300    63.963616     1081          934          147 9.4557894e-13 1.3568762e-14          0.1 0.0090155445     52.78888  0.029874112 
number of iterations: 2108 
   23400    64.212917     1097          950          147 9.5810984e-13 1.3614382e-14          0.1 0.0090157341    53.523523  0.029873797 
number of iterations: 2090 
   23500    64.443262     1110          963          147 9.708068e-13 1.3660204e-14          0.1 0.0090159509    54.267912  0.029873436 
number of iterations: 2094 
   23600    64.656592     1120          973          147 9.8367202e-13 1.3706231e-14          0.1 0.0090161653    55.022178  0.029873079 
number of iterations: 2109 
   23700    64.900232     1131          983          148 9.9670773e-13 1.3752461e-14          0.1  0.009016386    55.786452  0.029872711 
number of iterations: 2103 
   23800    65.178043     1148         1000          148 1.0099162e-12 1.3798896e-14          0.1 0.0090165922    56.560866  0.029872368 
number of iterations: 2112 
   23900    65.411514     1165         1016          149 1.0232997e-12 1.3845535e-14          0.1 0.0090168106    57.345554  0.029872004 
number of iterations: 2120 
   24000    65.651161     1175         1024          151 1.0368605e-12 1.389238e-14          0.1 0.0090170433    58.140654  0.029871617 
number of iterations: 2128 
   24100    65.891362     1196         1042          154 1.0506011e-12 1.393943e-14          0.1 0.0090172723    58.946302  0.029871235 
number of iterations: 2059 
   24200    66.099881     1213         1058          155 1.0645238e-12 1.3986686e-14          0.1 0.0090174757     59.76264  0.029870897 
number of iterations: 2099 
   24300    66.349114     1219         1064          155 1.0786309e-12 1.4034148e-14          0.1 0.0090177207    60.589809  0.029870489 
number of iterations: 2107 
   24400    66.579806     1229         1074          155 1.092925e-12 1.4081817e-14          0.1 0.0090179554    61.427951  0.029870098 
number of iterations: 2098 
   24500    66.821384     1241         1086          155 1.1074085e-12 1.4129694e-14          0.1   0.00901818    62.277214  0.029869724 
number of iterations: 2156 
   24600    67.047905     1254         1099          155 1.122084e-12 1.4177778e-14          0.1 0.0090184255    63.137743  0.029869315 
number of iterations: 2150 
   24700    67.318612     1275         1120          155 1.1369539e-12 1.422607e-14          0.1 0.0090186563    64.009692  0.029868931 
number of iterations: 2166 
   24800    67.546214     1287         1131          156 1.1520209e-12 1.4274571e-14          0.1 0.0090189213    64.893209   0.02986849 
number of iterations: 2097 
   24900    67.777274     1302         1143          159 1.1672876e-12 1.4323281e-14          0.1 0.0090191728    65.788446  0.029868071 
number of iterations: 2131 
   25000    68.006928     1326         1167          159 1.1827566e-12  1.43722e-14          0.1 0.0090194144    66.695562  0.029867668 
number of iterations: 2188 
   25100    68.240355     1349         1190          159 1.1984306e-12 1.4421329e-14          0.1 0.0090196914    67.614712  0.029867207 
number of iterations: 2191 
   25200    68.482249     1367         1208          159 1.2143122e-12 1.4470669e-14          0.1  0.009019976    68.546056  0.029866733 
number of iterations: 2119 
   25300    68.730411     1389         1230          159 1.2304044e-12 1.4520219e-14          0.1  0.009020242    69.489757   0.02986629 
number of iterations: 2145 
   25400    68.949015     1402         1243          159 1.2467098e-12 1.4569981e-14          0.1 0.0090205041    70.445975  0.029865854 
number of iterations: 2151 
   25500    69.172387     1411         1252          159 1.2632313e-12 1.4619955e-14          0.1 0.0090207762    71.414878  0.029865401 
number of iterations: 2196 
   25600     69.47615     1429         1270          159 1.2799717e-12 1.4670141e-14          0.1 0.0090210751    72.396634  0.029864903 
number of iterations: 2110 
   25700    69.687993     1445         1286          159 1.2969339e-12 1.472054e-14          0.1  0.009021325    73.391415  0.029864487 
number of iterations: 2169 
   25800    69.924398     1460         1301          159 1.314121e-12 1.4771152e-14          0.1 0.0090216156    74.399391  0.029864003 
number of iterations: 2162 
   25900    70.146867     1477         1317          160 1.3315358e-12 1.4821978e-14          0.1 0.0090219063    75.420738  0.029863519 
number of iterations: 2151 
   26000     70.39687     1493         1333          160 1.3491814e-12 1.4873018e-14          0.1 0.0090221841    76.455636  0.029863056 
number of iterations: 2199 
   26100    70.653563     1510         1349          161 1.3670608e-12 1.4924273e-14          0.1 0.0090224679    77.504263  0.029862584 
number of iterations: 2151 
   26200    70.901166     1522         1361          161 1.3851771e-12 1.4975744e-14          0.1 0.0090227494    78.566799  0.029862115 
number of iterations: 2144 
   26300    71.124828     1536         1374          162 1.4035336e-12 1.502743e-14          0.1 0.0090230545     79.64343  0.029861607 
number of iterations: 2177 
   26400    71.362545     1553         1390          163 1.4221333e-12 1.5079333e-14          0.1 0.0090233399    80.734343  0.029861132 
number of iterations: 2229 
   26500    71.584545     1576         1413          163 1.4409794e-12 1.5131452e-14          0.1 0.0090236581    81.839728  0.029860602 
number of iterations: 2163 
   26600    71.831414     1598         1435          163 1.4600754e-12 1.5183789e-14          0.1 0.0090239437    82.959777  0.029860126 
number of iterations: 2201 
   26700    72.063816     1622         1459          163 1.4794243e-12 1.5236344e-14          0.1  0.009024275     84.09468  0.029859575 
number of iterations: 2191 
   26800    72.307331     1647         1484          163 1.4990297e-12 1.5289118e-14          0.1 0.0090245899    85.244634   0.02985905 
number of iterations: 2180 
   26900    72.531889     1664         1501          163 1.5188949e-12 1.534211e-14          0.1 0.0090249308     86.40984  0.029858483 
number of iterations: 2154 
   27000    72.755615     1676         1513          163 1.5390234e-12 1.5395322e-14          0.1 0.0090252356    87.590503  0.029857975 
number of iterations: 2198 
   27100    72.987903     1691         1528          163 1.5594186e-12 1.5448755e-14          0.1 0.0090255771    88.786825  0.029857406 
number of iterations: 2146 
   27200    73.210004     1708         1545          163 1.580084e-12 1.5502408e-14          0.1 0.0090259066    89.999017  0.029856858 
number of iterations: 2192 
   27300    73.453009     1727         1562          165 1.6010234e-12 1.5556282e-14          0.1 0.0090262314    91.227287  0.029856317 
number of iterations: 2204 
   27400    73.701075     1755         1589          166 1.6222402e-12 1.5610378e-14          0.1 0.0090265733    92.471848  0.029855748 
number of iterations: 2262 
   27500    73.944023     1774         1608          166 1.6437381e-12 1.5664696e-14          0.1 0.0090269713    93.732914  0.029855085 
number of iterations: 2187 
   27600     74.21318     1811         1645          166 1.665521e-12 1.5719238e-14          0.1 0.0090273147    95.010707  0.029854513 
number of iterations: 2207 
   27700    74.435546     1840         1673          167 1.6875925e-12 1.5774003e-14          0.1 0.0090276967    96.305445  0.029853877 
number of iterations: 2218 
   27800    74.662395     1862         1695          167 1.7099565e-12 1.5828993e-14          0.1 0.0090280705    97.617357  0.029853255 
number of iterations: 2195 
   27900    74.910179     1883         1713          170 1.7326169e-12 1.5884207e-14          0.1  0.009028427    98.946669  0.029852661 
number of iterations: 2214 
   28000    75.141708     1912         1741          171 1.7555775e-12 1.5939646e-14          0.1 0.0090288155    100.29361  0.029852014 
number of iterations: 2216 
   28100    75.393269     1939         1767          172 1.7788425e-12 1.5995312e-14          0.1 0.0090291656    101.65842  0.029851431 
number of iterations: 2206 
   28200    75.616788     1964         1792          172 1.8024157e-12 1.6051204e-14          0.1 0.0090295394    103.04133  0.029850809 
number of iterations: 2235 
   28300    75.988702     1987         1814          173 1.8263013e-12 1.6107324e-14          0.1 0.0090299259    104.44257  0.029850165 
number of iterations: 2231 
   28400    76.262365     2006         1833          173 1.8505035e-12 1.6163671e-14          0.1 0.0090303127    105.86241  0.029849521 
number of iterations: 2251 
   28500     76.51253     2015         1842          173 1.8750264e-12 1.6220247e-14          0.1 0.0090307091    107.30107  0.029848861 
number of iterations: 2256 
   28600    76.762875     2038         1865          173 1.8998742e-12 1.6277052e-14          0.1 0.0090311385    108.75882  0.029848146 
number of iterations: 2280 
   28700    77.015808     2059         1886          173 1.9250514e-12 1.6334086e-14          0.1 0.0090316029     110.2359  0.029847373 
number of iterations: 2227 
   28800    77.263158     2077         1903          174 1.9491508e-12 1.6391351e-14          0.1 0.0090319725    111.73149  0.029846757 
number of iterations: 2265 
   28900    77.571759     2111         1937          174 1.9749809e-12 1.6448846e-14          0.1 0.0090323929    113.24691  0.029846057 
number of iterations: 2268 
   29000    77.835373     2141         1966          175 2.0011534e-12 1.6506573e-14          0.1 0.0090328431    114.78244  0.029845308 
number of iterations: 2239 
   29100    78.077033     2173         1996          177 2.0262391e-12 1.6564532e-14          0.1 0.0090332212    116.33723  0.029844678 
number of iterations: 2212 
   29200    78.369966     2205         2028          177 2.0530908e-12 1.6622724e-14          0.1 0.0090336238    117.91265  0.029844008 
number of iterations: 2260 
   29300    78.605004     2233         2055          178 2.0802983e-12 1.6681149e-14          0.1 0.0090340895    119.50895  0.029843232 
number of iterations: 2241 
   29400    78.866267     2264         2086          178 2.1078664e-12 1.6739809e-14          0.1 0.0090345213    121.12643  0.029842513 
number of iterations: 2271 
   29500    79.106562     2286         2108          178 2.1345138e-12 1.6798703e-14          0.1 0.0090349797    122.76437   0.02984175 
number of iterations: 2261 
   29600    79.353952     2309         2131          178 2.1628003e-12 1.6857833e-14          0.1   0.00903546    124.42403   0.02984095 
number of iterations: 2264 
   29700    79.611609     2340         2161          179 2.1914617e-12 1.6917199e-14          0.1 0.0090359281     126.1057  0.029840171 
number of iterations: 2255 
   29800    79.864689     2374         2195          179 2.2205029e-12 1.6976801e-14          0.1 0.0090363748    127.80967  0.029839427 
number of iterations: 2264 
   29900    80.126887     2407         2228          179 2.2499289e-12 1.7036641e-14          0.1 0.0090368559    129.53625  0.029838626 
number of iterations: 2266 
   30000    80.473222     2440         2261          179 2.2797449e-12 1.7096719e-14          0.1  0.009037341    131.28571  0.029837818 
number of iterations: 2319 
   30100    80.736767     2480         2300          180 2.309956e-12 1.7157036e-14          0.1 0.0090378557    133.05839  0.029836961 
number of iterations: 2245 
   30200    81.030162     2502         2322          180 2.3384301e-12 1.7217592e-14          0.1 0.0090383121    134.85293  0.029836201 
number of iterations: 2250 
   30300    81.289922     2524         2344          180 2.3694189e-12 1.7278389e-14          0.1 0.0090387815    136.67127  0.029835419 
number of iterations: 2264 
   30400    81.526076     2545         2363          182 2.4008183e-12 1.7339426e-14          0.1 0.0090392882    138.51372  0.029834576 
number of iterations: 2303 
   30500    81.786684     2578         2395          183 2.4326338e-12 1.7400705e-14          0.1 0.0090398232     140.3806  0.029833685 
number of iterations: 2300 
   30600    82.046321     2617         2431          186 2.464871e-12 1.7462226e-14          0.1 0.0090403465    142.27225  0.029832813 
number of iterations: 2265 
   30700    82.314925     2653         2467          186 2.4975353e-12 1.7523991e-14          0.1 0.0090408173    144.18897  0.029832029 
number of iterations: 2333 
   30800     82.60298     2686         2498          188 2.5306325e-12 1.7585998e-14          0.1 0.0090413626    146.13111  0.029831121 
number of iterations: 2276 
   30900    82.855738     2724         2536          188 2.5641683e-12 1.7648251e-14          0.1 0.0090418965    148.09901  0.029830232 
number of iterations: 2306 
   31000    83.108363     2752         2564          188 2.5981485e-12 1.7710748e-14          0.1 0.0090424395      150.093  0.029829328 
number of iterations: 2326 
   31100    83.365203     2784         2596          188 2.632579e-12 1.7773492e-14          0.1 0.0090430115    152.11342  0.029828376 
number of iterations: 2324 
   31200    83.630898     2813         2623          190 2.6674658e-12 1.7836482e-14          0.1 0.0090435703    154.16064  0.029827445 
number of iterations: 2294 
   31300    83.902803     2840         2649          191 2.7018961e-12 1.7899719e-14          0.1  0.009044121     156.2343  0.029826528 
number of iterations: 2301 
   31400    84.175922     2870         2676          194 2.7364753e-12 1.7963205e-14          0.1 0.0090446906    158.33452   0.02982558 
number of iterations: 2332 
   31500    84.448274     2912         2718          194 2.7714708e-12 1.8026939e-14          0.1 0.0090452638    160.46163  0.029824625 
number of iterations: 2288 
   31600    84.712398     2954         2759          195 2.8069716e-12 1.8090924e-14          0.1 0.0090458445    162.61601  0.029823658 
number of iterations: 2324 
   31700     85.01963     2981         2785          196 2.8441693e-12 1.8155159e-14          0.1 0.0090464372    164.79895  0.029822671 
number of iterations: 2327 
   31800    85.376146     3020         2824          196  2.88186e-12 1.8219644e-14          0.1 0.0090470533    167.01084  0.029821645 
number of iterations: 2349 
   31900    85.633313     3064         2867          197 2.9200502e-12 1.8284382e-14          0.1 0.0090476951    169.25206  0.029820577 
number of iterations: 2322 
   32000    85.937781     3104         2905          199 2.9587464e-12 1.8349373e-14          0.1 0.0090482948      171.523  0.029819578 
number of iterations: 2349 
   32100    86.194205     3134         2933          201 2.9959445e-12 1.8414617e-14          0.1 0.0090489219    173.82252  0.029818534 
number of iterations: 2362 
   32200    86.465921     3171         2969          202 3.0348407e-12 1.8480115e-14          0.1  0.009049568    176.15191  0.029817458 
number of iterations: 2325 
   32300    86.723884     3219         3016          203 3.0736566e-12 1.8545868e-14          0.1 0.0090502161    178.51113  0.029816379 
number of iterations: 2290 
   32400    87.022249     3264         3061          203 3.1130509e-12 1.8611877e-14          0.1  0.009050788     180.9006  0.029815427 
number of iterations: 2338 
   32500    87.346472     3304         3101          203 3.1543047e-12 1.8678142e-14          0.1 0.0090514395    183.32176  0.029814342 
number of iterations: 2409 
   32600    87.644139     3347         3144          203 3.1961052e-12 1.8744665e-14          0.1 0.0090522104    185.77502  0.029813058 
number of iterations: 2355 
   32700    87.913428     3406         3203          203 3.2384596e-12 1.8811446e-14          0.1 0.0090528942    188.26082   0.02981192 
number of iterations: 2374 
   32800     88.18842     3442         3239          203 3.2813753e-12 1.8878486e-14          0.1 0.0090536196    190.77959  0.029810712 
number of iterations: 2351 
   32900    88.447421     3482         3279          203 3.3248597e-12 1.8945787e-14          0.1 0.0090543385    193.33174  0.029809515 
number of iterations: 2364 
   33000    88.723992     3523         3320          203 3.3689203e-12 1.9013348e-14          0.1 0.0090550263    195.91775  0.029808369 
number of iterations: 2380 
   33100    88.996755     3582         3379          203 3.4135648e-12 1.908117e-14          0.1 0.0090557933    198.53804  0.029807092 
number of iterations: 2371 
   33200    89.297244     3629         3425          204 3.458801e-12 1.9149255e-14          0.1 0.0090564781    201.19309  0.029805952 
number of iterations: 2379 
   33300    89.555413     3685         3481          204 3.5046365e-12 1.9217602e-14          0.1 0.0090572313    203.88334  0.029804698 
number of iterations: 2356 
   33400    89.808141     3728         3524          204 3.5510795e-12 1.9286214e-14          0.1 0.0090579821    206.60926  0.029803448 
number of iterations: 2387 
   33500    90.090501     3764         3560          204 3.5981379e-12 1.935509e-14          0.1 0.0090587325    209.37132  0.029802198 
number of iterations: 2409 
   33600    90.379208     3810         3603          207 3.6458198e-12 1.9424232e-14          0.1 0.0090595219    212.17003  0.029800884 
number of iterations: 2364 
   33700    90.650027     3841         3634          207 3.6941337e-12 1.949364e-14          0.1 0.0090602984    215.00585  0.029799591 
number of iterations: 2398 
   33800    90.959505     3888         3681          207 3.7430878e-12 1.9563315e-14          0.1 0.0090610805     217.8793  0.029798288 
number of iterations: 2363 
   33900    91.245509     3948         3741          207 3.7916667e-12 1.9633259e-14          0.1 0.0090618571    220.79006  0.029796995 
number of iterations: 2395 
   34000    91.524108     3999         3790          209 3.8407947e-12 1.9703472e-14          0.1 0.0090627141    223.73855  0.029795568 
number of iterations: 2405 
   34100    91.803742     4060         3850          210 3.8903339e-12 1.9773954e-14          0.1 0.0090635756    226.72509  0.029794134 
number of iterations: 2384 
   34200    92.089809     4099         3888          211 3.9405291e-12 1.9844708e-14          0.1 0.0090643616    229.75019  0.029792825 
number of iterations: 2406 
   34300    92.369601     4150         3939          211 3.9927483e-12 1.9915732e-14          0.1 0.0090651991    232.81541   0.02979143 
number of iterations: 2411 
   34400     92.65622     4204         3991          213 4.0456595e-12 1.998703e-14          0.1  0.009066136    235.92128   0.02978987 
number of iterations: 2453 
   34500    92.930542     4245         4031          214 4.098101e-12  2.00586e-14          0.1 0.0090669954    239.06744  0.029788439 
number of iterations: 2398 
   34600    93.204236     4305         4089          216 4.1501157e-12 2.0130446e-14          0.1 0.0090678771     242.2536  0.029786971 
number of iterations: 2412 
   34700    93.577042     4354         4138          216 4.2040568e-12 2.0202566e-14          0.1 0.0090687367    245.48118   0.02978554 
number of iterations: 2418 
   34800    93.864887     4414         4198          216 4.2597682e-12 2.0274963e-14          0.1 0.0090695972    248.75153  0.029784107 
number of iterations: 2380 
   34900    94.175012     4467         4251          216 4.3162178e-12 2.0347636e-14          0.1  0.009070481    252.06526  0.029782635 
number of iterations: 2400 
   35000    94.468303     4526         4310          216 4.3709584e-12 2.0420588e-14          0.1 0.0090713706    255.42105  0.029781154 
Loop time of 94.4683 on 32 procs for 35000 steps with 4526 atoms

Performance: 320107260.752 tau/day, 370.495 timesteps/s
92.3% CPU use with 32 MPI tasks x no OpenMP threads

MPI task timing breakdown:
Section |  min time  |  avg time  |  max time  |%varavg| %total
---------------------------------------------------------------
Pair    | 0.0098577  | 0.069784   | 0.27429    |  20.2 |  0.07
Neigh   | 0.0042777  | 0.020167   | 0.070727   |   9.2 |  0.02
Comm    | 0.040501   | 0.1646     | 0.24926    |  15.0 |  0.17
Output  | 22.182     | 22.182     | 22.189     |   0.0 | 23.48
Modify  | 71.464     | 71.508     | 71.614     |   0.3 | 75.70
Other   |            | 0.524      |            |       |  0.55

Nlocal:    141.438 ave 470 max 16 min
Histogram: 4 9 7 6 3 2 0 0 0 1
Nghost:    75.3125 ave 176 max 6 min
Histogram: 6 1 3 7 5 3 2 2 1 2
Neighs:    511.75 ave 2048 max 26 min
Histogram: 6 12 4 6 1 2 0 0 0 1

Total # of neighbors = 16376
Ave neighs/atom = 3.61821
Neighbor list builds = 700
Dangerous builds = 0
Total wall time: 0:01:34
