LAMMPS (20 Nov 2019)
Reading data file ...
  orthogonal box = (0 0 0) to (0.0001 0.0001 0.0001)
  2 by 4 by 4 MPI processor grid
  reading atoms ...
  100 atoms
  4 nutrients
Lattice spacing in x,y,z = 100 100 100
100 atoms in group CYANO
0 atoms in group ECW
Model is defined as a closed system. 
Neighbor list info ...
  update every 1 steps, delay 0 steps, check yes
  max neighbors/atom: 5000, page size: 100000
  master list distance cutoff = 2.43e-06
  ghost atom cutoff = 2.43e-06
  binsize = 1.215e-06, bins = 83 83 83
  1 neighbor lists, perpetual/occasional/extra = 1 0 0
  (1) pair gran/hooke/history, perpetual
      attributes: half, newton off, size, history
      pair build: half/size/bin/newtoff
      stencil: half/bin/3d/newtoff
      bin: standard
Setting up Verlet run ...
  Unit style    : lj
  Current step  : 0
  Time step     : 10
Per MPI rank memory allocation (min/avg/max) = 5.856 | 9.165 | 10.91 Mbytes
Step CPU Atoms c_myNtypes[1] c_myNtypes[2] c_myMass[1] c_myMass[2] c_myCon[1] c_myCon[2] c_myCon[3] c_myCon[4] 
       0            0      100          100            0 9.2028407e-14            0          0.1        0.009     3.42e-20       0.0299 
number of iterations: 123138 
     100    1.3383624      100          100            0 9.3580785e-14            0          0.1 0.0090012173 1.8087446e-05  0.029897973 
number of iterations: 108409 
     200    2.4658195      100          100            0 9.515935e-14            0          0.1 0.0090012379 4.6482639e-05  0.029897939 
number of iterations: 96759 
     300    3.4917514      100          100            0 9.6764543e-14            0          0.1 0.0090012587 9.0174733e-05  0.029897904 
number of iterations: 86205 
     400    4.4435092      103          103            0 9.8396813e-14            0          0.1   0.00900128 0.00015753333  0.029897869 
number of iterations: 76188 
     500    5.2680439      105          105            0 1.0005662e-13            0          0.1 0.0090013016 0.00026187683  0.029897833 
number of iterations: 66370 
     600    5.9978589      108          108            0 1.0174442e-13            0          0.1 0.0090013235 0.00042497955  0.029897796 
number of iterations: 56461 
     700    6.6624687      108          108            0 1.0346069e-13            0          0.1 0.0090013458 0.00068419484  0.029897759 
number of iterations: 46170 
     800    7.1944243      108          108            0 1.0520591e-13            0          0.1 0.0090013685 0.0011077889  0.029897721 
number of iterations: 37486 
     900    7.6446988      111          111            0 1.0698058e-13            0          0.1 0.0090013916 0.0017559819  0.029897683 
number of iterations: 29158 
    1000    8.0190419      114          114            0 1.0878518e-13            0          0.1 0.0090014151 0.0027407446  0.029897644 
number of iterations: 20833 
    1100    8.3122961      116          116            0 1.1062022e-13            0          0.1  0.009001439 0.0042603175  0.029897604 
number of iterations: 16692 
    1200    8.5575597      117          117            0 1.1248621e-13            0          0.1 0.0090014633 0.0065600067  0.029897564 
number of iterations: 16746 
    1300    8.7942692      119          119            0 1.1438368e-13            0          0.1 0.0090014879 0.0093896799  0.029897523 
number of iterations: 16800 
    1400    9.0265717      120          120            0 1.1631316e-13            0          0.1  0.009001513   0.01272917  0.029897481 
number of iterations: 16854 
    1500    9.2541632      123          123            0 1.1827518e-13            0          0.1 0.0090015386  0.016570152  0.029897438 
number of iterations: 16908 
    1600    9.4771444      125          125            0 1.202703e-13            0          0.1 0.0090015645  0.020859637  0.029897395 
number of iterations: 16962 
    1700    9.7023986      126          126            0 1.2229908e-13            0          0.1 0.0090015909  0.025432671  0.029897351 
number of iterations: 17016 
    1800    9.9261181      127          127            0 1.2436208e-13            0          0.1 0.0090016177  0.030263607  0.029897306 
number of iterations: 17070 
    1900    10.151221      129          129            0 1.2645987e-13            0          0.1  0.009001645  0.035496635  0.029897261 
number of iterations: 17124 
    2000    10.374392      131          131            0 1.2859306e-13            0          0.1 0.0090016728  0.041016459  0.029897215 
number of iterations: 17178 
    2100    10.598291      136          136            0 1.3076223e-13            0          0.1  0.009001701  0.046814551  0.029897168 
number of iterations: 17232 
    2200    10.819573      138          138            0 1.3296798e-13            0          0.1 0.0090017297  0.052884612   0.02989712 
number of iterations: 17286 
    2300     11.03959      138          138            0 1.3521095e-13            0          0.1 0.0090017577  0.059210242  0.029897073 
number of iterations: 17340 
    2400    11.260596      139          139            0 1.3749175e-13            0          0.1 0.0090017873  0.065799411  0.029897024 
number of iterations: 17391 
    2500    11.482305      140          140            0 1.3981103e-13            0          0.1 0.0090018163  0.072649933  0.029896976 
number of iterations: 17448 
    2600    11.706563      141          141            0 1.4216942e-13            0          0.1 0.0090018469  0.079757273  0.029896925 
number of iterations: 17397 
    2700    11.928937      143          143            0 1.445676e-13            0          0.1 0.0090018716  0.087111944  0.029896884 
number of iterations: 17554 
    2800    12.150566      146          146            0 1.4700624e-13            0          0.1 0.0090019032  0.094723083  0.029896831 
number of iterations: 17608 
    2900    12.375665      147          147            0 1.4948601e-13            0          0.1 0.0090019353   0.10259047  0.029896778 
number of iterations: 17662 
    3000    12.604653      150          150            0 1.5200761e-13            0          0.1 0.0090019679   0.11071607  0.029896723 
number of iterations: 17716 
    3100    12.828517      153          153            0 1.5457174e-13            0          0.1 0.0090020011   0.11909989  0.029896668 
number of iterations: 17340 
    3200    13.048284      157          157            0 1.5717913e-13            0          0.1 0.0090020318   0.12774822  0.029896617 
number of iterations: 17818 
    3300    13.273792      159          159            0 1.598305e-13            0          0.1  0.009002066   0.13665818   0.02989656 
number of iterations: 17872 
    3400    13.497132      159          159            0 1.625266e-13            0          0.1 0.0090021009   0.14583259  0.029896502 
number of iterations: 17926 
    3500    13.740737      160          160            0 1.6526817e-13            0          0.1 0.0090021363   0.15527385  0.029896443 
number of iterations: 17980 
    3600    13.973329      161          161            0 1.6805599e-13            0          0.1 0.0090021724   0.16498386  0.029896383 
number of iterations: 18034 
    3700    14.199991      164          164            0 1.7089084e-13            0          0.1 0.0090022086    0.1749621  0.029896323 
number of iterations: 16598 
    3800    14.409067      165          165            0 1.737735e-13            0          0.1 0.0090022427   0.18521448  0.029896266 
number of iterations: 18123 
    3900    14.637104      166          166            0 1.767048e-13            0          0.1 0.0090022805   0.19574337  0.029896203 
number of iterations: 18176 
    4000    14.863979      169          169            0 1.7968553e-13            0          0.1  0.009002319   0.20652516  0.029896139 
number of iterations: 18230 
    4100    15.091253      169          169            0 1.8271655e-13            0          0.1 0.0090023581   0.21756301  0.029896074 
number of iterations: 18284 
    4200    15.320826      173          173            0 1.857987e-13            0          0.1 0.0090023979   0.22885992  0.029896007 
number of iterations: 18338 
    4300    15.567784      173          173            0 1.8893284e-13            0          0.1 0.0090024384   0.24041878   0.02989594 
number of iterations: 18392 
    4400    15.798491      175          175            0 1.9211985e-13            0          0.1 0.0090024795   0.25224419  0.029895871 
number of iterations: 18446 
    4500    16.030686      177          177            0 1.9536061e-13            0          0.1 0.0090025213   0.26433885  0.029895802 
number of iterations: 18916 
    4600     16.31645      190          190            0 1.9865605e-13            0          0.1 0.0090025714   0.27671244  0.029895719 
number of iterations: 18562 
    4700    16.546509      196          196            0 2.0200707e-13            0          0.1 0.0090026147   0.28936201  0.029895646 
number of iterations: 18616 
    4800    16.779187      202          202            0 2.0541462e-13            0          0.1 0.0090026596   0.30229444  0.029895572 
number of iterations: 18670 
    4900    17.010635      206          206            0 2.0887964e-13            0          0.1 0.0090027045   0.31550934  0.029895497 
number of iterations: 18724 
    5000    17.244206      210          210            0 2.1240312e-13            0          0.1 0.0090027501   0.32901318  0.029895421 
number of iterations: 18858 
    5100    17.478517      217          217            0 2.1598604e-13            0          0.1  0.009002798   0.34281039  0.029895341 
number of iterations: 18833 
    5200    17.711928      224          224            0 2.1962939e-13            0          0.1 0.0090028452   0.35690291  0.029895262 
number of iterations: 18887 
    5300    17.950558      228          228            0 2.233342e-13            0          0.1 0.0090028932   0.37129734  0.029895183 
number of iterations: 18941 
    5400    18.185059      231          231            0 2.271015e-13            0          0.1  0.009002942   0.38599797  0.029895101 
number of iterations: 18995 
    5500    18.420695      234          234            0 2.3093235e-13            0          0.1 0.0090029917   0.40100657  0.029895019 
number of iterations: 19049 
    5600     18.65697      240          240            0 2.3482783e-13            0          0.1  0.009003043   0.41633052  0.029894933 
number of iterations: 19104 
    5700    18.895464      241          241            0 2.3878901e-13            0          0.1 0.0090030943   0.43197584  0.029894848 
number of iterations: 19214 
    5800     19.13487      243          243            0 2.4281701e-13            0          0.1 0.0090031515   0.44794466  0.029894753 
number of iterations: 19213 
    5900    19.378853      245          245            0 2.4691296e-13            0          0.1 0.0090032046    0.4642432  0.029894664 
number of iterations: 19401 
    6000    19.642871      252          252            0  2.51078e-13            0          0.1 0.0090032588   0.48087565  0.029894574 
number of iterations: 19323 
    6100    19.884507      256          256            0 2.553133e-13            0          0.1 0.0090033138   0.49784906  0.029894482 
number of iterations: 19377 
    6200    20.144916      262          262            0 2.5962004e-13            0          0.1 0.0090033697   0.51516768  0.029894389 
number of iterations: 19431 
    6300    20.384438      268          268            0 2.6399943e-13            0          0.1 0.0090034265   0.53280249  0.029894295 
number of iterations: 19485 
    6400    20.629331      272          272            0 2.684527e-13            0          0.1 0.0090034843   0.55073477  0.029894198 
number of iterations: 19539 
    6500    20.870235      278          278            0 2.7298108e-13            0          0.1  0.009003544   0.56896955  0.029894099 
number of iterations: 19593 
    6600    21.129119      279          279            0 2.7758585e-13            0          0.1 0.0090036038   0.58751193  0.029893999 
number of iterations: 19772 
    6700     21.37298      282          282            0 2.8226829e-13            0          0.1 0.0090036664   0.60636706  0.029893895 
number of iterations: 19703 
    6800    21.615738      286          286            0 2.8702972e-13            0          0.1 0.0090037283   0.62554026  0.029893792 
number of iterations: 19757 
    6900    21.860759      290          290            0 2.9187147e-13            0          0.1 0.0090037911   0.64503687  0.029893687 
number of iterations: 19898 
    7000    22.109701      295          295            0 2.9679489e-13            0          0.1 0.0090038616   0.66486237   0.02989357 
number of iterations: 19867 
    7100    22.356108      297          297            0 3.0180136e-13            0          0.1 0.0090039267   0.68502229  0.029893462 
number of iterations: 19921 
    7200    22.603532      298          298            0 3.0689228e-13            0          0.1  0.009003993   0.70552227  0.029893351 
number of iterations: 19975 
    7300    22.850258      304          304            0 3.1206908e-13            0          0.1 0.0090040603   0.72636806  0.029893239 
number of iterations: 20029 
    7400    23.097082      307          307            0 3.1733321e-13            0          0.1 0.0090041288   0.74756548  0.029893125 
number of iterations: 20148 
    7500    23.346488      311          311            0 3.2268613e-13            0          0.1 0.0090041985   0.76912047  0.029893009 
number of iterations: 20138 
    7600    23.615724      316          316            0 3.2812934e-13            0          0.1 0.0090042693   0.79103906  0.029892891 
number of iterations: 20193 
    7700    23.874965      319          319            0 3.3366437e-13            0          0.1 0.0090043413   0.81332738  0.029892771 
number of iterations: 20247 
    7800     24.15007      326          326            0 3.3929278e-13            0          0.1 0.0090044145   0.83599167  0.029892649 
number of iterations: 20301 
    7900    24.402174      331          331            0 3.4501612e-13            0          0.1  0.009004489   0.85903827  0.029892525 
number of iterations: 20488 
    8000    24.658295      337          337            0 3.5083601e-13            0          0.1 0.0090045791   0.88247364  0.029892375 
number of iterations: 20405 
    8100    24.912696      345          345            0 3.5675407e-13            0          0.1 0.0090046535   0.90630431  0.029892251 
number of iterations: 20459 
    8200    25.167317      351          351            0 3.6277195e-13            0          0.1 0.0090047298   0.93053695  0.029892125 
number of iterations: 20519 
    8300      25.4213      352          352            0 3.6889135e-13            0          0.1   0.00900481   0.95517838  0.029891991 
number of iterations: 20573 
    8400    25.674984      357          357            0 3.7511398e-13            0          0.1 0.0090048911   0.98023547  0.029891856 
number of iterations: 20395 
    8500    25.925084      367          367            0 3.8144157e-13            0          0.1 0.0090049655    1.0057152  0.029891732 
number of iterations: 20733 
    8600    26.208433      374          374            0 3.878759e-13            0          0.1 0.0090050499    1.0316292  0.029891592 
number of iterations: 21706 
    8700    26.479712      389          389            0 3.9441876e-13            0          0.1 0.0090051463    1.0579803  0.029891431 
Loop time of 26.4797 on 32 procs for 8700 steps with 389 atoms

Performance: 283869937.864 tau/day, 328.553 timesteps/s
98.5% CPU use with 32 MPI tasks x no OpenMP threads

MPI task timing breakdown:
Section |  min time  |  avg time  |  max time  |%varavg| %total
---------------------------------------------------------------
Pair    | 0.00075249 | 0.0021413  | 0.0049457  |   2.4 |  0.01
Neigh   | 0.0011335  | 0.001973   | 0.0046247  |   1.7 |  0.01
Comm    | 0.014579   | 0.028408   | 0.049439   |   5.4 |  0.11
Output  | 0.92075    | 0.92118    | 0.92266    |   0.0 |  3.48
Modify  | 25.475     | 25.48      | 25.487     |   0.0 | 96.23
Other   |            | 0.04579    |            |       |  0.17

Nlocal:    12.1562 ave 38 max 2 min
Histogram: 8 8 6 3 3 1 0 0 0 3
Nghost:    4.4375 ave 11 max 0 min
Histogram: 7 5 2 2 5 2 2 3 0 4
Neighs:    11.9375 ave 35 max 1 min
Histogram: 6 4 9 4 2 4 0 0 0 3

Total # of neighbors = 382
Ave neighs/atom = 0.982005
Neighbor list builds = 101
Dangerous builds = 0
Total wall time: 0:00:26
