 NUFEB Simulation

     50 atoms 
     2 atom types 
     4 nutrients 

  0.0e-4   1.00e-04  xlo xhi 
  0.0e-4   1.00e-04  ylo yhi 
  0.0e-4   5.00e-05  zlo zhi 

 Atoms 

     1 1 1.63e-06  370 7.85e-05 5.86e-05 4.61e-05 1.63e-06 
     2 1 1.58e-06  370 5.64e-06 1.02e-05 2.90e-05 1.58e-06 
     3 1 1.63e-06  370 2.76e-05 4.01e-05 8.99e-06 1.63e-06 
     4 1 1.90e-06  370 4.16e-05 2.00e-05 3.83e-05 1.90e-06 
     5 1 1.88e-06  370 6.25e-05 7.22e-05 8.16e-06 1.88e-06 
     6 1 1.79e-06  370 8.45e-05 4.23e-06 3.80e-05 1.79e-06 
     7 1 1.64e-06  370 1.14e-05 6.02e-06 3.70e-05 1.64e-06 
     8 1 1.45e-06  370 9.33e-05 4.20e-05 2.01e-05 1.45e-06 
     9 1 1.56e-06  370 3.79e-05 3.94e-05 2.92e-05 1.56e-06 
     10 1 1.48e-06  370 1.62e-05 3.79e-05 5.63e-06 1.48e-06 
     11 1 1.47e-06  370 3.01e-05 4.54e-05 3.59e-05 1.47e-06 
     12 1 1.76e-06  370 4.00e-05 5.85e-05 2.10e-05 1.76e-06 
     13 1 1.76e-06  370 7.71e-05 2.09e-05 1.40e-05 1.76e-06 
     14 1 1.68e-06  370 6.45e-05 7.60e-05 1.68e-05 1.68e-06 
     15 1 1.92e-06  370 2.83e-05 6.63e-06 2.91e-05 1.92e-06 
     16 1 1.81e-06  370 3.09e-05 2.75e-05 2.54e-05 1.81e-06 
     17 1 1.85e-06  370 7.83e-05 4.78e-05 2.08e-05 1.85e-06 
     18 1 1.60e-06  370 4.45e-06 5.94e-05 2.25e-05 1.60e-06 
     19 1 1.64e-06  370 7.00e-05 9.23e-06 3.51e-05 1.64e-06 
     20 1 1.83e-06  370 7.44e-05 3.73e-05 6.71e-06 1.83e-06 
     21 1 1.49e-06  370 1.43e-05 1.13e-05 4.71e-05 1.49e-06 
     22 1 1.45e-06  370 2.62e-05 3.96e-05 1.02e-05 1.45e-06 
     23 1 1.76e-06  370 9.40e-05 1.87e-05 2.26e-05 1.76e-06 
     24 1 1.68e-06  370 1.11e-05 2.85e-05 1.97e-05 1.68e-06 
     25 1 1.81e-06  370 1.14e-05 7.29e-05 8.15e-06 1.81e-06 
     26 1 1.67e-06  370 5.27e-05 8.99e-05 3.58e-05 1.67e-06 
     27 1 1.40e-06  370 1.80e-05 5.11e-05 3.43e-06 1.40e-06 
     28 1 1.90e-06  370 3.74e-05 7.34e-05 6.40e-06 1.90e-06 
     29 1 1.44e-06  370 9.84e-05 5.71e-05 8.60e-06 1.44e-06 
     30 1 1.75e-06  370 7.71e-06 1.82e-05 2.52e-05 1.75e-06 
     31 1 1.54e-06  370 2.86e-05 8.79e-05 3.13e-05 1.54e-06 
     32 1 1.80e-06  370 5.27e-05 5.24e-05 4.13e-05 1.80e-06 
     33 1 1.78e-06  370 7.19e-05 2.80e-05 3.50e-05 1.78e-06 
     34 1 1.62e-06  370 2.34e-05 8.88e-05 2.00e-05 1.62e-06 
     35 1 1.37e-06  370 1.96e-05 4.50e-05 1.14e-05 1.37e-06 
     36 1 1.49e-06  370 2.05e-05 7.89e-05 5.97e-06 1.49e-06 
     37 1 1.93e-06  370 3.98e-05 6.34e-05 2.28e-05 1.93e-06 
     38 1 1.65e-06  370 1.57e-05 3.71e-05 2.58e-05 1.65e-06 
     39 1 1.45e-06  370 5.63e-06 6.78e-05 1.58e-05 1.45e-06 
     40 1 1.45e-06  370 5.12e-05 8.67e-06 1.12e-05 1.45e-06 
     41 1 1.71e-06  370 2.15e-05 5.41e-05 1.78e-05 1.71e-06 
     42 1 1.74e-06  370 4.09e-05 8.69e-05 1.97e-05 1.74e-06 
     43 1 1.80e-06  370 4.10e-05 6.20e-05 2.65e-05 1.80e-06 
     44 1 1.38e-06  370 5.76e-05 5.88e-05 2.09e-05 1.38e-06 
     45 1 1.58e-06  370 1.85e-05 3.63e-05 6.91e-06 1.58e-06 
     46 1 1.82e-06  370 9.98e-06 4.68e-05 1.65e-05 1.82e-06 
     47 1 1.64e-06  370 6.57e-05 9.34e-05 4.19e-05 1.64e-06 
     48 1 1.59e-06  370 6.81e-05 5.55e-05 4.04e-05 1.59e-06 
     49 1 1.57e-06  370 9.42e-05 9.49e-05 3.65e-05 1.57e-06 
     50 1 1.82e-06  370 8.10e-05 8.24e-06 2.16e-05 1.82e-06 

 Nutrients 

     1 sub g nn nn nn 1.00e-01 1.00e-01 
     2 o2 l nn nn nd 9.00e-03 9.00e-03 
     3 suc l nn nn nn 3.42e-20 3.42e-20 
     4 co2 l nn nn nd 2.99e-02 2.99e-02 

 Type Name 

     1 cyano  
     2 ecw  

 Diffusion Coeffs 

     sub 0 
     o2 2.3e-09 
     suc 5.2e-10 
     co2 1.9e-09 

 Growth Rate 

     cyano 2.047e-05 
     ecw 6.71e-05 

 Ks 

     cyano 0.00035 0.0002 0.01 0.000138 
     ecw 0 0.001 3.6 0.05 

 Yield 

     cyano 0.55 
     ecw 0.43 

 Maintenance 

     cyano 0 
     ecw 9.5e-07 

 Decay 

     cyano 0 
     ecw 0 



