 NUFEB Simulation

     50 atoms 
     2 atom types 
     4 nutrients 

  0.0e-4   1.00e-04  xlo xhi 
  0.0e-4   1.00e-04  ylo yhi 
  0.0e-4   5.00e-05  zlo zhi 

 Atoms 

     1 1 1.68e-06  370 3.87e-05 3.58e-05 4.13e-05 1.68e-06 
     2 1 1.83e-06  370 5.39e-05 8.73e-05 4.30e-05 1.83e-06 
     3 1 1.80e-06  370 5.74e-05 5.62e-05 1.79e-05 1.80e-06 
     4 1 1.87e-06  370 4.15e-05 2.81e-05 4.00e-05 1.87e-06 
     5 1 1.46e-06  370 9.85e-05 2.87e-05 2.25e-05 1.46e-06 
     6 1 1.84e-06  370 5.27e-05 8.55e-05 2.08e-05 1.84e-06 
     7 1 1.42e-06  370 6.14e-05 7.60e-05 3.81e-05 1.42e-06 
     8 1 1.42e-06  370 7.93e-05 4.01e-05 2.21e-06 1.42e-06 
     9 1 1.50e-06  370 8.88e-05 7.09e-05 3.15e-05 1.50e-06 
     10 1 1.38e-06  370 4.21e-05 6.74e-05 3.45e-05 1.38e-06 
     11 1 1.42e-06  370 4.70e-05 9.77e-05 1.23e-05 1.42e-06 
     12 1 1.60e-06  370 4.28e-05 5.45e-05 2.89e-05 1.60e-06 
     13 1 1.74e-06  370 9.17e-05 6.05e-06 1.55e-05 1.74e-06 
     14 1 1.54e-06  370 6.10e-05 4.36e-05 4.79e-05 1.54e-06 
     15 1 1.80e-06  370 6.93e-05 9.80e-05 1.19e-05 1.80e-06 
     16 1 1.48e-06  370 1.66e-05 4.79e-05 8.85e-06 1.48e-06 
     17 1 1.50e-06  370 1.74e-05 3.65e-05 9.50e-06 1.50e-06 
     18 1 1.94e-06  370 2.71e-05 8.69e-06 3.89e-05 1.94e-06 
     19 1 1.85e-06  370 8.00e-05 3.34e-06 2.36e-06 1.85e-06 
     20 1 1.73e-06  370 3.37e-05 7.42e-05 2.51e-05 1.73e-06 
     21 1 1.75e-06  370 9.57e-05 1.04e-05 1.85e-06 1.75e-06 
     22 1 1.90e-06  370 8.81e-06 4.58e-05 4.06e-05 1.90e-06 
     23 1 1.53e-06  370 9.57e-05 8.94e-05 1.12e-05 1.53e-06 
     24 1 1.67e-06  370 3.48e-05 2.36e-06 4.45e-05 1.67e-06 
     25 1 1.71e-06  370 3.22e-05 2.78e-05 1.18e-05 1.71e-06 
     26 1 1.60e-06  370 2.44e-06 6.10e-05 2.73e-05 1.60e-06 
     27 1 1.86e-06  370 5.61e-05 4.49e-05 3.99e-05 1.86e-06 
     28 1 1.60e-06  370 1.04e-05 2.65e-05 1.86e-05 1.60e-06 
     29 1 1.93e-06  370 8.59e-05 4.32e-05 8.22e-06 1.93e-06 
     30 1 1.49e-06  370 3.62e-05 2.09e-05 1.06e-05 1.49e-06 
     31 1 1.73e-06  370 5.26e-05 9.03e-05 7.15e-06 1.73e-06 
     32 1 1.47e-06  370 4.69e-06 6.55e-05 5.75e-06 1.47e-06 
     33 1 1.53e-06  370 4.50e-06 5.71e-05 4.75e-05 1.53e-06 
     34 1 1.77e-06  370 4.82e-05 6.80e-05 3.73e-05 1.77e-06 
     35 1 1.39e-06  370 2.33e-05 9.65e-05 9.56e-06 1.39e-06 
     36 1 1.82e-06  370 4.69e-05 8.86e-05 3.42e-05 1.82e-06 
     37 1 1.54e-06  370 4.71e-05 4.40e-05 2.86e-05 1.54e-06 
     38 1 1.55e-06  370 7.61e-06 4.56e-05 3.85e-05 1.55e-06 
     39 1 1.83e-06  370 3.51e-06 3.03e-05 4.45e-05 1.83e-06 
     40 1 1.88e-06  370 3.72e-05 8.76e-05 2.15e-05 1.88e-06 
     41 1 1.76e-06  370 6.16e-05 4.23e-05 3.92e-05 1.76e-06 
     42 1 1.70e-06  370 4.12e-05 3.56e-05 3.11e-05 1.70e-06 
     43 1 1.75e-06  370 8.37e-05 4.85e-05 3.63e-05 1.75e-06 
     44 1 1.90e-06  370 6.16e-06 5.87e-05 1.91e-05 1.90e-06 
     45 1 1.55e-06  370 8.30e-05 8.84e-05 2.50e-05 1.55e-06 
     46 1 1.50e-06  370 8.23e-05 7.93e-05 1.01e-05 1.50e-06 
     47 1 1.61e-06  370 1.27e-05 1.50e-05 7.37e-06 1.61e-06 
     48 1 1.59e-06  370 4.39e-05 5.61e-05 1.89e-05 1.59e-06 
     49 1 1.55e-06  370 3.31e-05 7.84e-05 3.32e-05 1.55e-06 
     50 1 1.55e-06  370 5.51e-05 7.89e-05 4.60e-05 1.55e-06 

 Nutrients 

     1 sub g nn nn nn 1.00e-01 1.00e-01 
     2 o2 l nn nn nd 9.00e-03 9.00e-03 
     3 suc l nn nn nn 3.42e-20 3.42e-20 
     4 co2 l nn nn nd 2.99e-02 2.99e-02 

 Type Name 

     1 cyano  
     2 ecw  

 Diffusion Coeffs 

     sub 0 
     o2 2.3e-09 
     suc 5.2e-10 
     co2 1.9e-09 

 Growth Rate 

     cyano 2.047e-05 
     ecw 6.71e-05 

 Ks 

     cyano 0.00035 0.0002 0.01 0.000138 
     ecw 0 0.001 3.6 0.05 

 Yield 

     cyano 0.55 
     ecw 0.43 

 Maintenance 

     cyano 0 
     ecw 9.5e-07 

 Decay 

     cyano 0 
     ecw 0 



