ITEM: TIMESTEP
0
ITEM: NUMBER OF ATOMS
50
ITEM: BOX BOUNDS ff ff ff
0.0000000000000000e+00 1.0000000000000000e-04
0.0000000000000000e+00 1.0000000000000000e-04
0.0000000000000000e+00 5.0000000000000002e-05
ITEM: ATOMS id type diameter x y z 
47 1 1.61e-06 1.27e-05 1.5e-05 7.37e-06 
16 1 1.48e-06 1.66e-05 4.79e-05 8.85e-06 
17 1 1.5e-06 1.74e-05 3.65e-05 9.5e-06 
30 1 1.49e-06 3.62e-05 2.09e-05 1.06e-05 
25 1 1.71e-06 3.22e-05 2.78e-05 1.18e-05 
28 1 1.6e-06 1.04e-05 2.65e-05 1.86e-05 
37 1 1.54e-06 4.71e-05 4.4e-05 2.86e-05 
42 1 1.7e-06 4.12e-05 3.56e-05 3.11e-05 
18 1 1.94e-06 2.71e-05 8.69e-06 3.89e-05 
38 1 1.55e-06 7.61e-06 4.56e-05 3.85e-05 
4 1 1.87e-06 4.15e-05 2.81e-05 4e-05 
22 1 1.9e-06 8.81e-06 4.58e-05 4.06e-05 
1 1 1.68e-06 3.87e-05 3.58e-05 4.13e-05 
24 1 1.67e-06 3.48e-05 2.36e-06 4.45e-05 
39 1 1.83e-06 3.51e-06 3.03e-05 4.45e-05 
32 1 1.47e-06 4.69e-06 6.55e-05 5.75e-06 
35 1 1.39e-06 2.33e-05 9.65e-05 9.56e-06 
11 1 1.42e-06 4.7e-05 9.77e-05 1.23e-05 
48 1 1.59e-06 4.39e-05 5.61e-05 1.89e-05 
44 1 1.9e-06 6.16e-06 5.87e-05 1.91e-05 
40 1 1.88e-06 3.72e-05 8.76e-05 2.15e-05 
20 1 1.73e-06 3.37e-05 7.42e-05 2.51e-05 
26 1 1.6e-06 2.44e-06 6.1e-05 2.73e-05 
12 1 1.6e-06 4.28e-05 5.45e-05 2.89e-05 
49 1 1.55e-06 3.31e-05 7.84e-05 3.32e-05 
10 1 1.38e-06 4.21e-05 6.74e-05 3.45e-05 
36 1 1.82e-06 4.69e-05 8.86e-05 3.42e-05 
34 1 1.77e-06 4.82e-05 6.8e-05 3.73e-05 
33 1 1.53e-06 4.5e-06 5.71e-05 4.75e-05 
21 1 1.75e-06 9.57e-05 1.04e-05 1.85e-06 
19 1 1.85e-06 8e-05 3.34e-06 2.36e-06 
8 1 1.42e-06 7.93e-05 4.01e-05 2.21e-06 
29 1 1.93e-06 8.59e-05 4.32e-05 8.22e-06 
13 1 1.74e-06 9.17e-05 6.05e-06 1.55e-05 
5 1 1.46e-06 9.85e-05 2.87e-05 2.25e-05 
43 1 1.75e-06 8.37e-05 4.85e-05 3.63e-05 
41 1 1.76e-06 6.16e-05 4.23e-05 3.92e-05 
27 1 1.86e-06 5.61e-05 4.49e-05 3.99e-05 
14 1 1.54e-06 6.1e-05 4.36e-05 4.79e-05 
31 1 1.73e-06 5.26e-05 9.03e-05 7.15e-06 
46 1 1.5e-06 8.23e-05 7.93e-05 1.01e-05 
23 1 1.53e-06 9.57e-05 8.94e-05 1.12e-05 
15 1 1.8e-06 6.93e-05 9.8e-05 1.19e-05 
3 1 1.8e-06 5.74e-05 5.62e-05 1.79e-05 
6 1 1.84e-06 5.27e-05 8.55e-05 2.08e-05 
45 1 1.55e-06 8.3e-05 8.84e-05 2.5e-05 
9 1 1.5e-06 8.88e-05 7.09e-05 3.15e-05 
7 1 1.42e-06 6.14e-05 7.6e-05 3.81e-05 
2 1 1.83e-06 5.39e-05 8.73e-05 4.3e-05 
50 1 1.55e-06 5.51e-05 7.89e-05 4.6e-05 
ITEM: TIMESTEP
100
ITEM: NUMBER OF ATOMS
50
ITEM: BOX BOUNDS ff ff ff
0.0000000000000000e+00 1.0000000000000000e-04
0.0000000000000000e+00 1.0000000000000000e-04
0.0000000000000000e+00 5.0000000000000002e-05
ITEM: ATOMS id type diameter x y z 
47 1 1.62039e-06 1.27e-05 1.5e-05 7.37e-06 
16 1 1.48955e-06 1.66e-05 4.79e-05 8.85e-06 
17 1 1.50968e-06 1.74e-05 3.65e-05 9.5e-06 
30 1 1.49962e-06 3.62e-05 2.09e-05 1.06e-05 
25 1 1.72104e-06 3.22e-05 2.78e-05 1.18e-05 
28 1 1.61033e-06 1.04e-05 2.65e-05 1.86e-05 
37 1 1.54994e-06 4.71e-05 4.4e-05 2.86e-05 
42 1 1.71097e-06 4.12e-05 3.56e-05 3.11e-05 
18 1 1.95252e-06 2.71e-05 8.69e-06 3.89e-05 
38 1 1.56001e-06 7.61e-06 4.56e-05 3.85e-05 
4 1 1.88207e-06 4.15e-05 2.81e-05 4e-05 
22 1 1.91227e-06 8.81e-06 4.58e-05 4.06e-05 
1 1 1.69085e-06 3.87e-05 3.58e-05 4.13e-05 
24 1 1.68078e-06 3.48e-05 2.36e-06 4.45e-05 
39 1 1.84181e-06 3.51e-06 3.03e-05 4.45e-05 
32 1 1.47949e-06 4.69e-06 6.55e-05 5.75e-06 
35 1 1.39897e-06 2.33e-05 9.65e-05 9.56e-06 
11 1 1.42917e-06 4.7e-05 9.77e-05 1.23e-05 
48 1 1.60026e-06 4.39e-05 5.61e-05 1.89e-05 
44 1 1.91227e-06 6.16e-06 5.87e-05 1.91e-05 
40 1 1.89214e-06 3.72e-05 8.76e-05 2.15e-05 
20 1 1.74117e-06 3.37e-05 7.42e-05 2.51e-05 
26 1 1.61033e-06 2.44e-06 6.1e-05 2.73e-05 
12 1 1.61033e-06 4.28e-05 5.45e-05 2.89e-05 
49 1 1.56001e-06 3.31e-05 7.84e-05 3.32e-05 
10 1 1.38891e-06 4.21e-05 6.74e-05 3.45e-05 
36 1 1.83175e-06 4.69e-05 8.86e-05 3.42e-05 
34 1 1.78143e-06 4.82e-05 6.8e-05 3.73e-05 
33 1 1.53988e-06 4.5e-06 5.71e-05 4.75e-05 
21 1 1.7613e-06 9.57e-05 1.04e-05 1.85e-06 
19 1 1.86194e-06 8e-05 3.34e-06 2.36e-06 
8 1 1.42917e-06 7.93e-05 4.01e-05 2.21e-06 
29 1 1.94246e-06 8.59e-05 4.32e-05 8.22e-06 
13 1 1.75123e-06 9.17e-05 6.05e-06 1.55e-05 
5 1 1.46943e-06 9.85e-05 2.87e-05 2.25e-05 
43 1 1.7613e-06 8.37e-05 4.85e-05 3.63e-05 
41 1 1.77136e-06 6.16e-05 4.23e-05 3.92e-05 
27 1 1.87201e-06 5.61e-05 4.49e-05 3.99e-05 
14 1 1.54994e-06 6.1e-05 4.36e-05 4.79e-05 
31 1 1.74117e-06 5.26e-05 9.03e-05 7.15e-06 
46 1 1.50968e-06 8.23e-05 7.93e-05 1.01e-05 
23 1 1.53988e-06 9.57e-05 8.94e-05 1.12e-05 
15 1 1.81162e-06 6.93e-05 9.8e-05 1.19e-05 
3 1 1.81162e-06 5.74e-05 5.62e-05 1.79e-05 
6 1 1.85188e-06 5.27e-05 8.55e-05 2.08e-05 
45 1 1.56001e-06 8.3e-05 8.84e-05 2.5e-05 
9 1 1.50968e-06 8.88e-05 7.09e-05 3.15e-05 
7 1 1.42917e-06 6.14e-05 7.6e-05 3.81e-05 
2 1 1.84181e-06 5.39e-05 8.73e-05 4.3e-05 
50 1 1.56001e-06 5.51e-05 7.89e-05 4.6e-05 
ITEM: TIMESTEP
200
ITEM: NUMBER OF ATOMS
50
ITEM: BOX BOUNDS ff ff ff
0.0000000000000000e+00 1.0000000000000000e-04
0.0000000000000000e+00 1.0000000000000000e-04
0.0000000000000000e+00 5.0000000000000002e-05
ITEM: ATOMS id type diameter x y z 
47 1 1.63085e-06 1.27e-05 1.5e-05 7.37e-06 
16 1 1.49917e-06 1.66e-05 4.79e-05 8.85e-06 
17 1 1.51943e-06 1.74e-05 3.65e-05 9.5e-06 
30 1 1.5093e-06 3.62e-05 2.09e-05 1.06e-05 
25 1 1.73215e-06 3.22e-05 2.78e-05 1.18e-05 
28 1 1.62073e-06 1.04e-05 2.65e-05 1.86e-05 
37 1 1.55995e-06 4.71e-05 4.4e-05 2.86e-05 
42 1 1.72202e-06 4.12e-05 3.56e-05 3.11e-05 
18 1 1.96513e-06 2.71e-05 8.69e-06 3.89e-05 
38 1 1.57008e-06 7.61e-06 4.56e-05 3.85e-05 
4 1 1.89422e-06 4.15e-05 2.81e-05 4e-05 
22 1 1.92461e-06 8.81e-06 4.58e-05 4.06e-05 
1 1 1.70176e-06 3.87e-05 3.58e-05 4.13e-05 
24 1 1.69163e-06 3.48e-05 2.36e-06 4.45e-05 
39 1 1.8537e-06 3.51e-06 3.03e-05 4.45e-05 
32 1 1.48904e-06 4.69e-06 6.55e-05 5.75e-06 
35 1 1.40801e-06 2.33e-05 9.65e-05 9.56e-06 
11 1 1.43839e-06 4.7e-05 9.77e-05 1.23e-05 
48 1 1.6106e-06 4.39e-05 5.61e-05 1.89e-05 
44 1 1.92461e-06 6.16e-06 5.87e-05 1.91e-05 
40 1 1.90435e-06 3.72e-05 8.76e-05 2.15e-05 
20 1 1.75241e-06 3.37e-05 7.42e-05 2.51e-05 
26 1 1.62073e-06 2.44e-06 6.1e-05 2.73e-05 
12 1 1.62073e-06 4.28e-05 5.45e-05 2.89e-05 
49 1 1.57008e-06 3.31e-05 7.84e-05 3.32e-05 
10 1 1.39788e-06 4.21e-05 6.74e-05 3.45e-05 
36 1 1.84357e-06 4.69e-05 8.86e-05 3.42e-05 
34 1 1.79293e-06 4.82e-05 6.8e-05 3.73e-05 
33 1 1.54982e-06 4.5e-06 5.71e-05 4.75e-05 
21 1 1.77267e-06 9.57e-05 1.04e-05 1.85e-06 
19 1 1.87396e-06 8e-05 3.34e-06 2.36e-06 
8 1 1.43839e-06 7.93e-05 4.01e-05 2.21e-06 
29 1 1.955e-06 8.59e-05 4.32e-05 8.22e-06 
13 1 1.76254e-06 9.17e-05 6.05e-06 1.55e-05 
5 1 1.47891e-06 9.85e-05 2.87e-05 2.25e-05 
43 1 1.77267e-06 8.37e-05 4.85e-05 3.63e-05 
41 1 1.7828e-06 6.16e-05 4.23e-05 3.92e-05 
27 1 1.88409e-06 5.61e-05 4.49e-05 3.99e-05 
14 1 1.55995e-06 6.1e-05 4.36e-05 4.79e-05 
31 1 1.75241e-06 5.26e-05 9.03e-05 7.15e-06 
46 1 1.51943e-06 8.23e-05 7.93e-05 1.01e-05 
23 1 1.54982e-06 9.57e-05 8.94e-05 1.12e-05 
15 1 1.82332e-06 6.93e-05 9.8e-05 1.19e-05 
3 1 1.82332e-06 5.74e-05 5.62e-05 1.79e-05 
6 1 1.86383e-06 5.27e-05 8.55e-05 2.08e-05 
45 1 1.57008e-06 8.3e-05 8.84e-05 2.5e-05 
9 1 1.51943e-06 8.88e-05 7.09e-05 3.15e-05 
7 1 1.43839e-06 6.14e-05 7.6e-05 3.81e-05 
2 1 1.8537e-06 5.39e-05 8.73e-05 4.3e-05 
50 1 1.57008e-06 5.51e-05 7.89e-05 4.6e-05 
ITEM: TIMESTEP
300
ITEM: NUMBER OF ATOMS
51
ITEM: BOX BOUNDS ff ff ff
0.0000000000000000e+00 1.0000000000000000e-04
0.0000000000000000e+00 1.0000000000000000e-04
0.0000000000000000e+00 5.0000000000000002e-05
ITEM: ATOMS id type diameter x y z 
47 1 1.64138e-06 1.27e-05 1.5e-05 7.37e-06 
16 1 1.50885e-06 1.66e-05 4.79e-05 8.85e-06 
17 1 1.52924e-06 1.74e-05 3.65e-05 9.5e-06 
30 1 1.51904e-06 3.62e-05 2.09e-05 1.06e-05 
25 1 1.74333e-06 3.22e-05 2.78e-05 1.18e-05 
28 1 1.63119e-06 1.04e-05 2.65e-05 1.86e-05 
37 1 1.57002e-06 4.71e-05 4.4e-05 2.86e-05 
42 1 1.73314e-06 4.12e-05 3.56e-05 3.11e-05 
18 1 1.50881e-06 2.6598e-05 9.23349e-06 3.90419e-05 
38 1 1.58021e-06 7.61e-06 4.56e-05 3.85e-05 
4 1 1.90645e-06 4.15e-05 2.81e-05 4e-05 
22 1 1.93704e-06 8.81e-06 4.58e-05 4.06e-05 
1 1 1.71275e-06 3.87e-05 3.58e-05 4.13e-05 
24 1 1.70255e-06 3.48e-05 2.36e-06 4.45e-05 
39 1 1.86567e-06 3.51e-06 3.03e-05 4.45e-05 
51 1 1.62637e-06 2.76411e-05 8.10416e-06 3.8747e-05 
32 1 1.49865e-06 4.69e-06 6.55e-05 5.75e-06 
35 1 1.41709e-06 2.33e-05 9.65e-05 9.56e-06 
11 1 1.44768e-06 4.7e-05 9.77e-05 1.23e-05 
48 1 1.62099e-06 4.39e-05 5.61e-05 1.89e-05 
44 1 1.93704e-06 6.16e-06 5.87e-05 1.91e-05 
40 1 1.91665e-06 3.72e-05 8.76e-05 2.15e-05 
20 1 1.76372e-06 3.37e-05 7.42e-05 2.51e-05 
26 1 1.63119e-06 2.44e-06 6.1e-05 2.73e-05 
12 1 1.63119e-06 4.28e-05 5.45e-05 2.89e-05 
49 1 1.58021e-06 3.31e-05 7.84e-05 3.32e-05 
10 1 1.4069e-06 4.21e-05 6.74e-05 3.45e-05 
36 1 1.85548e-06 4.69e-05 8.86e-05 3.42e-05 
34 1 1.8045e-06 4.82e-05 6.8e-05 3.73e-05 
33 1 1.55982e-06 4.5e-06 5.71e-05 4.75e-05 
21 1 1.78411e-06 9.57e-05 1.04e-05 1.85e-06 
19 1 1.88606e-06 8e-05 3.34e-06 2.36e-06 
8 1 1.44768e-06 7.93e-05 4.01e-05 2.21e-06 
29 1 1.96762e-06 8.59e-05 4.32e-05 8.22e-06 
13 1 1.77392e-06 9.17e-05 6.05e-06 1.55e-05 
5 1 1.48846e-06 9.85e-05 2.87e-05 2.25e-05 
43 1 1.78411e-06 8.37e-05 4.85e-05 3.63e-05 
41 1 1.79431e-06 6.16e-05 4.23e-05 3.92e-05 
27 1 1.89626e-06 5.61e-05 4.49e-05 3.99e-05 
14 1 1.57002e-06 6.1e-05 4.36e-05 4.79e-05 
31 1 1.76372e-06 5.26e-05 9.03e-05 7.15e-06 
46 1 1.52924e-06 8.23e-05 7.93e-05 1.01e-05 
23 1 1.55982e-06 9.57e-05 8.94e-05 1.12e-05 
15 1 1.83509e-06 6.93e-05 9.8e-05 1.19e-05 
3 1 1.83509e-06 5.74e-05 5.62e-05 1.79e-05 
6 1 1.87587e-06 5.27e-05 8.55e-05 2.08e-05 
45 1 1.58021e-06 8.3e-05 8.84e-05 2.5e-05 
9 1 1.52924e-06 8.88e-05 7.09e-05 3.15e-05 
7 1 1.44768e-06 6.14e-05 7.6e-05 3.81e-05 
2 1 1.86567e-06 5.39e-05 8.73e-05 4.3e-05 
50 1 1.58021e-06 5.51e-05 7.89e-05 4.6e-05 
ITEM: TIMESTEP
400
ITEM: NUMBER OF ATOMS
52
ITEM: BOX BOUNDS ff ff ff
0.0000000000000000e+00 1.0000000000000000e-04
0.0000000000000000e+00 1.0000000000000000e-04
0.0000000000000000e+00 5.0000000000000002e-05
ITEM: ATOMS id type diameter x y z 
47 1 1.65198e-06 1.27e-05 1.5e-05 7.37e-06 
16 1 1.51859e-06 1.66e-05 4.79e-05 8.85e-06 
17 1 1.53911e-06 1.74e-05 3.65e-05 9.5e-06 
30 1 1.52885e-06 3.62e-05 2.09e-05 1.06e-05 
25 1 1.75459e-06 3.22e-05 2.78e-05 1.18e-05 
28 1 1.64172e-06 1.04e-05 2.65e-05 1.86e-05 
37 1 1.58015e-06 4.71e-05 4.4e-05 2.86e-05 
42 1 1.74433e-06 4.12e-05 3.56e-05 3.11e-05 
18 1 1.51855e-06 2.6598e-05 9.23349e-06 3.90419e-05 
38 1 1.59042e-06 7.61e-06 4.56e-05 3.85e-05 
4 1 1.91876e-06 4.15e-05 2.81e-05 4e-05 
22 1 1.94954e-06 8.81e-06 4.58e-05 4.06e-05 
1 1 1.7238e-06 3.87e-05 3.58e-05 4.13e-05 
24 1 1.71354e-06 3.48e-05 2.36e-06 4.45e-05 
39 1 1.87772e-06 3.51e-06 3.03e-05 4.45e-05 
51 1 1.63687e-06 2.76411e-05 8.10416e-06 3.8747e-05 
32 1 1.50833e-06 4.69e-06 6.55e-05 5.75e-06 
35 1 1.42624e-06 2.33e-05 9.65e-05 9.56e-06 
11 1 1.45703e-06 4.7e-05 9.77e-05 1.23e-05 
48 1 1.63146e-06 4.39e-05 5.61e-05 1.89e-05 
44 1 1.94954e-06 6.16e-06 5.87e-05 1.91e-05 
40 1 1.92902e-06 3.72e-05 8.76e-05 2.15e-05 
20 1 1.77511e-06 3.37e-05 7.42e-05 2.51e-05 
26 1 1.64172e-06 2.44e-06 6.1e-05 2.73e-05 
12 1 1.64172e-06 4.28e-05 5.45e-05 2.89e-05 
49 1 1.59042e-06 3.31e-05 7.84e-05 3.32e-05 
10 1 1.41598e-06 4.21e-05 6.74e-05 3.45e-05 
36 1 1.86746e-06 4.69e-05 8.86e-05 3.42e-05 
34 1 1.81615e-06 4.82e-05 6.8e-05 3.73e-05 
33 1 1.56989e-06 4.5e-06 5.71e-05 4.75e-05 
21 1 1.79563e-06 9.57e-05 1.04e-05 1.85e-06 
19 1 1.89824e-06 8e-05 3.34e-06 2.36e-06 
8 1 1.45703e-06 7.93e-05 4.01e-05 2.21e-06 
29 1 1.51072e-06 8.53974e-05 4.37442e-05 8.36208e-06 
13 1 1.78537e-06 9.17e-05 6.05e-06 1.55e-05 
52 1 1.62844e-06 8.64418e-05 4.26134e-05 8.06685e-06 
5 1 1.49807e-06 9.85e-05 2.87e-05 2.25e-05 
43 1 1.79563e-06 8.37e-05 4.85e-05 3.63e-05 
41 1 1.80589e-06 6.16e-05 4.23e-05 3.92e-05 
27 1 1.9085e-06 5.61e-05 4.49e-05 3.99e-05 
14 1 1.58015e-06 6.1e-05 4.36e-05 4.79e-05 
31 1 1.77511e-06 5.26e-05 9.03e-05 7.15e-06 
46 1 1.53911e-06 8.23e-05 7.93e-05 1.01e-05 
23 1 1.56989e-06 9.57e-05 8.94e-05 1.12e-05 
15 1 1.84693e-06 6.93e-05 9.8e-05 1.19e-05 
3 1 1.84693e-06 5.74e-05 5.62e-05 1.79e-05 
6 1 1.88798e-06 5.27e-05 8.55e-05 2.08e-05 
45 1 1.59042e-06 8.3e-05 8.84e-05 2.5e-05 
9 1 1.53911e-06 8.88e-05 7.09e-05 3.15e-05 
7 1 1.45703e-06 6.14e-05 7.6e-05 3.81e-05 
2 1 1.87772e-06 5.39e-05 8.73e-05 4.3e-05 
50 1 1.59042e-06 5.51e-05 7.89e-05 4.6e-05 
ITEM: TIMESTEP
500
ITEM: NUMBER OF ATOMS
52
ITEM: BOX BOUNDS ff ff ff
0.0000000000000000e+00 1.0000000000000000e-04
0.0000000000000000e+00 1.0000000000000000e-04
0.0000000000000000e+00 5.0000000000000002e-05
ITEM: ATOMS id type diameter x y z 
47 1 1.66264e-06 1.27e-05 1.5e-05 7.37e-06 
16 1 1.52839e-06 1.66e-05 4.79e-05 8.85e-06 
17 1 1.54905e-06 1.74e-05 3.65e-05 9.5e-06 
30 1 1.53872e-06 3.62e-05 2.09e-05 1.06e-05 
25 1 1.76591e-06 3.22e-05 2.78e-05 1.18e-05 
28 1 1.65232e-06 1.04e-05 2.65e-05 1.86e-05 
37 1 1.59036e-06 4.71e-05 4.4e-05 2.86e-05 
42 1 1.75559e-06 4.12e-05 3.56e-05 3.11e-05 
18 1 1.52835e-06 2.6598e-05 9.23349e-06 3.90419e-05 
38 1 1.60068e-06 7.61e-06 4.56e-05 3.85e-05 
4 1 1.93115e-06 4.15e-05 2.81e-05 4e-05 
22 1 1.96213e-06 8.81e-06 4.58e-05 4.06e-05 
1 1 1.73493e-06 3.87e-05 3.58e-05 4.13e-05 
24 1 1.72461e-06 3.48e-05 2.36e-06 4.45e-05 
39 1 1.88984e-06 3.51e-06 3.03e-05 4.45e-05 
51 1 1.64744e-06 2.76411e-05 8.10416e-06 3.8747e-05 
32 1 1.51807e-06 4.69e-06 6.55e-05 5.75e-06 
35 1 1.43545e-06 2.33e-05 9.65e-05 9.56e-06 
11 1 1.46643e-06 4.7e-05 9.77e-05 1.23e-05 
48 1 1.64199e-06 4.39e-05 5.61e-05 1.89e-05 
44 1 1.96213e-06 6.16e-06 5.87e-05 1.91e-05 
40 1 1.94147e-06 3.72e-05 8.76e-05 2.15e-05 
20 1 1.78657e-06 3.37e-05 7.42e-05 2.51e-05 
26 1 1.65232e-06 2.44e-06 6.1e-05 2.73e-05 
12 1 1.65232e-06 4.28e-05 5.45e-05 2.89e-05 
49 1 1.60068e-06 3.31e-05 7.84e-05 3.32e-05 
10 1 1.42512e-06 4.21e-05 6.74e-05 3.45e-05 
36 1 1.87951e-06 4.69e-05 8.86e-05 3.42e-05 
34 1 1.82788e-06 4.82e-05 6.8e-05 3.73e-05 
33 1 1.58003e-06 4.5e-06 5.71e-05 4.75e-05 
21 1 1.80722e-06 9.57e-05 1.04e-05 1.85e-06 
19 1 1.91049e-06 8e-05 3.34e-06 2.36e-06 
8 1 1.46643e-06 7.93e-05 4.01e-05 2.21e-06 
29 1 1.52048e-06 8.53974e-05 4.37442e-05 8.36208e-06 
13 1 1.7969e-06 9.17e-05 6.05e-06 1.55e-05 
52 1 1.63895e-06 8.64418e-05 4.26134e-05 8.06685e-06 
5 1 1.50774e-06 9.85e-05 2.87e-05 2.25e-05 
43 1 1.80722e-06 8.37e-05 4.85e-05 3.63e-05 
41 1 1.81755e-06 6.16e-05 4.23e-05 3.92e-05 
27 1 1.92082e-06 5.61e-05 4.49e-05 3.99e-05 
14 1 1.59036e-06 6.1e-05 4.36e-05 4.79e-05 
31 1 1.78657e-06 5.26e-05 9.03e-05 7.15e-06 
46 1 1.54905e-06 8.23e-05 7.93e-05 1.01e-05 
23 1 1.58003e-06 9.57e-05 8.94e-05 1.12e-05 
15 1 1.85886e-06 6.93e-05 9.8e-05 1.19e-05 
3 1 1.85886e-06 5.74e-05 5.62e-05 1.79e-05 
6 1 1.90017e-06 5.27e-05 8.55e-05 2.08e-05 
45 1 1.60068e-06 8.3e-05 8.84e-05 2.5e-05 
9 1 1.54905e-06 8.88e-05 7.09e-05 3.15e-05 
7 1 1.46643e-06 6.14e-05 7.6e-05 3.81e-05 
2 1 1.88984e-06 5.39e-05 8.73e-05 4.3e-05 
50 1 1.60068e-06 5.51e-05 7.89e-05 4.6e-05 
ITEM: TIMESTEP
600
ITEM: NUMBER OF ATOMS
54
ITEM: BOX BOUNDS ff ff ff
0.0000000000000000e+00 1.0000000000000000e-04
0.0000000000000000e+00 1.0000000000000000e-04
0.0000000000000000e+00 5.0000000000000002e-05
ITEM: ATOMS id type diameter x y z 
47 1 1.67338e-06 1.27e-05 1.5e-05 7.37e-06 
16 1 1.53826e-06 1.66e-05 4.79e-05 8.85e-06 
17 1 1.55905e-06 1.74e-05 3.65e-05 9.5e-06 
30 1 1.54865e-06 3.62e-05 2.09e-05 1.06e-05 
25 1 1.77731e-06 3.22e-05 2.78e-05 1.18e-05 
28 1 1.66298e-06 1.04e-05 2.65e-05 1.86e-05 
37 1 1.60062e-06 4.71e-05 4.4e-05 2.86e-05 
42 1 1.76692e-06 4.12e-05 3.56e-05 3.11e-05 
18 1 1.53822e-06 2.65847e-05 9.24792e-06 3.90457e-05 
38 1 1.61102e-06 7.61e-06 4.56e-05 3.85e-05 
4 1 1.94361e-06 4.15e-05 2.81e-05 4e-05 
22 1 1.61329e-06 8.15006e-06 4.60482e-05 4.09895e-05 
1 1 1.74613e-06 3.87e-05 3.58e-05 4.13e-05 
24 1 1.73574e-06 3.48e-05 2.36e-06 4.45e-05 
39 1 1.90204e-06 3.51e-06 3.03e-05 4.45e-05 
51 1 1.65808e-06 2.76544e-05 8.08974e-06 3.87433e-05 
53 1 1.51864e-06 9.43122e-06 4.55664e-05 4.02334e-05 
32 1 1.52787e-06 4.69e-06 6.55e-05 5.75e-06 
35 1 1.44472e-06 2.33e-05 9.65e-05 9.56e-06 
11 1 1.4759e-06 4.7e-05 9.77e-05 1.23e-05 
48 1 1.65259e-06 4.39e-05 5.61e-05 1.89e-05 
44 1 1.5065e-06 5.6588e-06 5.92427e-05 1.92417e-05 
54 1 1.62389e-06 6.70025e-06 5.81151e-05 1.89473e-05 
40 1 1.95401e-06 3.72e-05 8.76e-05 2.15e-05 
20 1 1.7981e-06 3.37e-05 7.42e-05 2.51e-05 
26 1 1.66298e-06 2.44e-06 6.1e-05 2.73e-05 
12 1 1.66298e-06 4.28e-05 5.45e-05 2.89e-05 
49 1 1.61102e-06 3.31e-05 7.84e-05 3.32e-05 
10 1 1.43432e-06 4.21e-05 6.74e-05 3.45e-05 
36 1 1.89164e-06 4.69e-05 8.86e-05 3.42e-05 
34 1 1.83968e-06 4.82e-05 6.8e-05 3.73e-05 
33 1 1.59023e-06 4.5e-06 5.71e-05 4.75e-05 
21 1 1.81889e-06 9.57e-05 1.04e-05 1.85e-06 
19 1 1.92283e-06 8e-05 3.34e-06 2.36e-06 
8 1 1.4759e-06 7.93e-05 4.01e-05 2.21e-06 
29 1 1.53029e-06 8.53974e-05 4.37442e-05 8.36208e-06 
13 1 1.8085e-06 9.17e-05 6.05e-06 1.55e-05 
52 1 1.64953e-06 8.64418e-05 4.26134e-05 8.06685e-06 
5 1 1.51747e-06 9.85e-05 2.87e-05 2.25e-05 
43 1 1.81889e-06 8.37e-05 4.85e-05 3.63e-05 
41 1 1.82928e-06 6.16e-05 4.23e-05 3.92e-05 
27 1 1.93322e-06 5.61e-05 4.49e-05 3.99e-05 
14 1 1.60062e-06 6.1e-05 4.36e-05 4.79e-05 
31 1 1.7981e-06 5.26e-05 9.03e-05 7.15e-06 
46 1 1.55905e-06 8.23e-05 7.93e-05 1.01e-05 
23 1 1.59023e-06 9.57e-05 8.94e-05 1.12e-05 
15 1 1.87086e-06 6.93e-05 9.8e-05 1.19e-05 
3 1 1.87086e-06 5.74e-05 5.62e-05 1.79e-05 
6 1 1.91243e-06 5.27e-05 8.55e-05 2.08e-05 
45 1 1.61102e-06 8.3e-05 8.84e-05 2.5e-05 
9 1 1.55905e-06 8.88e-05 7.09e-05 3.15e-05 
7 1 1.4759e-06 6.14e-05 7.6e-05 3.81e-05 
2 1 1.90204e-06 5.39e-05 8.73e-05 4.3e-05 
50 1 1.61102e-06 5.51e-05 7.89e-05 4.6e-05 
ITEM: TIMESTEP
700
ITEM: NUMBER OF ATOMS
54
ITEM: BOX BOUNDS ff ff ff
0.0000000000000000e+00 1.0000000000000000e-04
0.0000000000000000e+00 1.0000000000000000e-04
0.0000000000000000e+00 5.0000000000000002e-05
ITEM: ATOMS id type diameter x y z 
47 1 1.68418e-06 1.27e-05 1.5e-05 7.37e-06 
16 1 1.54819e-06 1.66e-05 4.79e-05 8.85e-06 
17 1 1.56911e-06 1.74e-05 3.65e-05 9.5e-06 
30 1 1.55865e-06 3.62e-05 2.09e-05 1.06e-05 
25 1 1.78879e-06 3.22e-05 2.78e-05 1.18e-05 
28 1 1.67372e-06 1.04e-05 2.65e-05 1.86e-05 
37 1 1.61096e-06 4.71e-05 4.4e-05 2.86e-05 
42 1 1.77833e-06 4.12e-05 3.56e-05 3.11e-05 
18 1 1.54815e-06 2.65847e-05 9.24792e-06 3.90457e-05 
38 1 1.62142e-06 7.61e-06 4.56e-05 3.85e-05 
4 1 1.95616e-06 4.15e-05 2.81e-05 4e-05 
22 1 1.6237e-06 8.15006e-06 4.60482e-05 4.09895e-05 
1 1 1.75741e-06 3.87e-05 3.58e-05 4.13e-05 
24 1 1.74695e-06 3.48e-05 2.36e-06 4.45e-05 
39 1 1.91432e-06 3.51e-06 3.03e-05 4.45e-05 
51 1 1.66878e-06 2.76544e-05 8.08974e-06 3.87433e-05 
53 1 1.52845e-06 9.43122e-06 4.55664e-05 4.02334e-05 
32 1 1.53773e-06 4.69e-06 6.55e-05 5.75e-06 
35 1 1.45404e-06 2.33e-05 9.65e-05 9.56e-06 
11 1 1.48543e-06 4.7e-05 9.77e-05 1.23e-05 
48 1 1.66326e-06 4.39e-05 5.61e-05 1.89e-05 
44 1 1.51623e-06 5.6588e-06 5.92427e-05 1.92417e-05 
54 1 1.63437e-06 6.70025e-06 5.81151e-05 1.89473e-05 
40 1 1.96662e-06 3.72e-05 8.76e-05 2.15e-05 
20 1 1.80971e-06 3.37e-05 7.42e-05 2.51e-05 
26 1 1.67372e-06 2.44e-06 6.1e-05 2.73e-05 
12 1 1.67372e-06 4.28e-05 5.45e-05 2.89e-05 
49 1 1.62142e-06 3.31e-05 7.84e-05 3.32e-05 
10 1 1.44358e-06 4.21e-05 6.74e-05 3.45e-05 
36 1 1.90386e-06 4.69e-05 8.86e-05 3.42e-05 
34 1 1.85155e-06 4.82e-05 6.8e-05 3.73e-05 
33 1 1.6005e-06 4.5e-06 5.71e-05 4.75e-05 
21 1 1.83063e-06 9.57e-05 1.04e-05 1.85e-06 
19 1 1.93524e-06 8e-05 3.34e-06 2.36e-06 
8 1 1.48543e-06 7.93e-05 4.01e-05 2.21e-06 
29 1 1.54017e-06 8.53841e-05 4.37586e-05 8.36584e-06 
13 1 1.82017e-06 9.17e-05 6.05e-06 1.55e-05 
52 1 1.66018e-06 8.64551e-05 4.2599e-05 8.06308e-06 
5 1 1.52727e-06 9.85e-05 2.87e-05 2.25e-05 
43 1 1.83063e-06 8.37e-05 4.85e-05 3.63e-05 
41 1 1.84109e-06 6.16e-05 4.23e-05 3.92e-05 
27 1 1.9457e-06 5.61e-05 4.49e-05 3.99e-05 
14 1 1.61096e-06 6.1e-05 4.36e-05 4.79e-05 
31 1 1.80971e-06 5.26e-05 9.03e-05 7.15e-06 
46 1 1.56911e-06 8.23e-05 7.93e-05 1.01e-05 
23 1 1.6005e-06 9.57e-05 8.94e-05 1.12e-05 
15 1 1.88294e-06 6.93e-05 9.8e-05 1.19e-05 
3 1 1.88294e-06 5.74e-05 5.62e-05 1.79e-05 
6 1 1.92478e-06 5.27e-05 8.55e-05 2.08e-05 
45 1 1.62142e-06 8.3e-05 8.84e-05 2.5e-05 
9 1 1.56911e-06 8.88e-05 7.09e-05 3.15e-05 
7 1 1.48543e-06 6.14e-05 7.6e-05 3.81e-05 
2 1 1.91432e-06 5.39e-05 8.73e-05 4.3e-05 
50 1 1.62142e-06 5.51e-05 7.89e-05 4.6e-05 
ITEM: TIMESTEP
800
ITEM: NUMBER OF ATOMS
55
ITEM: BOX BOUNDS ff ff ff
0.0000000000000000e+00 1.0000000000000000e-04
0.0000000000000000e+00 1.0000000000000000e-04
0.0000000000000000e+00 5.0000000000000002e-05
ITEM: ATOMS id type diameter x y z 
47 1 1.69505e-06 1.27e-05 1.5e-05 7.37e-06 
16 1 1.55819e-06 1.66e-05 4.79e-05 8.85e-06 
17 1 1.57924e-06 1.74e-05 3.65e-05 9.5e-06 
30 1 1.56871e-06 3.62e-05 2.09e-05 1.06e-05 
25 1 1.80034e-06 3.22e-05 2.78e-05 1.18e-05 
28 1 1.68453e-06 1.04e-05 2.65e-05 1.86e-05 
37 1 1.62136e-06 4.71e-05 4.4e-05 2.86e-05 
42 1 1.78981e-06 4.12e-05 3.56e-05 3.11e-05 
18 1 1.55815e-06 2.65847e-05 9.24792e-06 3.90457e-05 
38 1 1.63188e-06 7.61e-06 4.56e-05 3.85e-05 
4 1 1.96879e-06 4.15e-05 2.81e-05 4e-05 
22 1 1.63419e-06 8.15006e-06 4.60482e-05 4.09895e-05 
1 1 1.76875e-06 3.87e-05 3.58e-05 4.13e-05 
24 1 1.75822e-06 3.48e-05 2.36e-06 4.45e-05 
39 1 1.92668e-06 3.51e-06 3.03e-05 4.45e-05 
51 1 1.67955e-06 2.76544e-05 8.08974e-06 3.87433e-05 
53 1 1.53832e-06 9.43122e-06 4.55664e-05 4.02334e-05 
32 1 1.54766e-06 4.69e-06 6.55e-05 5.75e-06 
35 1 1.46343e-06 2.33e-05 9.65e-05 9.56e-06 
11 1 1.49502e-06 4.7e-05 9.77e-05 1.23e-05 
48 1 1.674e-06 4.39e-05 5.61e-05 1.89e-05 
44 1 1.52602e-06 5.6588e-06 5.92427e-05 1.92417e-05 
54 1 1.64492e-06 6.70025e-06 5.81151e-05 1.89473e-05 
40 1 1.50996e-06 3.66977e-05 8.81439e-05 2.1642e-05 
20 1 1.82139e-06 3.37e-05 7.42e-05 2.51e-05 
26 1 1.68453e-06 2.44e-06 6.1e-05 2.73e-05 
12 1 1.68453e-06 4.28e-05 5.45e-05 2.89e-05 
49 1 1.63188e-06 3.31e-05 7.84e-05 3.32e-05 
10 1 1.4529e-06 4.21e-05 6.74e-05 3.45e-05 
36 1 1.91615e-06 4.69e-05 8.86e-05 3.42e-05 
34 1 1.86351e-06 4.82e-05 6.8e-05 3.73e-05 
33 1 1.61083e-06 4.5e-06 5.71e-05 4.75e-05 
55 1 1.62761e-06 3.77415e-05 8.70137e-05 2.13469e-05 
21 1 1.84245e-06 9.57e-05 1.04e-05 1.85e-06 
19 1 1.94773e-06 8e-05 3.34e-06 2.36e-06 
8 1 1.49502e-06 7.93e-05 4.01e-05 2.21e-06 
29 1 1.55011e-06 8.53841e-05 4.37586e-05 8.36584e-06 
13 1 1.83192e-06 9.17e-05 6.05e-06 1.55e-05 
52 1 1.6709e-06 8.64551e-05 4.2599e-05 8.06308e-06 
5 1 1.53713e-06 9.85e-05 2.87e-05 2.25e-05 
43 1 1.84245e-06 8.37e-05 4.85e-05 3.63e-05 
41 1 1.85298e-06 6.16e-05 4.23e-05 3.92e-05 
27 1 1.95826e-06 5.61e-05 4.49e-05 3.99e-05 
14 1 1.62136e-06 6.1e-05 4.36e-05 4.79e-05 
31 1 1.82139e-06 5.26e-05 9.03e-05 7.15e-06 
46 1 1.57924e-06 8.23e-05 7.93e-05 1.01e-05 
23 1 1.61083e-06 9.57e-05 8.94e-05 1.12e-05 
15 1 1.89509e-06 6.93e-05 9.8e-05 1.19e-05 
3 1 1.89509e-06 5.74e-05 5.62e-05 1.79e-05 
6 1 1.9372e-06 5.27e-05 8.55e-05 2.08e-05 
45 1 1.63188e-06 8.3e-05 8.84e-05 2.5e-05 
9 1 1.57924e-06 8.88e-05 7.09e-05 3.15e-05 
7 1 1.49502e-06 6.14e-05 7.6e-05 3.81e-05 
2 1 1.92668e-06 5.39e-05 8.73e-05 4.3e-05 
50 1 1.63188e-06 5.51e-05 7.89e-05 4.6e-05 
ITEM: TIMESTEP
900
ITEM: NUMBER OF ATOMS
56
ITEM: BOX BOUNDS ff ff ff
0.0000000000000000e+00 1.0000000000000000e-04
0.0000000000000000e+00 1.0000000000000000e-04
0.0000000000000000e+00 5.0000000000000002e-05
ITEM: ATOMS id type diameter x y z 
47 1 1.706e-06 1.27e-05 1.5e-05 7.37e-06 
16 1 1.56825e-06 1.66e-05 4.79e-05 8.85e-06 
17 1 1.58944e-06 1.74e-05 3.65e-05 9.5e-06 
30 1 1.57884e-06 3.62e-05 2.09e-05 1.06e-05 
25 1 1.81196e-06 3.22e-05 2.78e-05 1.18e-05 
28 1 1.6954e-06 1.04e-05 2.65e-05 1.86e-05 
37 1 1.63182e-06 4.71e-05 4.4e-05 2.86e-05 
42 1 1.80136e-06 4.12e-05 3.56e-05 3.11e-05 
18 1 1.5682e-06 2.65847e-05 9.24792e-06 3.90457e-05 
38 1 1.64242e-06 7.61e-06 4.56e-05 3.85e-05 
4 1 1.57953e-06 4.15295e-05 2.77128e-05 3.93136e-05 
22 1 1.64474e-06 8.13368e-06 4.60543e-05 4.09991e-05 
1 1 1.78017e-06 3.87e-05 3.58e-05 4.13e-05 
24 1 1.76957e-06 3.48e-05 2.36e-06 4.45e-05 
39 1 1.93911e-06 3.51e-06 3.03e-05 4.45e-05 
51 1 1.6904e-06 2.76544e-05 8.08974e-06 3.87433e-05 
53 1 1.54825e-06 9.44761e-06 4.55602e-05 4.02237e-05 
56 1 1.56585e-06 4.14707e-05 2.84838e-05 4.06805e-05 
32 1 1.55765e-06 4.69e-06 6.55e-05 5.75e-06 
35 1 1.47288e-06 2.33e-05 9.65e-05 9.56e-06 
11 1 1.50467e-06 4.7e-05 9.77e-05 1.23e-05 
48 1 1.6848e-06 4.39e-05 5.61e-05 1.89e-05 
44 1 1.53587e-06 5.64548e-06 5.92571e-05 1.92454e-05 
54 1 1.65554e-06 6.71358e-06 5.81006e-05 1.89435e-05 
40 1 1.5197e-06 3.66977e-05 8.81439e-05 2.1642e-05 
20 1 1.83315e-06 3.37e-05 7.42e-05 2.51e-05 
26 1 1.6954e-06 2.44e-06 6.1e-05 2.73e-05 
12 1 1.6954e-06 4.28e-05 5.45e-05 2.89e-05 
49 1 1.64242e-06 3.31e-05 7.84e-05 3.32e-05 
10 1 1.46228e-06 4.21e-05 6.74e-05 3.45e-05 
36 1 1.92852e-06 4.69e-05 8.86e-05 3.42e-05 
34 1 1.87554e-06 4.82e-05 6.8e-05 3.73e-05 
33 1 1.62123e-06 4.5e-06 5.71e-05 4.75e-05 
55 1 1.63812e-06 3.77415e-05 8.70137e-05 2.13469e-05 
21 1 1.85434e-06 9.57e-05 1.04e-05 1.85e-06 
19 1 1.96031e-06 8e-05 3.34e-06 2.36e-06 
8 1 1.50467e-06 7.93e-05 4.01e-05 2.21e-06 
29 1 1.56012e-06 8.53841e-05 4.37586e-05 8.36584e-06 
13 1 1.84375e-06 9.17e-05 6.05e-06 1.55e-05 
52 1 1.68168e-06 8.64551e-05 4.2599e-05 8.06308e-06 
5 1 1.54705e-06 9.85e-05 2.87e-05 2.25e-05 
43 1 1.85434e-06 8.37e-05 4.85e-05 3.63e-05 
41 1 1.86494e-06 6.16e-05 4.23e-05 3.92e-05 
27 1 1.9709e-06 5.61e-05 4.49e-05 3.99e-05 
14 1 1.63182e-06 6.1e-05 4.36e-05 4.79e-05 
31 1 1.83315e-06 5.26e-05 9.03e-05 7.15e-06 
46 1 1.58944e-06 8.23e-05 7.93e-05 1.01e-05 
23 1 1.62123e-06 9.57e-05 8.94e-05 1.12e-05 
15 1 1.90733e-06 6.93e-05 9.8e-05 1.19e-05 
3 1 1.90733e-06 5.74e-05 5.62e-05 1.79e-05 
6 1 1.94971e-06 5.27e-05 8.55e-05 2.08e-05 
45 1 1.64242e-06 8.3e-05 8.84e-05 2.5e-05 
9 1 1.58944e-06 8.88e-05 7.09e-05 3.15e-05 
7 1 1.50467e-06 6.14e-05 7.6e-05 3.81e-05 
2 1 1.93911e-06 5.39e-05 8.73e-05 4.3e-05 
50 1 1.64242e-06 5.51e-05 7.89e-05 4.6e-05 
ITEM: TIMESTEP
1000
ITEM: NUMBER OF ATOMS
58
ITEM: BOX BOUNDS ff ff ff
0.0000000000000000e+00 1.0000000000000000e-04
0.0000000000000000e+00 1.0000000000000000e-04
0.0000000000000000e+00 5.0000000000000002e-05
ITEM: ATOMS id type diameter x y z 
47 1 1.71701e-06 1.27e-05 1.5e-05 7.37e-06 
16 1 1.57837e-06 1.66e-05 4.79e-05 8.85e-06 
17 1 1.5997e-06 1.74e-05 3.65e-05 9.5e-06 
30 1 1.58903e-06 3.62e-05 2.09e-05 1.06e-05 
25 1 1.82366e-06 3.22e-05 2.78e-05 1.18e-05 
28 1 1.70635e-06 1.04e-05 2.65e-05 1.86e-05 
37 1 1.64236e-06 4.71e-05 4.4e-05 2.86e-05 
42 1 1.81299e-06 4.12e-05 3.56e-05 3.11e-05 
51 1 1.70131e-06 2.76677e-05 8.07531e-06 3.87395e-05 
38 1 1.65302e-06 7.61e-06 4.56e-05 3.85e-05 
18 1 1.57833e-06 2.65714e-05 9.26235e-06 3.90494e-05 
4 1 1.58973e-06 4.15295e-05 2.77128e-05 3.93136e-05 
53 1 1.55824e-06 9.44761e-06 4.55602e-05 4.02237e-05 
56 1 1.57596e-06 4.14707e-05 2.84838e-05 4.06805e-05 
22 1 1.65535e-06 8.13368e-06 4.60543e-05 4.09991e-05 
1 1 1.79166e-06 3.87e-05 3.58e-05 4.13e-05 
24 1 1.781e-06 3.48e-05 2.36e-06 4.45e-05 
39 1 1.95163e-06 3.51e-06 3.03e-05 4.45e-05 
32 1 1.56771e-06 4.69e-06 6.55e-05 5.75e-06 
35 1 1.48239e-06 2.33e-05 9.65e-05 9.56e-06 
11 1 1.51438e-06 4.7e-05 9.77e-05 1.23e-05 
48 1 1.69568e-06 4.39e-05 5.61e-05 1.89e-05 
54 1 1.66623e-06 6.71358e-06 5.81006e-05 1.89435e-05 
44 1 1.54579e-06 5.64548e-06 5.92571e-05 1.92454e-05 
55 1 1.64869e-06 3.77415e-05 8.70137e-05 2.13469e-05 
40 1 1.52951e-06 3.66977e-05 8.81439e-05 2.1642e-05 
20 1 1.84499e-06 3.37e-05 7.42e-05 2.51e-05 
26 1 1.70635e-06 2.44e-06 6.1e-05 2.73e-05 
12 1 1.70635e-06 4.28e-05 5.45e-05 2.89e-05 
49 1 1.65302e-06 3.31e-05 7.84e-05 3.32e-05 
10 1 1.47172e-06 4.21e-05 6.74e-05 3.45e-05 
36 1 1.94097e-06 4.69e-05 8.86e-05 3.42e-05 
34 1 1.88764e-06 4.82e-05 6.8e-05 3.73e-05 
33 1 1.63169e-06 4.5e-06 5.71e-05 4.75e-05 
57 1 1.51724e-06 8.06206e-05 3.1066e-06 1.99372e-06 
21 1 1.86632e-06 9.57e-05 1.04e-05 1.85e-06 
8 1 1.51438e-06 7.93e-05 4.01e-05 2.21e-06 
19 1 1.61179e-06 7.93407e-05 3.58794e-06 2.74911e-06 
52 1 1.69254e-06 8.64551e-05 4.2599e-05 8.06308e-06 
29 1 1.57019e-06 8.53841e-05 4.37586e-05 8.36584e-06 
13 1 1.85565e-06 9.17e-05 6.05e-06 1.55e-05 
5 1 1.55704e-06 9.85e-05 2.87e-05 2.25e-05 
43 1 1.86632e-06 8.37e-05 4.85e-05 3.63e-05 
41 1 1.87698e-06 6.16e-05 4.23e-05 3.92e-05 
58 1 1.63115e-06 5.66427e-05 4.43124e-05 3.97466e-05 
27 1 1.51324e-06 5.55966e-05 4.54451e-05 4.00423e-05 
14 1 1.64236e-06 6.1e-05 4.36e-05 4.79e-05 
31 1 1.84499e-06 5.26e-05 9.03e-05 7.15e-06 
46 1 1.5997e-06 8.23e-05 7.93e-05 1.01e-05 
23 1 1.63169e-06 9.57e-05 8.94e-05 1.12e-05 
15 1 1.91964e-06 6.93e-05 9.8e-05 1.19e-05 
3 1 1.91964e-06 5.74e-05 5.62e-05 1.79e-05 
6 1 1.9623e-06 5.27e-05 8.55e-05 2.08e-05 
45 1 1.65302e-06 8.3e-05 8.84e-05 2.5e-05 
9 1 1.5997e-06 8.88e-05 7.09e-05 3.15e-05 
7 1 1.51438e-06 6.14e-05 7.6e-05 3.81e-05 
2 1 1.95163e-06 5.39e-05 8.73e-05 4.3e-05 
50 1 1.65302e-06 5.51e-05 7.89e-05 4.6e-05 
ITEM: TIMESTEP
1100
ITEM: NUMBER OF ATOMS
59
ITEM: BOX BOUNDS ff ff ff
0.0000000000000000e+00 1.0000000000000000e-04
0.0000000000000000e+00 1.0000000000000000e-04
0.0000000000000000e+00 5.0000000000000002e-05
ITEM: ATOMS id type diameter x y z 
47 1 1.7281e-06 1.27e-05 1.5e-05 7.37e-06 
16 1 1.58856e-06 1.66e-05 4.79e-05 8.85e-06 
17 1 1.61003e-06 1.74e-05 3.65e-05 9.5e-06 
30 1 1.59929e-06 3.62e-05 2.09e-05 1.06e-05 
25 1 1.83543e-06 3.22e-05 2.78e-05 1.18e-05 
28 1 1.71736e-06 1.04e-05 2.65e-05 1.86e-05 
37 1 1.65296e-06 4.71e-05 4.4e-05 2.86e-05 
42 1 1.8247e-06 4.12e-05 3.56e-05 3.11e-05 
51 1 1.71229e-06 2.76677e-05 8.07531e-06 3.87395e-05 
38 1 1.66369e-06 7.61e-06 4.56e-05 3.85e-05 
18 1 1.58852e-06 2.65714e-05 9.26235e-06 3.90494e-05 
4 1 1.59999e-06 4.15295e-05 2.77128e-05 3.93136e-05 
53 1 1.5683e-06 9.44761e-06 4.55602e-05 4.02237e-05 
56 1 1.58613e-06 4.14707e-05 2.84838e-05 4.06805e-05 
22 1 1.66604e-06 8.13368e-06 4.60543e-05 4.09991e-05 
1 1 1.80323e-06 3.87e-05 3.58e-05 4.13e-05 
24 1 1.7925e-06 3.48e-05 2.36e-06 4.45e-05 