LAMMPS (20 Nov 2019)
Reading data file ...
  orthogonal box = (0 0 0) to (0.0001 0.0001 1e-05)
  8 by 4 by 1 MPI processor grid
  reading atoms ...
  100 atoms
  4 nutrients
Lattice spacing in x,y,z = 100 100 100
50 atoms in group CYANO
50 atoms in group ECW
Model is defined as a closed system. 
Neighbor list info ...
  update every 1 steps, delay 0 steps, check yes
  max neighbors/atom: 5000, page size: 100000
  master list distance cutoff = 2.42e-06
  ghost atom cutoff = 2.42e-06
  binsize = 1.21e-06, bins = 83 83 9
  1 neighbor lists, perpetual/occasional/extra = 1 0 0
  (1) pair gran/hooke/history, perpetual
      attributes: half, newton off, size, history
      pair build: half/size/bin/newtoff
      stencil: half/bin/3d/newtoff
      bin: standard
Setting up Verlet run ...
  Unit style    : lj
  Current step  : 0
  Time step     : 10
Per MPI rank memory allocation (min/avg/max) = 5.788 | 10.76 | 12.11 Mbytes
Step CPU Atoms c_myNtypes[1] c_myNtypes[2] c_myMass[1] c_myMass[2] c_myCon[1] c_myCon[2] c_myCon[3] c_myCon[4] 
       0            0      100           50           50 4.4106689e-14 8.3176444e-15          0.1        0.009     3.42e-20       0.0299 
number of iterations: 328279 
     100    15.754137      131           50           81  4.46912e-14 8.3134524e-15          0.1 0.0090007049   0.03544975  0.029898826 
number of iterations: 4314 
     200     16.08601      138           50           88 4.5283458e-14 8.3119973e-15          0.1 0.0090007141  0.070175796   0.02989881 
number of iterations: 3005 
     300    16.358335      138           50           88 4.5883564e-14 8.3133197e-15          0.1 0.0090007234    0.1052933  0.029898795 
number of iterations: 2424 
     400    16.621909      138           50           88 4.6491623e-14 8.3174009e-15          0.1 0.0090007328   0.14081151  0.029898779 
number of iterations: 2082 
     500    16.876801      138           50           88 4.710774e-14 8.3242231e-15          0.1 0.0090007424   0.17673789  0.029898763 
number of iterations: 1850 
     600    17.102402      139           51           88 4.7732022e-14 8.3337711e-15          0.1 0.0090007474   0.21307943  0.029898754 
number of iterations: 1679 
     700    17.352854      140           52           88 4.8364577e-14 8.3460341e-15          0.1 0.0090007511   0.24984296  0.029898748 
number of iterations: 1549 
     800    17.540506      140           52           88 4.9005515e-14 8.3610009e-15          0.1 0.0090007609   0.28703522  0.029898731 
number of iterations: 1446 
     900    17.736961      140           52           88 4.9654947e-14 8.3786646e-15          0.1 0.0090007708   0.32466297  0.029898715 
number of iterations: 1410 
    1000    17.952304      140           52           88 5.0312985e-14 8.3990208e-15          0.1 0.0090007809   0.36273294  0.029898698 
number of iterations: 1517 
    1100    18.172111      142           54           88 5.0979744e-14 8.4220675e-15          0.1 0.0090007948   0.40125188  0.029898674 
number of iterations: 1415 
    1200    18.369929      143           54           89 5.1655338e-14 8.4478053e-15          0.1 0.0090008053   0.44022656  0.029898657 
number of iterations: 1516 
    1300    18.575985      144           55           89 5.2339886e-14 8.476238e-15          0.1   0.00900082   0.47966376  0.029898632 
number of iterations: 1421 
    1400    18.772119      144           55           89 5.3033506e-14 8.5073715e-15          0.1 0.0090008307    0.5195703  0.029898614 
number of iterations: 1448 
    1500    18.961929      145           56           89 5.3736317e-14 8.5412153e-15          0.1 0.0090008416   0.55995314  0.029898596 
number of iterations: 1610 
    1600     19.16984      147           58           89 5.4448442e-14 8.577778e-15          0.1 0.0090008545   0.60081906  0.029898574 
number of iterations: 1433 
    1700    19.370503      150           58           92 5.5170005e-14 8.6170733e-15          0.1 0.0090008657   0.64217496  0.029898555 
number of iterations: 1436 
    1800    19.558662      150           58           92 5.590113e-14 8.6591172e-15          0.1 0.0090008771   0.68402782  0.029898536 
number of iterations: 1439 
    1900    19.761112      151           58           93 5.6641944e-14 8.7039274e-15          0.1 0.0090008886   0.72638462  0.029898517 
number of iterations: 1583 
    2000    19.976699      152           59           93 5.7392575e-14 8.7515243e-15          0.1 0.0090009053   0.76925241  0.029898489 
number of iterations: 1445 
    2100    20.162521      153           59           94 5.8153154e-14 8.801929e-15          0.1 0.0090009171   0.81263828  0.029898469 
number of iterations: 1527 
    2200    20.356087      155           60           95 5.8923812e-14 8.8551691e-15          0.1 0.0090009261    0.8565495  0.029898454 
number of iterations: 1548 
    2300    20.591852      157           62           95 5.9704683e-14 8.9112677e-15          0.1  0.009000941   0.90099309  0.029898429 
number of iterations: 1447 
    2400    20.784425      157           62           95 6.0495902e-14 8.9702573e-15          0.1 0.0090009534   0.94597628  0.029898408 
number of iterations: 1604 
    2500    20.982696      158           62           96 6.1297607e-14 9.0321697e-15          0.1 0.0090009702   0.99150637   0.02989838 
number of iterations: 1513 
    2600    21.169731      160           64           96 6.2109936e-14 9.0970434e-15          0.1 0.0090009826    1.0375907  0.029898359 
number of iterations: 1516 
    2700    21.352151      162           65           97 6.293303e-14 9.1649111e-15          0.1  0.009000998    1.0842366  0.029898333 
number of iterations: 1460 
    2800    21.549669      162           65           97 6.3767032e-14 9.2358121e-15          0.1 0.0090010111    1.1314515  0.029898311 
number of iterations: 1463 
    2900    21.735725      164           65           99 6.4612087e-14 9.3097871e-15          0.1 0.0090010244    1.1792429  0.029898289 
number of iterations: 1465 
    3000    21.948148      165           65          100 6.546834e-14 9.3868813e-15          0.1 0.0090010379    1.2276184  0.029898266 
number of iterations: 1466 
    3100    22.125968      169           66          103 6.633594e-14 9.4671401e-15          0.1 0.0090010515    1.2765856  0.029898243 
number of iterations: 1471 
    3200    22.301836      169           66          103 6.7215038e-14 9.5506132e-15          0.1 0.0090010653    1.3261521   0.02989822 
number of iterations: 1554 
    3300    22.492972      171           67          104 6.8105786e-14 9.6373496e-15          0.1 0.0090010793    1.3763256  0.029898197 
number of iterations: 1596 
    3400    22.676729      173           68          105 6.9008339e-14 9.7274071e-15          0.1 0.0090010972    1.4271138  0.029898167 
number of iterations: 1522 
    3500     22.84958      175           69          106 6.9922852e-14  9.82084e-15          0.1 0.0090011154    1.4785247  0.029898136 
number of iterations: 1486 
    3600    23.040926      176           69          107 7.0849485e-14 9.9177089e-15          0.1 0.0090011301     1.530566  0.029898111 
number of iterations: 1488 
    3700    23.214679      180           72          108 7.1788397e-14 1.0018063e-14          0.1 0.0090011431    1.5832455   0.02989809 
number of iterations: 1491 
    3800    23.388228      181           72          109 7.2739752e-14 1.0121979e-14          0.1 0.0090011581    1.6365715  0.029898064 
number of iterations: 1644 
    3900    23.567437      183           73          110 7.3703715e-14 1.0229526e-14          0.1 0.0090011758    1.6905521  0.029898035 
number of iterations: 1497 
    4000    23.804735      184           73          111 7.4680452e-14 1.0340772e-14          0.1 0.0090011912    1.7451953  0.029898009 
number of iterations: 1500 
    4100    23.968607      185           73          112 7.5670133e-14 1.0455792e-14          0.1 0.0090012069    1.8005093  0.029897982 
number of iterations: 1468 
    4200    24.152301      189           75          114 7.667293e-14 1.0574664e-14          0.1 0.0090012197    1.8565025  0.029897961 
number of iterations: 1505 
    4300     24.34172      190           75          115 7.7689016e-14 1.0697467e-14          0.1 0.0090012357    1.9131829  0.029897934 
number of iterations: 1592 
    4400    24.531548      192           75          117 7.8718567e-14 1.0824294e-14          0.1 0.0090012438     1.970559   0.02989792 
number of iterations: 1510 
    4500      24.7131      193           75          118 7.9761762e-14 1.0955221e-14          0.1 0.0090012602    2.0286392  0.029897893 
number of iterations: 1591 
    4600    24.893643      198           78          120 8.0818782e-14 1.1090335e-14          0.1 0.0090012656    2.0874318  0.029897883 
number of iterations: 1516 
    4700    25.069845      199           78          121 8.188981e-14 1.1229732e-14          0.1 0.0090012822    2.1469456  0.029897855 
number of iterations: 1520 
    4800    25.263292      201           79          122 8.2975031e-14 1.1373505e-14          0.1 0.0090012991    2.2071891  0.029897827 
number of iterations: 1522 
    4900    25.438518      203           81          122 8.4074634e-14 1.1521754e-14          0.1 0.0090013119    2.2681712  0.029897805 
number of iterations: 1524 
    5000    25.702067      204           81          123 8.5188808e-14 1.167458e-14          0.1 0.0090013292    2.3299004  0.029897776 
number of iterations: 1527 
    5100    25.881437      208           82          126 8.6317748e-14 1.1832093e-14          0.1 0.0090013467    2.3923856  0.029897747 
number of iterations: 1738 
    5200    26.093464      211           85          126 8.7461649e-14 1.1994405e-14          0.1 0.0090013722    2.4556356  0.029897704 
number of iterations: 1557 
    5300    26.259965      215           86          129 8.862071e-14 1.2161628e-14          0.1 0.0090013948    2.5196595  0.029897666 
number of iterations: 1534 
    5400    26.461122      216           87          129 8.979513e-14 1.2333879e-14          0.1 0.0090014131    2.5844663  0.029897635 
number of iterations: 1540 
    5500    26.624151      220           87          133 9.0985114e-14 1.251128e-14          0.1 0.0090014317    2.6500649  0.029897604 
number of iterations: 1580 
    5600    26.803178      223           89          134 9.2190868e-14 1.2693955e-14          0.1 0.0090014505    2.7164646  0.029897572 
number of iterations: 1546 
    5700    26.989318      225           89          136  9.34126e-14 1.2882038e-14          0.1 0.0090014695    2.7836743   0.02989754 
number of iterations: 1596 
    5800    27.169188      230           92          138 9.4650524e-14 1.3075655e-14          0.1 0.0090014878    2.8517037  0.029897509 
number of iterations: 1564 
    5900    27.405979      232           93          139 9.5904852e-14 1.3274954e-14          0.1 0.0090015102    2.9205617  0.029897472 
number of iterations: 1521 
    6000    27.597074      236           94          142 9.7175803e-14 1.3480081e-14          0.1 0.0090015245    2.9902577  0.029897448 
number of iterations: 1579 
    6100    27.815774      240           96          144 9.8463597e-14 1.3691181e-14          0.1 0.0090015473    3.0608009  0.029897409 
number of iterations: 1532 
    6200    27.988934      243           97          146 9.9768457e-14 1.390841e-14          0.1 0.0090015632    3.1322009  0.029897382 
number of iterations: 1562 
    6300     28.17425      246           97          149 1.0109061e-13 1.4131927e-14          0.1 0.0090015837    3.2044672  0.029897348 
number of iterations: 1559 
    6400     28.35751      248           98          150 1.0243028e-13 1.4361899e-14          0.1 0.0090015993    3.2776089  0.029897321 
number of iterations: 1567 
    6500    28.537569      249           99          150 1.0378771e-13 1.4598488e-14          0.1 0.0090016203     3.351636  0.029897286 
number of iterations: 1693 
    6600    28.722012      255          102          153 1.0516313e-13 1.484188e-14          0.1 0.0090016483    3.4265579  0.029897239 
number of iterations: 1589 
    6700     28.88681      261          105          156 1.0655677e-13 1.5092254e-14          0.1 0.0090016699    3.5023846  0.029897202 
number of iterations: 1571 
    6800    29.065784      265          106          159 1.0796888e-13 1.5349788e-14          0.1 0.0090016918    3.5791257  0.029897166 
number of iterations: 1704 
    6900    29.252543      269          109          160 1.0939971e-13 1.5614686e-14          0.1 0.0090017173    3.6567909  0.029897122 
number of iterations: 1665 
    7000     29.43548      276          110          166 1.108495e-13 1.5887142e-14          0.1 0.0090017436    3.7353901  0.029897078 
number of iterations: 1584 
    7100    29.653279      282          112          170 1.123185e-13 1.6167354e-14          0.1 0.0090017664    3.8149334   0.02989704 
number of iterations: 1654 
    7200    29.847034      291          118          173 1.1380697e-13 1.6455544e-14          0.1 0.0090017908    3.8954303  0.029896999 
number of iterations: 1560 
    7300    30.032447      295          119          176 1.1531516e-13 1.6751939e-14          0.1 0.0090018054    3.9768908  0.029896974 
number of iterations: 1595 
    7400    30.207303      300          119          181 1.1684334e-13 1.7056749e-14          0.1 0.0090018291     4.059325  0.029896934 
number of iterations: 1591 
    7500    30.395731      305          120          185 1.1839177e-13 1.7370217e-14          0.1  0.009001853    4.1427432  0.029896893 
number of iterations: 1573 
    7600    30.614477      313          123          190 1.1996072e-13 1.7692588e-14          0.1 0.0090018708    4.2271553  0.029896863 
number of iterations: 1597 
    7700    30.798924      317          125          192 1.2155047e-13 1.8024105e-14          0.1 0.0090018854    4.3125712  0.029896838 
number of iterations: 1608 
    7800    31.036201      323          125          198 1.2316128e-13 1.836502e-14          0.1 0.0090019101     4.399001  0.029896797 
number of iterations: 1607 
    7900    31.202522      327          126          201 1.2479344e-13 1.8715605e-14          0.1 0.0090019351    4.4864548  0.029896754 
number of iterations: 1600 
    8000     31.39792      332          127          205 1.2644723e-13 1.9076135e-14          0.1 0.0090019603    4.5749428  0.029896711 
number of iterations: 1608 
    8100    31.584407      335          128          207 1.2812293e-13 1.9446885e-14          0.1  0.009001986    4.6644751  0.029896668 
number of iterations: 1588 
    8200    31.785836      342          131          211 1.2982084e-13 1.9828144e-14          0.1 0.0090019955    4.7550618  0.029896652 
number of iterations: 1593 
    8300    31.974725      346          132          214 1.3154125e-13 2.0220213e-14          0.1 0.0090020216    4.8467134  0.029896607 
number of iterations: 1731 
    8400     32.18244      354          135          219 1.3328447e-13 2.0623397e-14          0.1 0.0090020573    4.9394397  0.029896547 
number of iterations: 1619 
    8500    32.378597      359          136          223 1.3505078e-13 2.1038022e-14          0.1 0.0090020842    5.0332509  0.029896502 
number of iterations: 1622 
    8600    32.582254      363          136          227 1.368405e-13 2.1464416e-14          0.1 0.0090021114    5.1281571  0.029896456 
number of iterations: 1624 
    8700     32.76563      367          139          228 1.3865394e-13 2.1902927e-14          0.1 0.0090021378    5.2241683  0.029896411 
number of iterations: 1622 
    8800    32.945641      376          140          236 1.4049141e-13 2.2353898e-14          0.1 0.0090021618    5.3212947   0.02989637 
number of iterations: 1630 
    8900    33.142257      381          140          241 1.4235323e-13 2.2817695e-14          0.1   0.00900219    5.4195466  0.029896322 
number of iterations: 1633 
    9000     33.33778      385          140          245 1.4423972e-13 2.3294686e-14          0.1 0.0090022187    5.5189338  0.029896274 
number of iterations: 1636 
    9100    33.572574      393          141          252 1.4615122e-13 2.3785256e-14          0.1 0.0090022476    5.6194666  0.029896225 
number of iterations: 1638 
    9200    33.750681      399          142          257 1.4808804e-13 2.4289805e-14          0.1 0.0090022769    5.7211549  0.029896175 
number of iterations: 1720 
    9300    33.951874      406          143          263 1.5005053e-13 2.4808737e-14          0.1  0.009002313    5.8240085  0.029896114 
number of iterations: 1644 
    9400    34.143636      409          143          266 1.5203903e-13 2.5342479e-14          0.1 0.0090023431    5.9280374  0.029896063 
number of iterations: 1629 
    9500    34.358071      421          147          274 1.5405389e-13 2.589147e-14          0.1 0.0090023698    6.0332519  0.029896017 
number of iterations: 1738 
    9600    34.557554      424          148          276 1.5609544e-13 2.6456162e-14          0.1 0.0090024032    6.1396615  0.029895961 
number of iterations: 1688 
    9700    34.754739      431          150          281 1.5816405e-13 2.7037016e-14          0.1  0.009002436    6.2472759  0.029895905 
number of iterations: 1651 
    9800    34.936754      442          153          289 1.6026007e-13 2.7634515e-14          0.1  0.009002463    6.3561047  0.029895859 
number of iterations: 1657 
    9900    35.122672      456          159          297 1.6238387e-13 2.8249141e-14          0.1 0.0090024953    6.4661578  0.029895804 
number of iterations: 1661 
   10000     35.31108      463          161          302 1.6453581e-13 2.8881417e-14          0.1 0.0090025279    6.5774439  0.029895749 
number of iterations: 1667 
   10100    35.519953      470          163          307 1.6671627e-13 2.953187e-14          0.1 0.0090025645     6.689973  0.029895687 
number of iterations: 1745 
   10200     35.70782      481          165          316 1.6892563e-13 3.0201037e-14          0.1 0.0090026017    6.8037543  0.029895624 
number of iterations: 1707 
   10300    35.908424      493          168          325 1.7116426e-13 3.0889474e-14          0.1 0.0090026372    6.9187969  0.029895563 
number of iterations: 1670 
   10400    36.086312      496          168          328 1.7343257e-13 3.1597771e-14          0.1 0.0090026658    7.0351101  0.029895514 
number of iterations: 1684 
   10500      36.2804      509          174          335 1.7573093e-13 3.2326501e-14          0.1 0.0090027018    7.1527032  0.029895453 
number of iterations: 1752 
   10600    36.460945      520          174          346 1.7805975e-13 3.3076296e-14          0.1 0.0090027434    7.2715845  0.029895382 
number of iterations: 1769 
   10700    36.665414      536          176          360 1.8041943e-13 3.3847793e-14          0.1 0.0090027839    7.3917626  0.029895314 
number of iterations: 1705 
   10800    36.848208      546          178          368 1.8281038e-13 3.4641647e-14          0.1 0.0090028171    7.5132459  0.029895257 
number of iterations: 1733 
   10900    37.037525      553          180          373 1.8523302e-13 3.5458532e-14          0.1 0.0090028502    7.6360429    0.0298952 
number of iterations: 1720 
   11000    37.269971      562          181          381 1.8768777e-13 3.6299145e-14          0.1  0.009002887    7.7601612  0.029895137 
number of iterations: 1717 
   11100    37.475981      572          187          385 1.9017504e-13 3.7164205e-14          0.1 0.0090029237     7.885609  0.029895075 
number of iterations: 1669 
   11200    37.650594      591          189          402 1.9269528e-13 3.8054455e-14          0.1 0.0090029565     8.012394  0.029895018 
number of iterations: 1733 
   11300    37.852951      609          193          416 1.9524891e-13 3.8970653e-14          0.1 0.0090029945    8.1405237  0.029894953 
number of iterations: 1834 
   11400    38.042977      624          198          426 1.9783639e-13 3.9913595e-14          0.1 0.0090030404    8.2700053  0.029894875 
number of iterations: 1781 
   11500     38.23837      631          201          430 2.0045816e-13 4.0884112e-14          0.1 0.0090030845    8.4008455    0.0298948 
number of iterations: 1738 
   11600    38.435633      646          204          442 2.0311467e-13 4.1883025e-14          0.1 0.0090031211    8.5330506  0.029894737 
number of iterations: 1702 
   11700    38.636473      662          208          454 2.0580638e-13 4.2911211e-14          0.1 0.0090031599    8.6666273  0.029894671 
number of iterations: 1776 
   11800    38.845148      670          211          459 2.0853377e-13 4.3969559e-14          0.1 0.0090032053    8.8015821  0.029894593 
number of iterations: 1768 
   11900    39.030172      682          214          468 2.112973e-13 4.5059002e-14          0.1 0.0090032541    8.9379206   0.02989451 
number of iterations: 1717 
   12000    39.268868      698          215          483 2.1409745e-13 4.6180494e-14          0.1 0.0090032964    9.0756483  0.029894437 
number of iterations: 1769 
   12100    39.467625      717          218          499 2.1693471e-13 4.733503e-14          0.1 0.0090033435    9.2147701  0.029894357 
number of iterations: 1762 
   12200    39.685509      730          221          509 2.1980957e-13 4.8523621e-14          0.1  0.009003382     9.355291   0.02989429 
number of iterations: 1832 
   12300     39.87185      752          225          527 2.2272253e-13 4.9747312e-14          0.1 0.0090034322    9.4972148  0.029894204 
number of iterations: 1752 
   12400     40.07274      765          228          537 2.2567409e-13 5.1007175e-14          0.1 0.0090034776    9.6405458  0.029894127 
number of iterations: 1726 
   12500    40.266064      779          230          549 2.2866476e-13 5.2304334e-14          0.1  0.009003513    9.7852882  0.029894065 
number of iterations: 1744 
   12600    40.503187      793          231          562 2.3169507e-13 5.3639947e-14          0.1 0.0090035531    9.9314438  0.029893996 
number of iterations: 1739 
   12700    40.725439      805          231          574 2.3476554e-13 5.5015201e-14          0.1 0.0090035988    10.079016  0.029893917 
number of iterations: 1753 
   12800    40.923468      826          235          591 2.3787669e-13 5.6431329e-14          0.1 0.0090036496    10.228006   0.02989383 
number of iterations: 1759 
   12900    41.123691      837          237          600 2.4102908e-13 5.7889589e-14          0.1 0.0090036981    10.378416  0.029893746 
number of iterations: 1749 
   13000     41.34201      857          240          617 2.4422324e-13 5.9391295e-14          0.1 0.0090037455    10.530248  0.029893664 
number of iterations: 1749 
   13100     41.52008      880          242          638 2.4745973e-13 6.0937794e-14          0.1 0.0090037884      10.6835   0.02989359 
number of iterations: 1754 
   13200    41.708017      893          242          651 2.5073912e-13 6.2530475e-14          0.1 0.0090038371    10.838174  0.029893506 
number of iterations: 1765 
   13300    41.910165      922          247          675 2.5406196e-13 6.4170772e-14          0.1 0.0090038794    10.994269  0.029893432 
number of iterations: 1757 
   13400    42.112232      942          250          692 2.5742883e-13 6.5860146e-14          0.1 0.0090039293    11.151783  0.029893346 
number of iterations: 1789 
   13500    42.306948      967          256          711 2.6084033e-13 6.7600147e-14          0.1  0.009003994    11.310715  0.029893235 
number of iterations: 1777 
   13600     42.49626      992          260          732 2.6429703e-13 6.9392354e-14          0.1 0.0090040438    11.471061  0.029893149 
number of iterations: 1869 
   13700     42.70113     1013          265          748 2.6779954e-13 7.1238387e-14          0.1  0.009004097    11.632818  0.029893056 
number of iterations: 1830 
   13800    42.902973     1035          268          767 2.7134847e-13 7.3139951e-14          0.1 0.0090041399    11.795981  0.029892981 
number of iterations: 1793 
   13900    43.148931     1052          268          784 2.7494443e-13 7.509876e-14          0.1 0.0090041991    11.960546  0.029892879 
number of iterations: 1777 
   14000     43.34693     1076          272          804 2.7858804e-13 7.7116636e-14          0.1 0.0090042526    12.126507  0.029892786 
number of iterations: 1791 
   14100     43.54275     1105          277          828 2.8227994e-13 7.9195404e-14          0.1 0.0090043011    12.293857  0.029892701 
number of iterations: 1769 
   14200    43.720436     1137          279          858 2.8602077e-13 8.1336969e-14          0.1 0.0090043559    12.462587  0.029892606 
number of iterations: 1859 
   14300    43.918598     1171          287          884 2.8981117e-13 8.3543277e-14          0.1 0.0090044254     12.63269  0.029892486 
number of iterations: 1792 
   14400    44.125637     1195          290          905 2.936518e-13 8.5816397e-14          0.1 0.0090044907    12.804156  0.029892373 
number of iterations: 1837 
   14500    44.322802     1220          292          928 2.9754332e-13 8.8158429e-14          0.1 0.0090045476    12.976972  0.029892273 
number of iterations: 1819 
   14600    44.540329     1243          298          945 3.0148642e-13 9.0571506e-14          0.1 0.0090046183    13.151129  0.029892151 
number of iterations: 1818 
   14700    44.725472     1274          302          972 3.0548177e-13 9.3057854e-14          0.1 0.0090046796    13.326612  0.029892044 
number of iterations: 1740 
   14800    44.931121     1316          305         1011 3.0953007e-13 9.5619774e-14          0.1 0.0090047297    13.503409  0.029891955 
number of iterations: 1776 
   14900    45.163436     1341          307         1034 3.1363202e-13 9.8259667e-14          0.1 0.0090047873    13.681504  0.029891854 
number of iterations: 1790 
   15000    45.376259     1365          311         1054 3.1778832e-13 1.0097998e-13          0.1 0.0090048478    13.860879  0.029891748 
number of iterations: 1808 
   15100    45.567582     1398          313         1085 3.2199971e-13 1.0378324e-13          0.1 0.0090049094    14.041517   0.02989164 
number of iterations: 1765 
   15200    45.755051     1424          315         1109 3.2626691e-13 1.0667211e-13          0.1 0.0090049664      14.2234   0.02989154 
number of iterations: 1932 
   15300    45.969366     1459          319         1140 3.3059065e-13 1.0964926e-13          0.1 0.0090050481    14.406505  0.029891398 
number of iterations: 1829 
   15400    46.154912     1495          323         1172 3.349717e-13 1.1271747e-13          0.1 0.0090051189    14.590812  0.029891274 
number of iterations: 1831 
   15500    46.352071     1542          331         1211 3.394108e-13 1.1587969e-13          0.1 0.0090051902    14.776296  0.029891149 
number of iterations: 1847 
   15600    46.582997     1588          341         1247 3.4390873e-13 1.1913877e-13          0.1 0.0090052671    14.962931  0.029891014 
number of iterations: 1797 
   15700    46.794413     1619          346         1273 3.4846627e-13 1.224978e-13          0.1 0.0090053235    15.150691  0.029890914 
number of iterations: 1831 
   15800    47.075683     1660          351         1309 3.5308421e-13 1.2595997e-13          0.1 0.0090053833    15.339548  0.029890808 
number of iterations: 1828 
   15900    47.321909     1706          353         1353 3.5776334e-13 1.2952849e-13          0.1 0.0090054509    15.529471  0.029890688 
number of iterations: 1909 
   16000    47.557298     1740          356         1384 3.6250448e-13 1.3320675e-13          0.1 0.0090055301    15.720427  0.029890549 
number of iterations: 1847 
   16100    47.783436     1798          366         1432 3.6730845e-13 1.3699824e-13          0.1 0.0090056052    15.912382  0.029890416 
number of iterations: 1876 
   16200    47.981757     1840          372         1468 3.7217609e-13 1.409065e-13          0.1 0.0090056683    16.105301  0.029890304 
number of iterations: 1850 
   16300    48.195779     1899          377         1522 3.7710823e-13 1.4479936e-13          0.1 0.0090057253    16.299233  0.029890201 
number of iterations: 1888 
   16400    48.411383     1945          380         1565 3.8210573e-13 1.4894855e-13          0.1 0.0090057924    16.494052  0.029890081 
number of iterations: 1826 
   16500    48.633636     1997          385         1612 3.8716946e-13 1.5322587e-13          0.1 0.0090058589    16.689716  0.029889962 
number of iterations: 1842 
   16600    48.859263     2042          390         1652 3.9230029e-13 1.5763528e-13          0.1 0.0090059337    16.886179  0.029889829 
number of iterations: 1879 
   16700    49.057212     2093          397         1696 3.9749912e-13 1.6218102e-13          0.1 0.0090060043    17.083394  0.029889702 
number of iterations: 1880 
   16800    49.277174     2145          407         1738 4.0276685e-13 1.667541e-13          0.1 0.0090060865    17.281387  0.029889556 
number of iterations: 1912 
   16900    49.512129     2193          412         1781 4.0810438e-13 1.7158242e-13          0.1 0.0090061673    17.480031  0.029889412 
number of iterations: 1900 
   17000    49.716236     2250          415         1835 4.1351265e-13 1.7656036e-13          0.1 0.0090062547    17.679273  0.029889256 
number of iterations: 1862 
   17100     49.91667     2331          421         1910 4.1899259e-13 1.8169268e-13          0.1 0.0090063284    17.879054  0.029889123 
number of iterations: 1882 
   17200     50.12347     2398          426         1972 4.2454514e-13 1.8698423e-13          0.1 0.0090064065    18.079315  0.029888983 
number of iterations: 1877 
   17300    50.339302     2458          430         2028 4.3017129e-13 1.9244008e-13          0.1 0.0090064846    18.279991  0.029888843 
number of iterations: 1881 
   17400    50.623233     2502          435         2067 4.3587199e-13 1.9806542e-13          0.1 0.0090065765    18.481016  0.029888679 
number of iterations: 1834 
   17500    50.888445     2560          439         2121 4.4164823e-13 2.0386563e-13          0.1 0.0090066451    18.682321  0.029888553 
number of iterations: 1892 
   17600    51.109928     2617          446         2171 4.4750103e-13 2.0984626e-13          0.1 0.0090067332    18.883831  0.029888395 
number of iterations: 1894 
   17700    51.346073     2694          449         2245 4.5343138e-13 2.1601298e-13          0.1 0.0090068235    19.085473  0.029888232 
number of iterations: 1904 
   17800    51.631408     2773          455         2318 4.5944033e-13 2.2225127e-13          0.1 0.0090069097    19.287245  0.029888075 
number of iterations: 1932 
   17900     51.84942     2853          461         2392 4.655289e-13 2.2880456e-13          0.1 0.0090070146    19.488988  0.029887888 
number of iterations: 1911 
   18000    52.073471     2932          466         2466 4.7169816e-13 2.3556211e-13          0.1  0.009007092    19.690612  0.029887746 
number of iterations: 1901 
   18100    52.283236     3006          472         2534 4.7794918e-13 2.4253035e-13          0.1  0.009007176    19.892026  0.029887592 
number of iterations: 1890 
   18200    52.497113     3081          478         2603 4.8428304e-13 2.4971598e-13          0.1 0.0090072579    20.093137  0.029887441 
number of iterations: 1952 
   18300    52.738231     3172          485         2687 4.9070084e-13 2.5712589e-13          0.1 0.0090073576    20.293842   0.02988726 
number of iterations: 1906 
   18400      52.9929     3270          490         2780 4.9720368e-13 2.6476715e-13          0.1 0.0090074445    20.494041  0.029887099 
number of iterations: 1902 
   18500    53.216603     3373          497         2876 5.037927e-13 2.7257692e-13          0.1 0.0090075273    20.693671  0.029886946 
number of iterations: 1887 
   18600    53.460923     3452          501         2951 5.1046904e-13 2.8070102e-13          0.1 0.0090076179    20.892575  0.029886779 
number of iterations: 1951 
   18700    53.693079     3525          507         3018 5.1723385e-13 2.8894791e-13          0.1 0.0090077221    21.090726  0.029886589 
number of iterations: 1928 
   18800    53.929601     3610          513         3097 5.2408831e-13 2.975839e-13          0.1 0.0090078242    21.287913  0.029886401 
number of iterations: 1930 
   18900    54.163064     3701          518         3183 5.3103361e-13 3.0648996e-13          0.1  0.009007916     21.48401  0.029886231 
number of iterations: 1925 
   19000    54.386722     3812          525         3287 5.3807095e-13 3.1567456e-13          0.1 0.0090080184    21.678885  0.029886043 
number of iterations: 1855 
   19100    54.608849     3920          530         3390 5.4520154e-13 3.2502975e-13          0.1 0.0090081031    21.872481  0.029885883 
number of iterations: 1962 
   19200    54.836719     4040          538         3502 5.5242663e-13 3.3459791e-13          0.1  0.009008198    22.064714  0.029885706 
number of iterations: 1930 
   19300    55.065269     4145          540         3605 5.5974747e-13 3.4466249e-13          0.1  0.009008288    22.255302  0.029885536 
number of iterations: 1937 
   19400    55.314249     4256          549         3707 5.6716533e-13 3.5494408e-13          0.1 0.0090083882    22.444159  0.029885348 
number of iterations: 1896 
   19500    55.534331     4382          558         3824 5.7468149e-13 3.655612e-13          0.1 0.0090084662    22.631117  0.029885197 
number of iterations: 1960 
   19600    55.777847     4505          569         3936 5.8229725e-13 3.7649204e-13          0.1 0.0090085908    22.816024  0.029884968 
number of iterations: 1932 
   19700    56.038844     4653          577         4076 5.9001394e-13 3.8760537e-13          0.1 0.0090086954     22.99882  0.029884772 
number of iterations: 1931 
   19800      56.3046     4778          580         4198 5.9783289e-13 3.9898587e-13          0.1 0.0090087923     23.17939  0.029884587 
number of iterations: 1988 
   19900    56.563754     4919          595         4324 6.0575546e-13 4.1106784e-13          0.1 0.0090088951    23.357313  0.029884392 
number of iterations: 1968 
   20000    56.858823     5039          608         4431 6.1378301e-13 4.2322762e-13          0.1  0.009009015    23.532605  0.029884168 
number of iterations: 1917 
   20100    57.093264     5156          616         4540 6.2191695e-13 4.3596025e-13          0.1 0.0090091239     23.70494  0.029883962 
number of iterations: 1933 
   20200    57.415551     5303          624         4679 6.3015869e-13 4.4920023e-13          0.1 0.0090092348    23.874036   0.02988375 
number of iterations: 1951 
   20300    57.656316     5449          630         4819 6.3850964e-13 4.6285484e-13          0.1 0.0090093339    24.039677  0.029883557 
number of iterations: 1908 
   20400    57.904647     5600          640         4960 6.4697126e-13 4.7680274e-13          0.1 0.0090094215    24.201735  0.029883384 
number of iterations: 1958 
   20500    58.165279     5738          648         5090 6.5554501e-13 4.9118645e-13          0.1 0.0090095297    24.359983  0.029883174 
number of iterations: 1931 
   20600    58.428075     5908          661         5247 6.6423238e-13 5.060604e-13          0.1 0.0090096338    24.514155  0.029882971 
number of iterations: 1943 
   20700    58.684294     6078          670         5408 6.7303488e-13 5.2129954e-13          0.1 0.0090097265    24.664079  0.029882785 
number of iterations: 1972 
   20800    58.970493     6272          677         5595 6.8195403e-13 5.3721028e-13          0.1 0.0090098347    24.809363  0.029882573 
number of iterations: 1946 
   20900    59.224615     6462          682         5780 6.9099138e-13 5.5361816e-13          0.1 0.0090099393    24.949746  0.029882365 
number of iterations: 1979 
   21000    59.511504     6646          693         5953 7.0014849e-13 5.7030202e-13          0.1  0.009010051    25.085118  0.029882145 
number of iterations: 1976 
   21100    59.796853     6867          706         6161 7.0942695e-13 5.8764126e-13          0.1 0.0090101557    25.215105  0.029881934 
number of iterations: 1965 
   21200    60.040274     7048          711         6337 7.1882837e-13 6.0528158e-13          0.1 0.0090102769    25.339586  0.029881697 
number of iterations: 2035 
   21300    60.290789     7245          722         6523 7.2835438e-13 6.2344167e-13          0.1 0.0090103895     25.45829  0.029881473 
number of iterations: 1996 
   21400    60.610039     7468          731         6737 7.3800662e-13 6.4232287e-13          0.1 0.0090105134    25.570801  0.029881229 
number of iterations: 2015 
   21500    60.909418     7653          743         6910 7.4778678e-13 6.6190797e-13          0.1 0.0090106313     25.67672  0.029880993 
number of iterations: 2047 
   21600    61.191447     7867          755         7112 7.5769655e-13 6.8201765e-13          0.1 0.0090107558    25.775778  0.029880745 
number of iterations: 2037 
   21700    61.474525     8085          761         7324 7.6773764e-13 7.0294138e-13          0.1 0.0090108916    25.867502  0.029880476 
number of iterations: 1986 
   21800    61.733414     8320          774         7546 7.779118e-13 7.2429307e-13          0.1 0.0090110082    25.951695  0.029880238 
number of iterations: 1980 
   21900     61.99843     8569          789         7780 7.8822078e-13 7.4604717e-13          0.1 0.0090111392    26.028183  0.029879977 
number of iterations: 2005 
   22000    62.275089     8819          795         8024 7.9866638e-13 7.6875981e-13          0.1 0.0090112743    26.096399  0.029879706 
number of iterations: 1983 
   22100     62.55427     9072          806         8266 8.0925041e-13 7.9218262e-13          0.1 0.0090114053    26.155956   0.02987944 
number of iterations: 2000 
   22200    62.862935     9340          815         8525 8.1997469e-13 8.162438e-13          0.1 0.0090115118     26.20652  0.029879215 
number of iterations: 1948 
   22300    63.169498     9630          829         8801 8.308411e-13 8.4095596e-13          0.1 0.0090116003    26.247755  0.029879017 
number of iterations: 2045 
   22400    63.459824     9865          840         9025 8.4185151e-13 8.6634295e-13          0.1 0.0090117237    26.279311  0.029878761 
number of iterations: 1982 
   22500    63.741716    10138          852         9286 8.5300783e-13 8.923953e-13          0.1 0.0090118294    26.300847  0.029878533 
number of iterations: 2032 
   22600    64.060675    10465          868         9597 8.6431199e-13 9.1946233e-13          0.1 0.0090119499    26.311779  0.029878277 
number of iterations: 2017 
   22700    64.358024    10774          874         9900 8.7576595e-13 9.4749153e-13          0.1 0.0090120738     26.31157  0.029878014 
number of iterations: 1990 
   22800    64.734399    11082          884        10198 8.8737171e-13 9.7601882e-13          0.1 0.0090121821    26.300011  0.029877777 
number of iterations: 1998 
   22900    65.038693    11396          889        10507 8.9913126e-13 1.0056845e-12          0.1  0.009012303    26.276449  0.029877517 
number of iterations: 2030 
   23000    65.352985    11723          902        10821 9.1104665e-13 1.0361369e-12          0.1 0.0090124353    26.240485  0.029877236 
number of iterations: 2041 
   23100    65.652277    12050          910        11140 9.2311995e-13 1.0677521e-12          0.1 0.0090125611    26.191461  0.029876964 
number of iterations: 2037 
   23200    66.033231    12383          917        11466 9.3535324e-13 1.1001439e-12          0.1 0.0090126923    26.129003  0.029876682 
number of iterations: 2032 
   23300    66.362197    12741          933        11808 9.4774864e-13 1.1331764e-12          0.1 0.0090128281    26.052836  0.029876391 
number of iterations: 2016 
   23400    66.705096    13102          946        12156 9.6030831e-13 1.1675741e-12          0.1 0.0090129538    25.962186  0.029876112 
number of iterations: 2038 
   23500      67.0317    13511          954        12557 9.7303443e-13 1.2027556e-12          0.1  0.009013084    25.856698  0.029875826 
number of iterations: 2070 
   23600    67.417399    13898          965        12933 9.8592918e-13 1.2387074e-12          0.1  0.009013226    25.736038  0.029875518 
number of iterations: 2058 
   23700    67.778045    14278          977        13301 9.9899482e-13 1.2752122e-12          0.1 0.0090133902    25.600031  0.029875173 
number of iterations: 2035 
   23800    68.121008    14705          992        13713 1.0122336e-12 1.3134851e-12          0.1 0.0090135288    25.447663  0.029874868 
number of iterations: 2063 
   23900    68.459935    15138         1003        14135 1.0256478e-12 1.3525919e-12          0.1  0.009013678    25.278588  0.029874543 
number of iterations: 2109 
   24000    68.810682    15568         1013        14555 1.0392398e-12 1.3933267e-12          0.1 0.0090138587    25.091918  0.029874159 
number of iterations: 1990 
   24100    69.223417    16033         1020        15013 1.0530119e-12 1.4352329e-12          0.1 0.0090139338    24.887106  0.029873953 
number of iterations: 2077 
   24200    69.581343    16457         1033        15424 1.0669666e-12 1.4774523e-12          0.1 0.0090140899    24.664228  0.029873613 
number of iterations: 2039 
   24300    69.935562    16926         1047        15879 1.0811061e-12 1.5211948e-12          0.1 0.0090142263    24.422523  0.029873301 
number of iterations: 2031 
   24400    70.292454    17447         1074        16373 1.095433e-12 1.5666469e-12          0.1  0.009014372    24.161126  0.029872973 
number of iterations: 2109 
   24500    70.727744    17935         1090        16845 1.1099498e-12 1.6130525e-12          0.1  0.009014547    23.879729  0.029872593 
number of iterations: 2028 
   24600    71.105091    18440         1103        17337 1.124659e-12 1.6604796e-12          0.1 0.0090146794    23.578003  0.029872281 
number of iterations: 2073 
   24700    71.503429    18944         1120        17824 1.1395631e-12 1.7093339e-12          0.1 0.0090148446    23.255364  0.029871914 
number of iterations: 2080 
   24800    71.891992    19480         1135        18345 1.1546647e-12 1.7593795e-12          0.1 0.0090149894    22.911427  0.029871579 
number of iterations: 2058 
   24900    72.317722    20032         1146        18886 1.1699664e-12 1.8110931e-12          0.1 0.0090151581    22.545515  0.029871204 
number of iterations: 2084 
   25000    72.700674    20608         1162        19446 1.1854709e-12 1.8639834e-12          0.1 0.0090153283    22.157338  0.029870822 
number of iterations: 2075 
   25100    73.104049    21238         1177        20061 1.2011809e-12 1.9181257e-12          0.1 0.0090154673    21.746601  0.029870491 
number of iterations: 2082 
   25200    73.538872    21826         1189        20637 1.217099e-12 1.9732931e-12          0.1 0.0090156205     21.31322  0.029870136 
number of iterations: 2128 
   25300    73.965982    22455         1210        21245 1.2332281e-12 2.0308032e-12          0.1 0.0090157767     20.85626  0.029869775 
number of iterations: 2020 
   25400    74.378202    23055         1232        21823 1.249571e-12 2.0886573e-12          0.1 0.0090158662    20.376243  0.029869525 
number of iterations: 2123 
   25500    74.824779    23676         1248        22428 1.2661304e-12 2.1480425e-12          0.1 0.0090160471     19.87294   0.02986912 
number of iterations: 2064 
   25600    75.261754    24313         1262        23051 1.2829093e-12 2.2096374e-12          0.1 0.0090162041    19.345754  0.029868752 
number of iterations: 2098 
   25700    75.711993    24992         1280        23712 1.2999105e-12 2.2717706e-12          0.1 0.0090163891    18.795334  0.029868339 
number of iterations: 2067 
   25800    76.235715    25682         1300        24382 1.317137e-12 2.3356064e-12          0.1 0.0090165295    18.221648  0.029868002 
number of iterations: 2087 
   25900    76.695923    26411         1313        25098 1.3345918e-12 2.4007952e-12          0.1 0.0090166718    17.625038   0.02986766 
number of iterations: 2096 
   26000    77.153679    27134         1325        25809 1.3514824e-12 2.4675339e-12          0.1 0.0090168544     17.00525  0.029867252 
number of iterations: 2049 
   26100    77.666333    27889         1353        26536 1.3693924e-12 2.5350574e-12          0.1 0.0090169843    16.363952  0.029866936 
number of iterations: 2107 
   26200    78.167098    28629         1369        27260 1.3854662e-12 2.6033666e-12          0.1 0.0090172271    15.700789  0.029866435 
number of iterations: 2126 
   26300    78.679156    29413         1397        28016 1.4038265e-12 2.6734339e-12          0.1  0.009017431    15.018192  0.029865997 
number of iterations: 2140 
   26400    79.179898    30175         1406        28769 1.4224302e-12 2.7453982e-12          0.1 0.0090176724    14.317172  0.029865502 
number of iterations: 2080 
   26500    79.690452    30986         1429        29557 1.4412803e-12 2.8176554e-12          0.1 0.0090178628    13.600114  0.029865095 
number of iterations: 2115 
   26600    80.227694    31787         1449        30338 1.4603802e-12 2.8903969e-12          0.1 0.0090180946    12.869601  0.029864629 
number of iterations: 2109 
   26700    80.796535    32519         1464        31055 1.4797333e-12 2.963588e-12          0.1 0.0090182952    12.128622  0.029864217 
number of iterations: 2123 
   26800    81.375303    33340         1482        31858 1.4993428e-12 3.038191e-12          0.1 0.0090185489    11.379987   0.02986373 
number of iterations: 2100 
   26900    81.930412    34128         1506        32622 1.5192122e-12 3.1128278e-12          0.1 0.0090187607    10.627898  0.029863317 
number of iterations: 2147 
   27000    82.491609    34934         1526        33408 1.5393449e-12 3.1876598e-12          0.1 0.0090190717    9.8769801  0.029862757 
number of iterations: 2097 
   27100    83.086438    35769         1546        34223 1.5597444e-12 3.263268e-12          0.1 0.0090193127    9.1321059  0.029862324 
number of iterations: 2159 
   27200    83.669024    36575         1564        35011 1.5804142e-12 3.3381643e-12          0.1 0.0090196055    8.3996571  0.029861821 
number of iterations: 2134 
   27300    84.296179    37419         1585        35834 1.601358e-12 3.4122599e-12          0.1 0.0090199237     7.686618  0.029861297 
number of iterations: 2242 
   27400    84.901454    38282         1610        36672 1.6225793e-12 3.4847933e-12          0.1 0.0090202781    7.0008478  0.029860735 
number of iterations: 2408 
   27500    85.577468    39114         1633        37481 1.6440818e-12 3.5571372e-12          0.1 0.0090206483    6.3496897  0.029860166 
number of iterations: 2576 
   27600    86.266936    39907         1646        38261 1.6658692e-12 3.6269119e-12          0.1  0.009021059    5.7417837  0.029859552 
number of iterations: 2752 
   27700    86.989182    40676         1668        39008 1.6879454e-12 3.6957149e-12          0.1 0.0090215061    5.1843475  0.029858896 
number of iterations: 2929 
   27800     88.04051    41460         1696        39764 1.7092296e-12 3.7629884e-12          0.1 0.0090219668    4.6829995  0.029858234 
number of iterations: 3106 
   27900    88.778449    42218         1718        40500 1.7318804e-12 3.8286996e-12          0.1 0.0090224117    4.2434095   0.02985761 
number of iterations: 3276 
   28000    89.529316    42924         1739        41185 1.7548313e-12 3.8909013e-12          0.1 0.0090228999    3.8687789  0.029856925 
number of iterations: 3432 
   28100    90.326628    43597         1763        41834 1.7780864e-12 3.9517564e-12          0.1 0.0090233686    3.5582783   0.02985627 
number of iterations: 3577 
   28200     91.15942    44261         1778        42483 1.8016497e-12 4.0114355e-12          0.1 0.0090238699    3.3081972  0.029855547 
number of iterations: 3699 
   28300    91.963725    44894         1800        43094 1.8255252e-12 4.0692093e-12          0.1 0.0090243242    3.1127814  0.029854888 
number of iterations: 3806 
   28400     92.80523    45536         1826        43710 1.8497172e-12 4.1266674e-12          0.1 0.0090247984    2.9640499  0.029854171 
number of iterations: 3890 
   28500    93.659651    46164         1843        44321 1.8742297e-12 4.1838642e-12          0.1 0.0090251826    2.8535861   0.02985358 
number of iterations: 3969 
   28600      94.5077    46801         1866        44935 1.899067e-12 4.2411486e-12          0.1 0.0090256078    2.7732693    0.0298529 
number of iterations: 4033 
   28700    95.425947    47461         1893        45568 1.9242335e-12 4.2978957e-12          0.1 0.0090259833    2.7162169  0.029852281 
number of iterations: 4087 
   28800    96.336646    48088         1913        46175 1.9483144e-12 4.3555111e-12          0.1 0.0090263184    2.6751265  0.029851714 
number of iterations: 4132 
   28900    97.275315    48780         1943        46837 1.9741335e-12 4.4131055e-12          0.1 0.0090266952    2.6469181  0.029851066 
number of iterations: 4175 
   29000    98.173023    49396         1968        47428 2.0002948e-12 4.4710303e-12          0.1 0.0090270743    2.6279459    0.0298504 
number of iterations: 4235 
   29100    99.086015    50078         1994        48084 2.0268027e-12 4.5304611e-12          0.1  0.009027467    2.6151301  0.029849704 
number of iterations: 4293 
   29200    100.01893    50719         2027        48692 2.052193e-12 4.5894415e-12          0.1 0.0090278161    2.6058355  0.029849075 
number of iterations: 4358 
   29300    100.99056    51357         2045        49312 2.0760163e-12 4.6487757e-12          0.1 0.0090281555    2.5976141  0.029848459 
number of iterations: 4410 
   29400    101.95225    51998         2065        49933 2.1035277e-12 4.7086874e-12          0.1 0.0090285275     2.592824  0.029847787 
number of iterations: 4455 
   29500    102.89398    52733         2092        50641 2.1314037e-12 4.7702932e-12          0.1 0.0090289294    2.5899915  0.029847061 
number of iterations: 4514 
   29600    103.86968    53384         2116        51268 2.1596491e-12 4.8329721e-12          0.1 0.0090292538    2.5883609   0.02984646 
number of iterations: 4563 
   29700    104.85752    54093         2135        51958 2.1882688e-12 4.8945526e-12          0.1 0.0090296012    2.5881757  0.029845824 
number of iterations: 4616 
   29800    105.84942    54751         2165        52586 2.2172678e-12 4.9571323e-12          0.1 0.0090299993    2.5888512  0.029845098 
number of iterations: 4672 
   29900    106.88364    55408         2190        53218 2.2453371e-12 5.0213416e-12          0.1 0.0090303678    2.5887823  0.029844419 
number of iterations: 4704 
   30000    107.93661    56132         2217        53915 2.2739764e-12 5.0867221e-12          0.1 0.0090307535    2.5882784  0.029843712 
number of iterations: 4757 
   30100    108.96455    56873         2244        54629 2.3041112e-12 5.1519632e-12          0.1 0.0090311433    2.5887214  0.029842998 
number of iterations: 4820 
   30200    109.99697    57593         2270        55323 2.3346453e-12 5.2198658e-12          0.1 0.0090315565    2.5891291  0.029842242 
number of iterations: 4886 
   30300    111.07753    58382         2306        56076 2.3641188e-12 5.2874637e-12          0.1 0.0090319083    2.5887987  0.029841589 
number of iterations: 4933 
   30400    112.14596    59146         2341        56805 2.3954481e-12 5.3558337e-12          0.1 0.0090323222    2.5891889  0.029840833 
number of iterations: 4989 
   30500    113.24568    59906         2364        57542   2.4262e-12 5.4253551e-12          0.1 0.0090327176    2.5891625  0.029840105 
number of iterations: 5029 
   30600    114.33559    60720         2399        58321 2.4569442e-12 5.4961016e-12          0.1 0.0090331273    2.5884584  0.029839351 
number of iterations: 5075 
   30700    115.43474    61511         2433        59078 2.4884923e-12 5.5661205e-12          0.1 0.0090335731    2.5882397   0.02983854 
number of iterations: 5117 
   30800    116.57521    62335         2472        59863 2.5205988e-12 5.638943e-12          0.1 0.0090339569    2.5877642  0.029837828 
number of iterations: 5179 
   30900    117.75448    63154         2510        60644 2.5528885e-12 5.7112994e-12          0.1 0.0090344504    2.5874503  0.029836934 
number of iterations: 5231 
   31000    118.89073    63935         2542        61393 2.5857502e-12 5.7844707e-12          0.1 0.0090349122    2.5873927  0.029836092 
number of iterations: 5273 
   31100    120.06156    64770         2575        62195 2.6174153e-12 5.8589525e-12          0.1 0.0090353711    2.5861016  0.029835255 
number of iterations: 5323 
   31200    121.28019    65632         2613        63019 2.6513272e-12 5.9345657e-12          0.1 0.0090357701    2.5854868  0.029834518 
number of iterations: 5369 
   31300    122.48267    66490         2654        63836 2.6853935e-12 6.0107755e-12          0.1  0.009036218    2.5851655  0.029833695 
number of iterations: 5423 
   31400    123.68727    67395         2693        64702 2.7201105e-12 6.0881606e-12          0.1 0.0090366809    2.5851045  0.029832848 
number of iterations: 5474 
   31500    124.89939    68213         2725        65488 2.7548215e-12 6.163948e-12          0.1  0.009037122    2.5857336  0.029832039 
number of iterations: 5527 
   31600    126.15919    69079         2761        66318 2.7904431e-12 6.2417366e-12          0.1 0.0090376121     2.586736  0.029831144 
number of iterations: 5562 
   31700    127.44118    69970         2800        67170 2.8257871e-12 6.3215048e-12          0.1 0.0090380515    2.5870198  0.029830332 
number of iterations: 5617 
   31800    128.71233    70839         2833        68006 2.8617681e-12 6.4017925e-12          0.1 0.0090384596    2.5872443  0.029829572 
number of iterations: 5670 
   31900    130.01457    71764         2874        68890 2.8979062e-12 6.4837422e-12          0.1 0.0090389043    2.5869819  0.029828748 
number of iterations: 5721 
   32000    131.71111    72695         2911        69784 2.9336066e-12 6.5674673e-12          0.1 0.0090393085    2.5855149  0.029827993 
number of iterations: 5759 
   32100      133.008    73601         2949        70652 2.9705528e-12 6.6493948e-12          0.1 0.0090398222    2.5850489  0.029827058 
number of iterations: 5792 
   32200    134.32249    74486         2983        71503 3.007189e-12 6.7337601e-12          0.1 0.0090403781    2.5840007  0.029826048 
number of iterations: 5844 
   32300    135.66317    75400         3020        72380 3.0416366e-12 6.8191301e-12          0.1 0.0090408728    2.5806483  0.029825141 
number of iterations: 5866 
   32400    137.01897    76324         3062        73262 3.0777509e-12 6.9044135e-12          0.1 0.0090414481    2.5775306  0.029824102 
number of iterations: 5891 
   32500    138.40377    77256         3098        74158 3.1164098e-12 6.9910726e-12          0.1 0.0090419682    2.5760689  0.029823155 
number of iterations: 5937 
   32600    139.79671    78221         3128        75093 3.1569321e-12 7.0799527e-12          0.1  0.009042528    2.5760843  0.029822137 
number of iterations: 5983 
   32700    141.22898    79170         3166        76004 3.1970769e-12 7.1670251e-12          0.1 0.0090430322    2.5771149  0.029821212 
number of iterations: 6018 
   32800    142.64174    80142         3206        76936 3.2375034e-12 7.2570867e-12          0.1  0.009043539    2.5777763  0.029820276 
number of iterations: 6068 
   32900    144.07518    81140         3245        77895 3.2771391e-12 7.3486419e-12          0.1 0.0090440296    2.5771369  0.029819368 
number of iterations: 6107 
   33000    145.53747    82181         3286        78895 3.3187203e-12 7.4389553e-12          0.1 0.0090445873    2.5778684  0.029818349 
number of iterations: 6159 
   33100    147.01289    83223         3326        79897 3.3583339e-12 7.5299875e-12          0.1 0.0090450882     2.577412  0.029817424 
number of iterations: 6203 
   33200    148.54646    84296         3361        80935 3.3991589e-12 7.6253128e-12          0.1 0.0090454825    2.5759179  0.029816674 
number of iterations: 6250 
   33300    150.04417    85275         3397        81878 3.4381072e-12 7.7202651e-12          0.1 0.0090460457    2.5726734  0.029815645 
number of iterations: 6285 
   33400     151.5713    86319         3431        82888 3.4781573e-12 7.8175505e-12          0.1 0.0090465357    2.5688064  0.029814741 
number of iterations: 6335 
   33500    153.17259    87318         3471        83847 3.5208573e-12 7.9146876e-12          0.1 0.0090470616    2.5668541  0.029813774 
number of iterations: 6377 
   33600    154.75479    88425         3507        84918 3.5622643e-12 8.0130417e-12          0.1 0.0090475674    2.5642714  0.029812837 
number of iterations: 6431 
   33700     156.3337    89562         3549        86013 3.6081796e-12 8.1129304e-12          0.1 0.0090481353    2.5644469  0.029811795 
number of iterations: 6470 
   33800    157.95042    90705         3595        87110 3.6519177e-12 8.2138975e-12          0.1 0.0090486954    2.5636094  0.029810763 
number of iterations: 6500 
   33900     159.5496    91821         3616        88205 3.6903528e-12 8.3142539e-12          0.1  0.009049188    2.5585016  0.029809845 
number of iterations: 6547 
   34000    161.22327    92942         3655        89287 3.733013e-12 8.4171965e-12          0.1 0.0090496791    2.5543134  0.029808934 
number of iterations: 6591 
   34100    162.87808    94104         3708        90396 3.776471e-12 8.5203556e-12          0.1 0.0090502166    2.5510668  0.029807946 
number of iterations: 6656 
   34200    164.51173    95195         3739        91456 3.8214681e-12 8.624679e-12          0.1 0.0090508119    2.5489993  0.029806857 
number of iterations: 6708 
   34300    166.17866    96294         3782        92512 3.8667078e-12 8.7308751e-12          0.1   0.00905136    2.5469043  0.029805845 
number of iterations: 6721 
   34400     167.9168    97493         3834        93659 3.9096211e-12 8.8366405e-12          0.1 0.0090519209    2.5431674  0.029804811 
number of iterations: 6782 
   34500    169.63544    98668         3883        94785 3.9541875e-12 8.9416842e-12          0.1 0.0090524647    2.5405133   0.02980381 
number of iterations: 6806 
   34600    171.42766    99884         3923        95961 3.9966803e-12 9.0492683e-12          0.1 0.0090529503    2.5357509  0.029802902 
number of iterations: 6819 
   34700    173.17747   101009         3964        97045   4.0397e-12 9.1563841e-12          0.1 0.0090534679    2.5310013  0.029801942 
number of iterations: 6851 
   34800    174.97941   102267         4019        98248 4.0876577e-12 9.267115e-12          0.1 0.0090540866    2.5289376  0.029800815 
number of iterations: 6902 
   34900    176.82036   103470         4058        99412 4.1311785e-12 9.3759971e-12          0.1 0.0090546171    2.5248636  0.029799826 
number of iterations: 6913 
   35000    178.65638   104640         4090       100550 4.1708687e-12 9.4865355e-12          0.1 0.0090551187    2.5167603  0.029798891 
Loop time of 178.656 on 32 procs for 35000 steps with 104640 atoms

Performance: 169263435.871 tau/day, 195.907 timesteps/s
93.1% CPU use with 32 MPI tasks x no OpenMP threads

MPI task timing breakdown:
Section |  min time  |  avg time  |  max time  |%varavg| %total
---------------------------------------------------------------
Pair    | 0.18293    | 5.3397     | 13.199     | 176.9 |  2.99
Neigh   | 0.079482   | 1.6357     | 3.7393     |  86.2 |  0.92
Comm    | 0.89134    | 1.6811     | 2.1981     |  26.3 |  0.94
Output  | 51.065     | 51.066     | 51.074     |   0.0 | 28.58
Modify  | 106.1      | 106.6      | 107.32     |   3.2 | 59.67
Other   |            | 12.33      |            |       |  6.90

Nlocal:    3270 ave 5821 max 445 min
Histogram: 1 3 5 4 3 2 0 8 3 3
Nghost:    1810.53 ave 3324 max 566 min
Histogram: 4 1 5 7 3 2 2 4 3 1
Neighs:    28407.1 ave 57595 max 2870 min
Histogram: 1 5 7 3 2 0 5 4 3 2

Total # of neighbors = 909027
Ave neighs/atom = 8.68718
Neighbor list builds = 808
Dangerous builds = 0
Total wall time: 0:02:58
