 NUFEB Simulation

     50 atoms 
     2 atom types 
     4 nutrients 

  0.0e-4   1.00e-04  xlo xhi 
  0.0e-4   1.00e-04  ylo yhi 
  0.0e-4   5.00e-05  zlo zhi 

 Atoms 

     1 1 1.46e-06  370 3.88e-05 4.18e-05 2.17e-05 1.46e-06 
     2 1 1.48e-06  370 5.39e-05 2.17e-05 4.57e-05 1.48e-06 
     3 1 1.56e-06  370 7.74e-05 5.88e-05 3.98e-05 1.56e-06 
     4 1 1.56e-06  370 1.77e-05 6.86e-05 1.05e-05 1.56e-06 
     5 1 1.58e-06  370 1.63e-06 9.42e-05 2.14e-05 1.58e-06 
     6 1 1.44e-06  370 3.80e-05 3.85e-05 2.01e-05 1.44e-06 
     7 1 1.52e-06  370 3.00e-05 9.08e-06 1.53e-05 1.52e-06 
     8 1 1.73e-06  370 4.94e-06 5.65e-05 4.64e-05 1.73e-06 
     9 1 1.56e-06  370 8.77e-05 1.18e-05 1.89e-06 1.56e-06 
     10 1 1.92e-06  370 7.29e-05 5.35e-05 2.79e-05 1.92e-06 
     11 1 1.69e-06  370 1.72e-05 4.77e-06 3.98e-05 1.69e-06 
     12 1 1.57e-06  370 3.86e-05 9.10e-05 1.83e-05 1.57e-06 
     13 1 1.55e-06  370 3.30e-05 5.17e-05 4.80e-05 1.55e-06 
     14 1 1.45e-06  370 3.34e-05 8.71e-06 1.50e-05 1.45e-06 
     15 1 1.83e-06  370 7.70e-05 4.47e-05 4.80e-05 1.83e-06 
     16 1 1.46e-06  370 7.24e-06 7.44e-05 2.18e-06 1.46e-06 
     17 1 1.51e-06  370 7.09e-05 6.59e-05 4.17e-05 1.51e-06 
     18 1 1.87e-06  370 8.53e-05 5.77e-05 3.29e-05 1.87e-06 
     19 1 1.84e-06  370 2.65e-05 4.85e-05 5.61e-06 1.84e-06 
     20 1 1.71e-06  370 2.70e-05 3.11e-05 3.29e-05 1.71e-06 
     21 1 1.52e-06  370 8.13e-05 7.33e-05 3.72e-05 1.52e-06 
     22 1 1.64e-06  370 1.37e-05 2.81e-05 4.28e-05 1.64e-06 
     23 1 1.50e-06  370 3.51e-05 7.24e-06 4.18e-06 1.50e-06 
     24 1 1.82e-06  370 8.42e-05 5.11e-05 2.74e-05 1.82e-06 
     25 1 1.64e-06  370 5.78e-05 7.05e-06 1.98e-05 1.64e-06 
     26 1 1.51e-06  370 9.56e-05 4.56e-05 9.57e-06 1.51e-06 
     27 1 1.85e-06  370 8.95e-05 2.67e-05 9.64e-06 1.85e-06 
     28 1 1.81e-06  370 5.85e-05 1.77e-05 3.11e-05 1.81e-06 
     29 1 1.45e-06  370 2.88e-05 8.71e-05 2.94e-05 1.45e-06 
     30 1 1.74e-06  370 9.77e-05 1.93e-05 4.07e-05 1.74e-06 
     31 1 1.59e-06  370 5.76e-05 7.71e-05 2.16e-06 1.59e-06 
     32 1 1.54e-06  370 9.73e-05 9.25e-06 2.52e-05 1.54e-06 
     33 1 1.86e-06  370 9.46e-05 3.22e-06 1.39e-05 1.86e-06 
     34 1 1.88e-06  370 6.06e-05 4.13e-05 1.07e-05 1.88e-06 
     35 1 1.91e-06  370 5.56e-05 8.00e-06 3.67e-05 1.91e-06 
     36 1 1.52e-06  370 1.87e-05 9.07e-05 2.31e-05 1.52e-06 
     37 1 1.80e-06  370 6.31e-05 1.18e-05 3.11e-05 1.80e-06 
     38 1 1.46e-06  370 8.23e-05 5.63e-05 3.77e-05 1.46e-06 
     39 1 1.60e-06  370 2.78e-05 6.83e-05 6.04e-06 1.60e-06 
     40 1 1.84e-06  370 9.31e-05 1.61e-05 1.99e-05 1.84e-06 
     41 1 1.56e-06  370 1.77e-06 8.76e-05 1.71e-05 1.56e-06 
     42 1 1.92e-06  370 8.14e-05 5.60e-06 1.02e-05 1.92e-06 
     43 1 1.69e-06  370 2.40e-05 8.03e-05 4.17e-05 1.69e-06 
     44 1 1.92e-06  370 5.55e-05 1.71e-05 2.37e-05 1.92e-06 
     45 1 1.44e-06  370 5.33e-05 5.62e-06 2.41e-05 1.44e-06 
     46 1 1.44e-06  370 1.99e-05 3.36e-05 9.39e-06 1.44e-06 
     47 1 1.72e-06  370 5.44e-05 6.80e-05 1.37e-05 1.72e-06 
     48 1 1.57e-06  370 2.91e-05 6.25e-05 1.66e-05 1.57e-06 
     49 1 1.38e-06  370 1.37e-05 9.03e-05 6.34e-06 1.38e-06 
     50 1 1.75e-06  370 3.85e-05 1.91e-05 2.74e-05 1.75e-06 

 Nutrients 

     1 sub g nn nn nn 1.00e-01 1.00e-01 
     2 o2 l nn nn nd 9.00e-03 9.00e-03 
     3 suc l nn nn nn 3.42e-20 3.42e-20 
     4 co2 l nn nn nd 2.99e-02 2.99e-02 

 Type Name 

     1 cyano  
     2 ecw  

 Diffusion Coeffs 

     sub 0 
     o2 2.3e-09 
     suc 5.2e-10 
     co2 1.9e-09 

 Growth Rate 

     cyano 2.047e-05 
     ecw 6.71e-05 

 Ks 

     cyano 0.00035 0.0002 0.01 0.000138 
     ecw 0 0.001 3.6 0.05 

 Yield 

     cyano 0.55 
     ecw 0.43 

 Maintenance 

     cyano 0 
     ecw 9.5e-07 

 Decay 

     cyano 0 
     ecw 0 



