ITEM: TIMESTEP
0
ITEM: NUMBER OF ATOMS
50
ITEM: BOX BOUNDS ff ff ff
0.0000000000000000e+00 1.0000000000000000e-04
0.0000000000000000e+00 1.0000000000000000e-04
0.0000000000000000e+00 5.0000000000000002e-05
ITEM: ATOMS id type diameter x y z 
47 1 1.48e-06 4.71e-05 2.07e-05 2.05e-06 
23 1 1.83e-06 4.63e-05 1.87e-05 5.75e-06 
26 1 1.49e-06 1.87e-05 1.6e-05 6.98e-06 
35 1 1.65e-06 1.5e-05 4.88e-05 9.57e-06 
49 1 1.88e-06 4.99e-05 1.31e-05 1.03e-05 
3 1 1.46e-06 4e-05 4.67e-05 1.07e-05 
50 1 1.69e-06 5e-06 2.35e-05 1.49e-05 
1 1 1.37e-06 3.27e-05 2.65e-05 1.6e-05 
31 1 1.82e-06 3.54e-05 1.18e-05 1.99e-05 
4 1 1.51e-06 2.5e-05 7.39e-06 2.11e-05 
25 1 1.87e-06 3.57e-05 3.87e-05 2.37e-05 
33 1 1.56e-06 2.92e-05 8.95e-06 2.79e-05 
48 1 1.69e-06 1.63e-05 2.68e-05 3.7e-05 
5 1 1.84e-06 1.83e-05 4.33e-05 3.88e-05 
20 1 1.5e-06 4.14e-05 1.22e-05 4e-05 
40 1 1.73e-06 4.11e-05 1.7e-05 4.03e-05 
16 1 1.66e-06 3.61e-05 2.61e-06 4.07e-05 
36 1 1.73e-06 9.77e-06 5.45e-05 8.48e-06 
12 1 1.37e-06 1.26e-05 5.2e-05 1.7e-05 
17 1 1.63e-06 5.86e-06 6.27e-05 1.93e-05 
14 1 1.54e-06 4.81e-05 6.89e-05 1.92e-05 
41 1 1.51e-06 2.21e-05 8.16e-05 1.96e-05 
22 1 1.78e-06 2.34e-05 7.05e-05 2.12e-05 
24 1 1.79e-06 1.1e-05 6.57e-05 2.65e-05 
42 1 1.73e-06 4.25e-05 7.3e-05 3.65e-05 
46 1 1.92e-06 6.17e-06 6.02e-05 4.03e-05 
6 1 1.58e-06 2.56e-05 7.88e-05 4.22e-05 
15 1 1.79e-06 9.11e-05 8.52e-06 9.54e-06 
29 1 1.73e-06 6.71e-05 2.8e-05 1.1e-05 
45 1 1.76e-06 6.21e-05 1.98e-05 1.16e-05 
19 1 1.64e-06 9.48e-05 4.3e-05 1.18e-05 
38 1 1.43e-06 9.28e-05 1.93e-05 1.88e-05 
32 1 1.72e-06 6.08e-05 4.73e-05 2.79e-05 
27 1 1.84e-06 9.13e-05 1.14e-05 3.18e-05 
21 1 1.37e-06 7.69e-05 4.71e-05 4.08e-05 
43 1 1.55e-06 9.45e-05 2.27e-05 4.35e-05 
39 1 1.92e-06 7.18e-05 9.86e-06 4.43e-05 
2 1 1.54e-06 8.44e-05 3.02e-05 4.48e-05 
11 1 1.85e-06 8.17e-05 4.17e-06 4.61e-05 
9 1 1.61e-06 9.25e-05 4.12e-05 4.67e-05 
18 1 1.5e-06 8.66e-05 6.5e-05 6.79e-06 
8 1 1.46e-06 9.39e-05 6.1e-05 1.41e-05 
44 1 1.38e-06 8.87e-05 9.64e-05 1.84e-05 
34 1 1.62e-06 9.38e-05 8.41e-05 2.14e-05 
10 1 1.46e-06 5.51e-05 9.55e-05 2.73e-05 
37 1 1.84e-06 5.91e-05 5.92e-05 3.04e-05 
30 1 1.67e-06 7.62e-05 5e-05 3.19e-05 
7 1 1.45e-06 5.67e-05 7.88e-05 3.46e-05 
13 1 1.46e-06 7.66e-05 8.58e-05 4.11e-05 
28 1 1.76e-06 5.76e-05 7.3e-05 4.63e-05 
ITEM: TIMESTEP
100
ITEM: NUMBER OF ATOMS
50
ITEM: BOX BOUNDS ff ff ff
0.0000000000000000e+00 1.0000000000000000e-04
0.0000000000000000e+00 1.0000000000000000e-04
0.0000000000000000e+00 5.0000000000000002e-05
ITEM: ATOMS id type diameter x y z 
47 1 1.48817e-06 4.71e-05 2.07e-05 2.05e-06 
23 1 1.8401e-06 4.63e-05 1.87e-05 5.75e-06 
26 1 1.49822e-06 1.87e-05 1.6e-05 6.98e-06 
35 1 1.65911e-06 1.5e-05 4.88e-05 9.57e-06 
49 1 1.89038e-06 4.99e-05 1.31e-05 1.03e-05 
3 1 1.46806e-06 4e-05 4.67e-05 1.07e-05 
50 1 1.69933e-06 5e-06 2.35e-05 1.49e-05 
1 1 1.37756e-06 3.27e-05 2.65e-05 1.6e-05 
31 1 1.83005e-06 3.54e-05 1.18e-05 1.99e-05 
4 1 1.51833e-06 2.5e-05 7.39e-06 2.11e-05 
25 1 1.88032e-06 3.57e-05 3.87e-05 2.37e-05 
33 1 1.56861e-06 2.92e-05 8.95e-06 2.79e-05 
48 1 1.69933e-06 1.63e-05 2.68e-05 3.7e-05 
5 1 1.85016e-06 1.83e-05 4.33e-05 3.88e-05 
20 1 1.50828e-06 4.14e-05 1.22e-05 4e-05 
40 1 1.73955e-06 4.11e-05 1.7e-05 4.03e-05 
16 1 1.66916e-06 3.61e-05 2.61e-06 4.07e-05 
36 1 1.73955e-06 9.77e-06 5.45e-05 8.48e-06 
12 1 1.37756e-06 1.26e-05 5.2e-05 1.7e-05 
17 1 1.639e-06 5.86e-06 6.27e-05 1.93e-05 
14 1 1.5485e-06 4.81e-05 6.89e-05 1.92e-05 
41 1 1.51833e-06 2.21e-05 8.16e-05 1.96e-05 
22 1 1.78982e-06 2.34e-05 7.05e-05 2.12e-05 
24 1 1.79988e-06 1.1e-05 6.57e-05 2.65e-05 
42 1 1.73955e-06 4.25e-05 7.3e-05 3.65e-05 
46 1 1.9306e-06 6.17e-06 6.02e-05 4.03e-05 
6 1 1.58872e-06 2.56e-05 7.88e-05 4.22e-05 
15 1 1.79988e-06 9.11e-05 8.52e-06 9.54e-06 
29 1 1.73955e-06 6.71e-05 2.8e-05 1.1e-05 
45 1 1.76971e-06 6.21e-05 1.98e-05 1.16e-05 
19 1 1.64905e-06 9.48e-05 4.3e-05 1.18e-05 
38 1 1.43789e-06 9.28e-05 1.93e-05 1.88e-05 
32 1 1.72949e-06 6.08e-05 4.73e-05 2.79e-05 
27 1 1.85016e-06 9.13e-05 1.14e-05 3.18e-05 
21 1 1.37756e-06 7.69e-05 4.71e-05 4.08e-05 
43 1 1.55856e-06 9.45e-05 2.27e-05 4.35e-05 
39 1 1.9306e-06 7.18e-05 9.86e-06 4.43e-05 
2 1 1.5485e-06 8.44e-05 3.02e-05 4.48e-05 
11 1 1.86021e-06 8.17e-05 4.17e-06 4.61e-05 
9 1 1.61889e-06 9.25e-05 4.12e-05 4.67e-05 
18 1 1.50828e-06 8.66e-05 6.5e-05 6.79e-06 
8 1 1.46806e-06 9.39e-05 6.1e-05 1.41e-05 
44 1 1.38762e-06 8.87e-05 9.64e-05 1.84e-05 
34 1 1.62894e-06 9.38e-05 8.41e-05 2.14e-05 
10 1 1.46806e-06 5.51e-05 9.55e-05 2.73e-05 
37 1 1.85016e-06 5.91e-05 5.92e-05 3.04e-05 
30 1 1.67922e-06 7.62e-05 5e-05 3.19e-05 
7 1 1.458e-06 5.67e-05 7.88e-05 3.46e-05 
13 1 1.46806e-06 7.66e-05 8.58e-05 4.11e-05 
28 1 1.76971e-06 5.76e-05 7.3e-05 4.63e-05 
ITEM: TIMESTEP
200
ITEM: NUMBER OF ATOMS
50
ITEM: BOX BOUNDS ff ff ff
0.0000000000000000e+00 1.0000000000000000e-04
0.0000000000000000e+00 1.0000000000000000e-04
0.0000000000000000e+00 5.0000000000000002e-05
ITEM: ATOMS id type diameter x y z 
47 1 1.49638e-06 4.71e-05 2.07e-05 2.05e-06 
23 1 1.85026e-06 4.63e-05 1.87e-05 5.75e-06 
26 1 1.50649e-06 1.87e-05 1.6e-05 6.98e-06 
35 1 1.66826e-06 1.5e-05 4.88e-05 9.57e-06 
49 1 1.90081e-06 4.99e-05 1.31e-05 1.03e-05 
3 1 1.47616e-06 4e-05 4.67e-05 1.07e-05 
50 1 1.70871e-06 5e-06 2.35e-05 1.49e-05 
1 1 1.38517e-06 3.27e-05 2.65e-05 1.6e-05 
31 1 1.84015e-06 3.54e-05 1.18e-05 1.99e-05 
4 1 1.52671e-06 2.5e-05 7.39e-06 2.11e-05 
25 1 1.8907e-06 3.57e-05 3.87e-05 2.37e-05 
33 1 1.57727e-06 2.92e-05 8.95e-06 2.79e-05 
48 1 1.70871e-06 1.63e-05 2.68e-05 3.7e-05 
5 1 1.86037e-06 1.83e-05 4.33e-05 3.88e-05 
20 1 1.5166e-06 4.14e-05 1.22e-05 4e-05 
40 1 1.74915e-06 4.11e-05 1.7e-05 4.03e-05 
16 1 1.67838e-06 3.61e-05 2.61e-06 4.07e-05 
36 1 1.74915e-06 9.77e-06 5.45e-05 8.48e-06 
12 1 1.38517e-06 1.26e-05 5.2e-05 1.7e-05 
17 1 1.64804e-06 5.86e-06 6.27e-05 1.93e-05 
14 1 1.55705e-06 4.81e-05 6.89e-05 1.92e-05 
41 1 1.52671e-06 2.21e-05 8.16e-05 1.96e-05 
22 1 1.7997e-06 2.34e-05 7.05e-05 2.12e-05 
24 1 1.80981e-06 1.1e-05 6.57e-05 2.65e-05 
42 1 1.74915e-06 4.25e-05 7.3e-05 3.65e-05 
46 1 1.94125e-06 6.17e-06 6.02e-05 4.03e-05 
6 1 1.59749e-06 2.56e-05 7.88e-05 4.22e-05 
15 1 1.80981e-06 9.11e-05 8.52e-06 9.54e-06 
29 1 1.74915e-06 6.71e-05 2.8e-05 1.1e-05 
45 1 1.77948e-06 6.21e-05 1.98e-05 1.16e-05 
19 1 1.65815e-06 9.48e-05 4.3e-05 1.18e-05 
38 1 1.44583e-06 9.28e-05 1.93e-05 1.88e-05 
32 1 1.73904e-06 6.08e-05 4.73e-05 2.79e-05 
27 1 1.86037e-06 9.13e-05 1.14e-05 3.18e-05 
21 1 1.38517e-06 7.69e-05 4.71e-05 4.08e-05 
43 1 1.56716e-06 9.45e-05 2.27e-05 4.35e-05 
39 1 1.94125e-06 7.18e-05 9.86e-06 4.43e-05 
2 1 1.55705e-06 8.44e-05 3.02e-05 4.48e-05 
11 1 1.87048e-06 8.17e-05 4.17e-06 4.61e-05 
9 1 1.62782e-06 9.25e-05 4.12e-05 4.67e-05 
18 1 1.5166e-06 8.66e-05 6.5e-05 6.79e-06 
8 1 1.47616e-06 9.39e-05 6.1e-05 1.41e-05 
44 1 1.39528e-06 8.87e-05 9.64e-05 1.84e-05 
34 1 1.63793e-06 9.38e-05 8.41e-05 2.14e-05 
10 1 1.47616e-06 5.51e-05 9.55e-05 2.73e-05 
37 1 1.86037e-06 5.91e-05 5.92e-05 3.04e-05 
30 1 1.68849e-06 7.62e-05 5e-05 3.19e-05 
7 1 1.46605e-06 5.67e-05 7.88e-05 3.46e-05 
13 1 1.47616e-06 7.66e-05 8.58e-05 4.11e-05 
28 1 1.77948e-06 5.76e-05 7.3e-05 4.63e-05 
ITEM: TIMESTEP
300
ITEM: NUMBER OF ATOMS
50
ITEM: BOX BOUNDS ff ff ff
0.0000000000000000e+00 1.0000000000000000e-04
0.0000000000000000e+00 1.0000000000000000e-04
0.0000000000000000e+00 5.0000000000000002e-05
ITEM: ATOMS id type diameter x y z 
47 1 1.50464e-06 4.71e-05 2.07e-05 2.05e-06 
23 1 1.86047e-06 4.63e-05 1.87e-05 5.75e-06 
26 1 1.51481e-06 1.87e-05 1.6e-05 6.98e-06 
35 1 1.67747e-06 1.5e-05 4.88e-05 9.57e-06 
49 1 1.9113e-06 4.99e-05 1.31e-05 1.03e-05 
3 1 1.48431e-06 4e-05 4.67e-05 1.07e-05 
50 1 1.71814e-06 5e-06 2.35e-05 1.49e-05 
1 1 1.39281e-06 3.27e-05 2.65e-05 1.6e-05 
31 1 1.8503e-06 3.54e-05 1.18e-05 1.99e-05 
4 1 1.53514e-06 2.5e-05 7.39e-06 2.11e-05 
25 1 1.90114e-06 3.57e-05 3.87e-05 2.37e-05 
33 1 1.58597e-06 2.92e-05 8.95e-06 2.79e-05 
48 1 1.71814e-06 1.63e-05 2.68e-05 3.7e-05 
5 1 1.87064e-06 1.83e-05 4.33e-05 3.88e-05 
20 1 1.52497e-06 4.14e-05 1.22e-05 4e-05 
40 1 1.7588e-06 4.11e-05 1.7e-05 4.03e-05 
16 1 1.68764e-06 3.61e-05 2.61e-06 4.07e-05 
36 1 1.7588e-06 9.77e-06 5.45e-05 8.48e-06 
12 1 1.39281e-06 1.26e-05 5.2e-05 1.7e-05 
17 1 1.65714e-06 5.86e-06 6.27e-05 1.93e-05 
14 1 1.56564e-06 4.81e-05 6.89e-05 1.92e-05 
41 1 1.53514e-06 2.21e-05 8.16e-05 1.96e-05 
22 1 1.80964e-06 2.34e-05 7.05e-05 2.12e-05 
24 1 1.8198e-06 1.1e-05 6.57e-05 2.65e-05 
42 1 1.7588e-06 4.25e-05 7.3e-05 3.65e-05 
46 1 1.95197e-06 6.17e-06 6.02e-05 4.03e-05 
6 1 1.60631e-06 2.56e-05 7.88e-05 4.22e-05 
15 1 1.8198e-06 9.11e-05 8.52e-06 9.54e-06 
29 1 1.7588e-06 6.71e-05 2.8e-05 1.1e-05 
45 1 1.7893e-06 6.21e-05 1.98e-05 1.16e-05 
19 1 1.66731e-06 9.48e-05 4.3e-05 1.18e-05 
38 1 1.45381e-06 9.28e-05 1.93e-05 1.88e-05 
32 1 1.74864e-06 6.08e-05 4.73e-05 2.79e-05 
27 1 1.87064e-06 9.13e-05 1.14e-05 3.18e-05 
21 1 1.39281e-06 7.69e-05 4.71e-05 4.08e-05 
43 1 1.57581e-06 9.45e-05 2.27e-05 4.35e-05 
39 1 1.95197e-06 7.18e-05 9.86e-06 4.43e-05 
2 1 1.56564e-06 8.44e-05 3.02e-05 4.48e-05 
11 1 1.8808e-06 8.17e-05 4.17e-06 4.61e-05 
9 1 1.63681e-06 9.25e-05 4.12e-05 4.67e-05 
18 1 1.52497e-06 8.66e-05 6.5e-05 6.79e-06 
8 1 1.48431e-06 9.39e-05 6.1e-05 1.41e-05 
44 1 1.40298e-06 8.87e-05 9.64e-05 1.84e-05 
34 1 1.64697e-06 9.38e-05 8.41e-05 2.14e-05 
10 1 1.48431e-06 5.51e-05 9.55e-05 2.73e-05 
37 1 1.87064e-06 5.91e-05 5.92e-05 3.04e-05 
30 1 1.69781e-06 7.62e-05 5e-05 3.19e-05 
7 1 1.47414e-06 5.67e-05 7.88e-05 3.46e-05 
13 1 1.48431e-06 7.66e-05 8.58e-05 4.11e-05 
28 1 1.7893e-06 5.76e-05 7.3e-05 4.63e-05 
ITEM: TIMESTEP
400
ITEM: NUMBER OF ATOMS
50
ITEM: BOX BOUNDS ff ff ff
0.0000000000000000e+00 1.0000000000000000e-04
0.0000000000000000e+00 1.0000000000000000e-04
0.0000000000000000e+00 5.0000000000000002e-05
ITEM: ATOMS id type diameter x y z 
47 1 1.51295e-06 4.71e-05 2.07e-05 2.05e-06 
23 1 1.87074e-06 4.63e-05 1.87e-05 5.75e-06 
26 1 1.52317e-06 1.87e-05 1.6e-05 6.98e-06 
35 1 1.68673e-06 1.5e-05 4.88e-05 9.57e-06 
49 1 1.92185e-06 4.99e-05 1.31e-05 1.03e-05 
3 1 1.4925e-06 4e-05 4.67e-05 1.07e-05 
50 1 1.72762e-06 5e-06 2.35e-05 1.49e-05 
1 1 1.4005e-06 3.27e-05 2.65e-05 1.6e-05 
31 1 1.86052e-06 3.54e-05 1.18e-05 1.99e-05 
4 1 1.54361e-06 2.5e-05 7.39e-06 2.11e-05 
25 1 1.91163e-06 3.57e-05 3.87e-05 2.37e-05 
33 1 1.59473e-06 2.92e-05 8.95e-06 2.79e-05 
48 1 1.72762e-06 1.63e-05 2.68e-05 3.7e-05 
5 1 1.88096e-06 1.83e-05 4.33e-05 3.88e-05 
20 1 1.53339e-06 4.14e-05 1.22e-05 4e-05 
40 1 1.76851e-06 4.11e-05 1.7e-05 4.03e-05 
16 1 1.69695e-06 3.61e-05 2.61e-06 4.07e-05 
36 1 1.76851e-06 9.77e-06 5.45e-05 8.48e-06 
12 1 1.4005e-06 1.26e-05 5.2e-05 1.7e-05 
17 1 1.66629e-06 5.86e-06 6.27e-05 1.93e-05 
14 1 1.57428e-06 4.81e-05 6.89e-05 1.92e-05 
41 1 1.54361e-06 2.21e-05 8.16e-05 1.96e-05 
22 1 1.81963e-06 2.34e-05 7.05e-05 2.12e-05 
24 1 1.82985e-06 1.1e-05 6.57e-05 2.65e-05 
42 1 1.76851e-06 4.25e-05 7.3e-05 3.65e-05 
46 1 1.96274e-06 6.17e-06 6.02e-05 4.03e-05 
6 1 1.61517e-06 2.56e-05 7.88e-05 4.22e-05 
15 1 1.82985e-06 9.11e-05 8.52e-06 9.54e-06 
29 1 1.76851e-06 6.71e-05 2.8e-05 1.1e-05 
45 1 1.79918e-06 6.21e-05 1.98e-05 1.16e-05 
19 1 1.67651e-06 9.48e-05 4.3e-05 1.18e-05 
38 1 1.46183e-06 9.28e-05 1.93e-05 1.88e-05 
32 1 1.75829e-06 6.08e-05 4.73e-05 2.79e-05 
27 1 1.88096e-06 9.13e-05 1.14e-05 3.18e-05 
21 1 1.4005e-06 7.69e-05 4.71e-05 4.08e-05 
43 1 1.58451e-06 9.45e-05 2.27e-05 4.35e-05 
39 1 1.96274e-06 7.18e-05 9.86e-06 4.43e-05 
2 1 1.57428e-06 8.44e-05 3.02e-05 4.48e-05 
11 1 1.89118e-06 8.17e-05 4.17e-06 4.61e-05 
9 1 1.64584e-06 9.25e-05 4.12e-05 4.67e-05 
18 1 1.53339e-06 8.66e-05 6.5e-05 6.79e-06 
8 1 1.4925e-06 9.39e-05 6.1e-05 1.41e-05 
44 1 1.41072e-06 8.87e-05 9.64e-05 1.84e-05 
34 1 1.65606e-06 9.38e-05 8.41e-05 2.14e-05 
10 1 1.4925e-06 5.51e-05 9.55e-05 2.73e-05 
37 1 1.88096e-06 5.91e-05 5.92e-05 3.04e-05 
30 1 1.70718e-06 7.62e-05 5e-05 3.19e-05 
7 1 1.48228e-06 5.67e-05 7.88e-05 3.46e-05 
13 1 1.4925e-06 7.66e-05 8.58e-05 4.11e-05 
28 1 1.79918e-06 5.76e-05 7.3e-05 4.63e-05 
ITEM: TIMESTEP
500
ITEM: NUMBER OF ATOMS
52
ITEM: BOX BOUNDS ff ff ff
0.0000000000000000e+00 1.0000000000000000e-04
0.0000000000000000e+00 1.0000000000000000e-04
0.0000000000000000e+00 5.0000000000000002e-05
ITEM: ATOMS id type diameter x y z 
47 1 1.5213e-06 4.71e-05 2.07e-05 2.05e-06 
23 1 1.88106e-06 4.63e-05 1.87e-05 5.75e-06 
26 1 1.53158e-06 1.87e-05 1.6e-05 6.98e-06 
35 1 1.69604e-06 1.5e-05 4.88e-05 9.57e-06 
49 1 1.93246e-06 4.99e-05 1.31e-05 1.03e-05 
3 1 1.50074e-06 4e-05 4.67e-05 1.07e-05 
50 1 1.73716e-06 5e-06 2.35e-05 1.49e-05 
1 1 1.40823e-06 3.27e-05 2.65e-05 1.6e-05 
31 1 1.87078e-06 3.54e-05 1.18e-05 1.99e-05 
4 1 1.55213e-06 2.5e-05 7.39e-06 2.11e-05 
25 1 1.92218e-06 3.57e-05 3.87e-05 2.37e-05 
33 1 1.60353e-06 2.92e-05 8.95e-06 2.79e-05 
48 1 1.73716e-06 1.63e-05 2.68e-05 3.7e-05 
5 1 1.89134e-06 1.83e-05 4.33e-05 3.88e-05 
20 1 1.54186e-06 4.14e-05 1.22e-05 4e-05 
40 1 1.77827e-06 4.11e-05 1.7e-05 4.03e-05 
16 1 1.70632e-06 3.61e-05 2.61e-06 4.07e-05 
36 1 1.77827e-06 9.77e-06 5.45e-05 8.48e-06 
12 1 1.40823e-06 1.26e-05 5.2e-05 1.7e-05 
17 1 1.67548e-06 5.86e-06 6.27e-05 1.93e-05 
14 1 1.58297e-06 4.81e-05 6.89e-05 1.92e-05 
41 1 1.55213e-06 2.21e-05 8.16e-05 1.96e-05 
22 1 1.82967e-06 2.34e-05 7.05e-05 2.12e-05 
24 1 1.83995e-06 1.1e-05 6.57e-05 2.65e-05 
42 1 1.77827e-06 4.25e-05 7.3e-05 3.65e-05 
46 1 1.49091e-06 6.74734e-06 6.05124e-05 3.99475e-05 
6 1 1.62409e-06 2.56e-05 7.88e-05 4.22e-05 
51 1 1.63529e-06 5.53675e-06 5.98574e-05 4.06866e-05 
15 1 1.83995e-06 9.11e-05 8.52e-06 9.54e-06 
29 1 1.77827e-06 6.71e-05 2.8e-05 1.1e-05 
45 1 1.80911e-06 6.21e-05 1.98e-05 1.16e-05 
19 1 1.68576e-06 9.48e-05 4.3e-05 1.18e-05 
38 1 1.4699e-06 9.28e-05 1.93e-05 1.88e-05 
32 1 1.76799e-06 6.08e-05 4.73e-05 2.79e-05 
27 1 1.89134e-06 9.13e-05 1.14e-05 3.18e-05 
21 1 1.40823e-06 7.69e-05 4.71e-05 4.08e-05 
43 1 1.59325e-06 9.45e-05 2.27e-05 4.35e-05 
39 1 1.49091e-06 7.23773e-05 1.01724e-05 4.39475e-05 
2 1 1.58297e-06 8.44e-05 3.02e-05 4.48e-05 
11 1 1.90162e-06 8.17e-05 4.17e-06 4.61e-05 
9 1 1.65493e-06 9.25e-05 4.12e-05 4.67e-05 
52 1 1.63529e-06 7.11667e-05 9.51737e-06 4.46866e-05 
18 1 1.54186e-06 8.66e-05 6.5e-05 6.79e-06 
8 1 1.50074e-06 9.39e-05 6.1e-05 1.41e-05 
44 1 1.41851e-06 8.87e-05 9.64e-05 1.84e-05 
34 1 1.6652e-06 9.38e-05 8.41e-05 2.14e-05 
10 1 1.50074e-06 5.51e-05 9.55e-05 2.73e-05 
37 1 1.89134e-06 5.91e-05 5.92e-05 3.04e-05 
30 1 1.7166e-06 7.62e-05 5e-05 3.19e-05 
7 1 1.49046e-06 5.67e-05 7.88e-05 3.46e-05 
13 1 1.50074e-06 7.66e-05 8.58e-05 4.11e-05 
28 1 1.80911e-06 5.76e-05 7.3e-05 4.63e-05 
ITEM: TIMESTEP
600
ITEM: NUMBER OF ATOMS
52
ITEM: BOX BOUNDS ff ff ff
0.0000000000000000e+00 1.0000000000000000e-04
0.0000000000000000e+00 1.0000000000000000e-04
0.0000000000000000e+00 5.0000000000000002e-05
ITEM: ATOMS id type diameter x y z 
47 1 1.52969e-06 4.71e-05 2.07e-05 2.05e-06 
23 1 1.89145e-06 4.63e-05 1.87e-05 5.75e-06 
26 1 1.54003e-06 1.87e-05 1.6e-05 6.98e-06 
35 1 1.7054e-06 1.5e-05 4.88e-05 9.57e-06 
49 1 1.94313e-06 4.99e-05 1.31e-05 1.03e-05 
3 1 1.50902e-06 4e-05 4.67e-05 1.07e-05 
50 1 1.74675e-06 5e-06 2.35e-05 1.49e-05 
1 1 1.416e-06 3.27e-05 2.65e-05 1.6e-05 
31 1 1.88111e-06 3.54e-05 1.18e-05 1.99e-05 
4 1 1.5607e-06 2.5e-05 7.39e-06 2.11e-05 
25 1 1.93279e-06 3.57e-05 3.87e-05 2.37e-05 
33 1 1.61238e-06 2.92e-05 8.95e-06 2.79e-05 
48 1 1.74675e-06 1.63e-05 2.68e-05 3.7e-05 
5 1 1.90178e-06 1.83e-05 4.33e-05 3.88e-05 
20 1 1.55037e-06 4.14e-05 1.22e-05 4e-05 
40 1 1.78809e-06 4.11e-05 1.7e-05 4.03e-05 
16 1 1.71574e-06 3.61e-05 2.61e-06 4.07e-05 
36 1 1.78809e-06 9.77e-06 5.45e-05 8.48e-06 
12 1 1.416e-06 1.26e-05 5.2e-05 1.7e-05 
17 1 1.68473e-06 5.86e-06 6.27e-05 1.93e-05 
14 1 1.59171e-06 4.81e-05 6.89e-05 1.92e-05 
41 1 1.5607e-06 2.21e-05 8.16e-05 1.96e-05 
22 1 1.83977e-06 2.34e-05 7.05e-05 2.12e-05 
24 1 1.8501e-06 1.1e-05 6.57e-05 2.65e-05 
42 1 1.78809e-06 4.25e-05 7.3e-05 3.65e-05 
46 1 1.49914e-06 6.74734e-06 6.05124e-05 3.99475e-05 
6 1 1.63305e-06 2.56e-05 7.88e-05 4.22e-05 
51 1 1.64431e-06 5.53675e-06 5.98574e-05 4.06866e-05 
15 1 1.8501e-06 9.11e-05 8.52e-06 9.54e-06 
29 1 1.78809e-06 6.71e-05 2.8e-05 1.1e-05 
45 1 1.8191e-06 6.21e-05 1.98e-05 1.16e-05 
19 1 1.69507e-06 9.48e-05 4.3e-05 1.18e-05 
38 1 1.47802e-06 9.28e-05 1.93e-05 1.88e-05 
32 1 1.77775e-06 6.08e-05 4.73e-05 2.79e-05 
27 1 1.90178e-06 9.13e-05 1.14e-05 3.18e-05 
21 1 1.416e-06 7.69e-05 4.71e-05 4.08e-05 
43 1 1.60204e-06 9.45e-05 2.27e-05 4.35e-05 
39 1 1.49914e-06 7.23773e-05 1.01724e-05 4.39475e-05 
2 1 1.59171e-06 8.44e-05 3.02e-05 4.48e-05 
11 1 1.91212e-06 8.17e-05 4.17e-06 4.61e-05 
9 1 1.66406e-06 9.25e-05 4.12e-05 4.67e-05 
52 1 1.64431e-06 7.11667e-05 9.51737e-06 4.46866e-05 
18 1 1.55037e-06 8.66e-05 6.5e-05 6.79e-06 
8 1 1.50902e-06 9.39e-05 6.1e-05 1.41e-05 
44 1 1.42634e-06 8.87e-05 9.64e-05 1.84e-05 
34 1 1.6744e-06 9.38e-05 8.41e-05 2.14e-05 
10 1 1.50902e-06 5.51e-05 9.55e-05 2.73e-05 
37 1 1.90178e-06 5.91e-05 5.92e-05 3.04e-05 
30 1 1.72607e-06 7.62e-05 5e-05 3.19e-05 
7 1 1.49869e-06 5.67e-05 7.88e-05 3.46e-05 
13 1 1.50902e-06 7.66e-05 8.58e-05 4.11e-05 
28 1 1.8191e-06 5.76e-05 7.3e-05 4.63e-05 
ITEM: TIMESTEP
700
ITEM: NUMBER OF ATOMS
52
ITEM: BOX BOUNDS ff ff ff
0.0000000000000000e+00 1.0000000000000000e-04
0.0000000000000000e+00 1.0000000000000000e-04
0.0000000000000000e+00 5.0000000000000002e-05
ITEM: ATOMS id type diameter x y z 
47 1 1.53814e-06 4.71e-05 2.07e-05 2.05e-06 
23 1 1.90189e-06 4.63e-05 1.87e-05 5.75e-06 
26 1 1.54853e-06 1.87e-05 1.6e-05 6.98e-06 
35 1 1.71482e-06 1.5e-05 4.88e-05 9.57e-06 
49 1 1.95385e-06 4.99e-05 1.31e-05 1.03e-05 
3 1 1.51735e-06 4e-05 4.67e-05 1.07e-05 
50 1 1.75639e-06 5e-06 2.35e-05 1.49e-05 
1 1 1.42382e-06 3.27e-05 2.65e-05 1.6e-05 
31 1 1.89149e-06 3.54e-05 1.18e-05 1.99e-05 
4 1 1.56932e-06 2.5e-05 7.39e-06 2.11e-05 
25 1 1.94346e-06 3.57e-05 3.87e-05 2.37e-05 
33 1 1.62128e-06 2.92e-05 8.95e-06 2.79e-05 
48 1 1.75639e-06 1.63e-05 2.68e-05 3.7e-05 
5 1 1.91228e-06 1.83e-05 4.33e-05 3.88e-05 
20 1 1.55892e-06 4.14e-05 1.22e-05 4e-05 
40 1 1.79796e-06 4.11e-05 1.7e-05 4.03e-05 
16 1 1.72521e-06 3.61e-05 2.61e-06 4.07e-05 
36 1 1.79796e-06 9.77e-06 5.45e-05 8.48e-06 
12 1 1.42382e-06 1.26e-05 5.2e-05 1.7e-05 
17 1 1.69403e-06 5.86e-06 6.27e-05 1.93e-05 
14 1 1.60049e-06 4.81e-05 6.89e-05 1.92e-05 
41 1 1.56932e-06 2.21e-05 8.16e-05 1.96e-05 
22 1 1.84992e-06 2.34e-05 7.05e-05 2.12e-05 
24 1 1.86031e-06 1.1e-05 6.57e-05 2.65e-05 
42 1 1.79796e-06 4.25e-05 7.3e-05 3.65e-05 
46 1 1.50742e-06 6.74734e-06 6.05124e-05 3.99475e-05 
6 1 1.64207e-06 2.56e-05 7.88e-05 4.22e-05 
51 1 1.65339e-06 5.53675e-06 5.98574e-05 4.06866e-05 
15 1 1.86031e-06 9.11e-05 8.52e-06 9.54e-06 
29 1 1.79796e-06 6.71e-05 2.8e-05 1.1e-05 
45 1 1.82914e-06 6.21e-05 1.98e-05 1.16e-05 
19 1 1.70442e-06 9.48e-05 4.3e-05 1.18e-05 
38 1 1.48617e-06 9.28e-05 1.93e-05 1.88e-05 
32 1 1.78757e-06 6.08e-05 4.73e-05 2.79e-05 
27 1 1.91228e-06 9.13e-05 1.14e-05 3.18e-05 
21 1 1.42382e-06 7.69e-05 4.71e-05 4.08e-05 
43 1 1.61089e-06 9.45e-05 2.27e-05 4.35e-05 
39 1 1.50742e-06 7.23773e-05 1.01724e-05 4.39475e-05 
2 1 1.60049e-06 8.44e-05 3.02e-05 4.48e-05 
11 1 1.92267e-06 8.17e-05 4.17e-06 4.61e-05 
9 1 1.67324e-06 9.25e-05 4.12e-05 4.67e-05 
52 1 1.65339e-06 7.11667e-05 9.51737e-06 4.46866e-05 
18 1 1.55892e-06 8.66e-05 6.5e-05 6.79e-06 
8 1 1.51735e-06 9.39e-05 6.1e-05 1.41e-05 
44 1 1.43421e-06 8.87e-05 9.64e-05 1.84e-05 
34 1 1.68364e-06 9.38e-05 8.41e-05 2.14e-05 
10 1 1.51735e-06 5.51e-05 9.55e-05 2.73e-05 
37 1 1.91228e-06 5.91e-05 5.92e-05 3.04e-05 
30 1 1.7356e-06 7.62e-05 5e-05 3.19e-05 
7 1 1.50696e-06 5.67e-05 7.88e-05 3.46e-05 
13 1 1.51735e-06 7.66e-05 8.58e-05 4.11e-05 
28 1 1.82914e-06 5.76e-05 7.3e-05 4.63e-05 
ITEM: TIMESTEP
800
ITEM: NUMBER OF ATOMS
52
ITEM: BOX BOUNDS ff ff ff
0.0000000000000000e+00 1.0000000000000000e-04
0.0000000000000000e+00 1.0000000000000000e-04
0.0000000000000000e+00 5.0000000000000002e-05
ITEM: ATOMS id type diameter x y z 
47 1 1.54663e-06 4.71e-05 2.07e-05 2.05e-06 
23 1 1.91238e-06 4.63e-05 1.87e-05 5.75e-06 
26 1 1.55708e-06 1.87e-05 1.6e-05 6.98e-06 
35 1 1.72428e-06 1.5e-05 4.88e-05 9.57e-06 
49 1 1.96463e-06 4.99e-05 1.31e-05 1.03e-05 
3 1 1.52573e-06 4e-05 4.67e-05 1.07e-05 
50 1 1.76608e-06 5e-06 2.35e-05 1.49e-05 
1 1 1.43168e-06 3.27e-05 2.65e-05 1.6e-05 
31 1 1.90193e-06 3.54e-05 1.18e-05 1.99e-05 
4 1 1.57798e-06 2.5e-05 7.39e-06 2.11e-05 
25 1 1.95418e-06 3.57e-05 3.87e-05 2.37e-05 
33 1 1.63023e-06 2.92e-05 8.95e-06 2.79e-05 
48 1 1.76608e-06 1.63e-05 2.68e-05 3.7e-05 
5 1 1.92283e-06 1.83e-05 4.33e-05 3.88e-05 
20 1 1.56753e-06 4.14e-05 1.22e-05 4e-05 
40 1 1.80788e-06 4.11e-05 1.7e-05 4.03e-05 
16 1 1.73473e-06 3.61e-05 2.61e-06 4.07e-05 
36 1 1.80788e-06 9.77e-06 5.45e-05 8.48e-06 
12 1 1.43168e-06 1.26e-05 5.2e-05 1.7e-05 
17 1 1.70338e-06 5.86e-06 6.27e-05 1.93e-05 
14 1 1.60933e-06 4.81e-05 6.89e-05 1.92e-05 
41 1 1.57798e-06 2.21e-05 8.16e-05 1.96e-05 
22 1 1.86013e-06 2.34e-05 7.05e-05 2.12e-05 
24 1 1.87058e-06 1.1e-05 6.57e-05 2.65e-05 
42 1 1.80788e-06 4.25e-05 7.3e-05 3.65e-05 
46 1 1.51574e-06 6.74734e-06 6.05124e-05 3.99475e-05 
6 1 1.65113e-06 2.56e-05 7.88e-05 4.22e-05 
51 1 1.66252e-06 5.53675e-06 5.98574e-05 4.06866e-05 
15 1 1.87058e-06 9.11e-05 8.52e-06 9.54e-06 
29 1 1.80788e-06 6.71e-05 2.8e-05 1.1e-05 
45 1 1.83923e-06 6.21e-05 1.98e-05 1.16e-05 
19 1 1.71383e-06 9.48e-05 4.3e-05 1.18e-05 
38 1 1.49438e-06 9.28e-05 1.93e-05 1.88e-05 
32 1 1.79743e-06 6.08e-05 4.73e-05 2.79e-05 
27 1 1.92283e-06 9.13e-05 1.14e-05 3.18e-05 
21 1 1.43168e-06 7.69e-05 4.71e-05 4.08e-05 
43 1 1.61978e-06 9.45e-05 2.27e-05 4.35e-05 
39 1 1.51574e-06 7.23773e-05 1.01724e-05 4.39475e-05 
2 1 1.60933e-06 8.44e-05 3.02e-05 4.48e-05 
11 1 1.93328e-06 8.17e-05 4.17e-06 4.61e-05 
9 1 1.68248e-06 9.25e-05 4.12e-05 4.67e-05 
52 1 1.66252e-06 7.11667e-05 9.51737e-06 4.46866e-05 
18 1 1.56753e-06 8.66e-05 6.5e-05 6.79e-06 
8 1 1.52573e-06 9.39e-05 6.1e-05 1.41e-05 
44 1 1.44213e-06 8.87e-05 9.64e-05 1.84e-05 
34 1 1.69293e-06 9.38e-05 8.41e-05 2.14e-05 
10 1 1.52573e-06 5.51e-05 9.55e-05 2.73e-05 
37 1 1.92283e-06 5.91e-05 5.92e-05 3.04e-05 
30 1 1.74518e-06 7.62e-05 5e-05 3.19e-05 
7 1 1.51528e-06 5.67e-05 7.88e-05 3.46e-05 
13 1 1.52573e-06 7.66e-05 8.58e-05 4.11e-05 
28 1 1.83923e-06 5.76e-05 7.3e-05 4.63e-05 
ITEM: TIMESTEP
900
ITEM: NUMBER OF ATOMS
53
ITEM: BOX BOUNDS ff ff ff
0.0000000000000000e+00 1.0000000000000000e-04
0.0000000000000000e+00 1.0000000000000000e-04
0.0000000000000000e+00 5.0000000000000002e-05
ITEM: ATOMS id type diameter x y z 
47 1 1.55516e-06 4.71e-05 2.07e-05 2.05e-06 
23 1 1.92294e-06 4.63e-05 1.87e-05 5.75e-06 
26 1 1.56567e-06 1.87e-05 1.6e-05 6.98e-06 
35 1 1.7338e-06 1.5e-05 4.88e-05 9.57e-06 
53 1 1.63686e-06 4.92661e-05 1.2757e-05 1.0687e-05 
3 1 1.53415e-06 4e-05 4.67e-05 1.07e-05 
50 1 1.77583e-06 5e-06 2.35e-05 1.49e-05 
1 1 1.43958e-06 3.27e-05 2.65e-05 1.6e-05 
31 1 1.91243e-06 3.54e-05 1.18e-05 1.99e-05 
4 1 1.58669e-06 2.5e-05 7.39e-06 2.11e-05 
25 1 1.96497e-06 3.57e-05 3.87e-05 2.37e-05 
33 1 1.63923e-06 2.92e-05 8.95e-06 2.79e-05 
48 1 1.77583e-06 1.63e-05 2.68e-05 3.7e-05 
5 1 1.93345e-06 1.83e-05 4.33e-05 3.88e-05 
20 1 1.57618e-06 4.14e-05 1.22e-05 4e-05 
40 1 1.81786e-06 4.11e-05 1.7e-05 4.03e-05 
16 1 1.74431e-06 3.61e-05 2.61e-06 4.07e-05 
36 1 1.81786e-06 9.77e-06 5.45e-05 8.48e-06 
12 1 1.43958e-06 1.26e-05 5.2e-05 1.7e-05 
17 1 1.71278e-06 5.86e-06 6.27e-05 1.93e-05 
14 1 1.61821e-06 4.81e-05 6.89e-05 1.92e-05 
41 1 1.58669e-06 2.21e-05 8.16e-05 1.96e-05 
22 1 1.8704e-06 2.34e-05 7.05e-05 2.12e-05 
24 1 1.88091e-06 1.1e-05 6.57e-05 2.65e-05 
42 1 1.81786e-06 4.25e-05 7.3e-05 3.65e-05 
46 1 1.5241e-06 6.76284e-06 6.05208e-05 3.99381e-05 
6 1 1.66024e-06 2.56e-05 7.88e-05 4.22e-05 
51 1 1.67169e-06 5.52125e-06 5.9849e-05 4.0696e-05 
15 1 1.88091e-06 9.11e-05 8.52e-06 9.54e-06 
29 1 1.81786e-06 6.71e-05 2.8e-05 1.1e-05 
45 1 1.84938e-06 6.21e-05 1.98e-05 1.16e-05 
19 1 1.72329e-06 9.48e-05 4.3e-05 1.18e-05 
38 1 1.50262e-06 9.28e-05 1.93e-05 1.88e-05 
49 1 1.49235e-06 5.04779e-05 1.34127e-05 9.94721e-06 
32 1 1.80735e-06 6.08e-05 4.73e-05 2.79e-05 
27 1 1.93345e-06 9.13e-05 1.14e-05 3.18e-05 
21 1 1.43958e-06 7.69e-05 4.71e-05 4.08e-05 
43 1 1.62872e-06 9.45e-05 2.27e-05 4.35e-05 
39 1 1.5241e-06 7.23928e-05 1.01808e-05 4.39381e-05 
2 1 1.61821e-06 8.44e-05 3.02e-05 4.48e-05 
11 1 1.94395e-06 8.17e-05 4.17e-06 4.61e-05 
9 1 1.69177e-06 9.25e-05 4.12e-05 4.67e-05 
52 1 1.67169e-06 7.11513e-05 9.50898e-06 4.4696e-05 
18 1 1.57618e-06 8.66e-05 6.5e-05 6.79e-06 
8 1 1.53415e-06 9.39e-05 6.1e-05 1.41e-05 
44 1 1.45009e-06 8.87e-05 9.64e-05 1.84e-05 
34 1 1.70227e-06 9.38e-05 8.41e-05 2.14e-05 
10 1 1.53415e-06 5.51e-05 9.55e-05 2.73e-05 
37 1 1.93345e-06 5.91e-05 5.92e-05 3.04e-05 
30 1 1.75481e-06 7.62e-05 5e-05 3.19e-05 
7 1 1.52364e-06 5.67e-05 7.88e-05 3.46e-05 
13 1 1.53415e-06 7.66e-05 8.58e-05 4.11e-05 
28 1 1.84938e-06 5.76e-05 7.3e-05 4.63e-05 
ITEM: TIMESTEP
1000
ITEM: NUMBER OF ATOMS
54
ITEM: BOX BOUNDS ff ff ff
0.0000000000000000e+00 1.0000000000000000e-04
0.0000000000000000e+00 1.0000000000000000e-04
0.0000000000000000e+00 5.0000000000000002e-05
ITEM: ATOMS id type diameter x y z 
47 1 1.56375e-06 4.71e-05 2.07e-05 2.05e-06 
23 1 1.93355e-06 4.63e-05 1.87e-05 5.75e-06 
26 1 1.57431e-06 1.87e-05 1.6e-05 6.98e-06 
35 1 1.74337e-06 1.5e-05 4.88e-05 9.57e-06 
53 1 1.6459e-06 4.92584e-05 1.27528e-05 1.06917e-05 
3 1 1.54262e-06 4e-05 4.67e-05 1.07e-05 
50 1 1.78563e-06 5e-06 2.35e-05 1.49e-05 
1 1 1.44752e-06 3.27e-05 2.65e-05 1.6e-05 
31 1 1.92299e-06 3.54e-05 1.18e-05 1.99e-05 
4 1 1.59544e-06 2.5e-05 7.39e-06 2.11e-05 
25 1 1.49261e-06 3.6278e-05 3.90127e-05 2.33471e-05 
54 1 1.63714e-06 3.5066e-05 3.8357e-05 2.4087e-05 
33 1 1.64827e-06 2.92e-05 8.95e-06 2.79e-05 
48 1 1.78563e-06 1.63e-05 2.68e-05 3.7e-05 
5 1 1.94412e-06 1.83e-05 4.33e-05 3.88e-05 
20 1 1.58488e-06 4.14e-05 1.22e-05 4e-05 
40 1 1.82789e-06 4.11e-05 1.7e-05 4.03e-05 
16 1 1.75393e-06 3.61e-05 2.61e-06 4.07e-05 
36 1 1.82789e-06 9.77e-06 5.45e-05 8.48e-06 
12 1 1.44752e-06 1.26e-05 5.2e-05 1.7e-05 
17 1 1.72224e-06 5.86e-06 6.27e-05 1.93e-05 
14 1 1.62714e-06 4.81e-05 6.89e-05 1.92e-05 
41 1 1.59544e-06 2.21e-05 8.16e-05 1.96e-05 
22 1 1.88072e-06 2.34e-05 7.05e-05 2.12e-05 
24 1 1.89129e-06 1.1e-05 6.57e-05 2.65e-05 
42 1 1.82789e-06 4.25e-05 7.3e-05 3.65e-05 
46 1 1.53252e-06 6.76284e-06 6.05208e-05 3.99381e-05 
51 1 1.68092e-06 5.52125e-06 5.9849e-05 4.0696e-05 
6 1 1.66941e-06 2.56e-05 7.88e-05 4.22e-05 
15 1 1.89129e-06 9.11e-05 8.52e-06 9.54e-06 
49 1 1.50059e-06 5.04856e-05 1.34169e-05 9.94248e-06 
29 1 1.82789e-06 6.71e-05 2.8e-05 1.1e-05 
45 1 1.85959e-06 6.21e-05 1.98e-05 1.16e-05 
19 1 1.7328e-06 9.48e-05 4.3e-05 1.18e-05 
38 1 1.51092e-06 9.28e-05 1.93e-05 1.88e-05 
32 1 1.81733e-06 6.08e-05 4.73e-05 2.79e-05 
27 1 1.94412e-06 9.13e-05 1.14e-05 3.18e-05 
21 1 1.44752e-06 7.69e-05 4.71e-05 4.08e-05 
39 1 1.53252e-06 7.23928e-05 1.01808e-05 4.39381e-05 
43 1 1.63771e-06 9.45e-05 2.27e-05 4.35e-05 
52 1 1.68092e-06 7.11513e-05 9.50898e-06 4.4696e-05 
2 1 1.62714e-06 8.44e-05 3.02e-05 4.48e-05 
11 1 1.95468e-06 8.17e-05 4.17e-06 4.61e-05 
9 1 1.7011e-06 9.25e-05 4.12e-05 4.67e-05 
18 1 1.58488e-06 8.66e-05 6.5e-05 6.79e-06 
8 1 1.54262e-06 9.39e-05 6.1e-05 1.41e-05 
44 1 1.45809e-06 8.87e-05 9.64e-05 1.84e-05 
34 1 1.71167e-06 9.38e-05 8.41e-05 2.14e-05 
10 1 1.54262e-06 5.51e-05 9.55e-05 2.73e-05 
37 1 1.94412e-06 5.91e-05 5.92e-05 3.04e-05 
30 1 1.7645e-06 7.62e-05 5e-05 3.19e-05 
7 1 1.53205e-06 5.67e-05 7.88e-05 3.46e-05 
13 1 1.54262e-06 7.66e-05 8.58e-05 4.11e-05 
28 1 1.85959e-06 5.76e-05 7.3e-05 4.63e-05 
ITEM: TIMESTEP
1100
ITEM: NUMBER OF ATOMS
54
ITEM: BOX BOUNDS ff ff ff
0.0000000000000000e+00 1.0000000000000000e-04
0.0000000000000000e+00 1.0000000000000000e-04
0.0000000000000000e+00 5.0000000000000002e-05
ITEM: ATOMS id type diameter x y z 
47 1 1.57238e-06 4.71e-05 2.07e-05 2.05e-06 
23 1 1.94422e-06 4.63e-05 1.87e-05 5.75e-06 
26 1 1.583e-06 1.87e-05 1.6e-05 6.98e-06 
35 1 1.75299e-06 1.5e-05 4.88e-05 9.57e-06 
53 1 1.65498e-06 4.92584e-05 1.27528e-05 1.06917e-05 
3 1 1.55113e-06 4e-05 4.67e-05 1.07e-05 
50 1 1.79549e-06 5e-06 2.35e-05 1.49e-05 
1 1 1.45551e-06 3.27e-05 2.65e-05 1.6e-05 
31 1 1.9336e-06 3.54e-05 1.18e-05 1.99e-05 
4 1 1.60425e-06 2.5e-05 7.39e-06 2.11e-05 
25 1 1.50085e-06 3.6278e-05 3.90127e-05 2.33471e-05 
54 1 1.64618e-06 3.5066e-05 3.8357e-05 2.4087e-05 
33 1 1.65737e-06 2.92e-05 8.95e-06 2.79e-05 
48 1 1.79549e-06 1.63e-05 2.68e-05 3.7e-05 
5 1 1.95485e-06 1.83e-05 4.33e-05 3.88e-05 
20 1 1.59363e-06 4.14e-05 1.22e-05 4e-05 
40 1 1.83798e-06 4.11e-05 1.7e-05 4.03e-05 
16 1 1.76361e-06 3.61e-05 2.61e-06 4.07e-05 
36 1 1.83798e-06 9.77e-06 5.45e-05 8.48e-06 
12 1 1.45551e-06 1.26e-05 5.2e-05 1.7e-05 
17 1 1.73174e-06 5.86e-06 6.27e-05 1.93e-05 
14 1 1.63612e-06 4.81e-05 6.89e-05 1.92e-05 
41 1 1.60425e-06 2.21e-05 8.16e-05 1.96e-05 
22 1 1.8911e-06 2.34e-05 7.05e-05 2.12e-05 
24 1 1.90173e-06 1.1e-05 6.57e-05 2.65e-05 
42 1 1.83798e-06 4.25e-05 7.3e-05 3.65e-05 
46 1 1.54098e-06 6.76284e-06 6.05208e-05 3.99381e-05 
51 1 1.6902e-06 5.52125e-06 5.9849e-05 4.0696e-05 
6 1 1.67862e-06 2.56e-05 7.88e-05 4.22e-05 
15 1 1.90173e-06 9.11e-05 8.52e-06 9.54e-06 
49 1 1.50887e-06 5.04856e-05 1.34169e-05 9.94248e-06 
29 1 1.83798e-06 6.71e-05 2.8e-05 1.1e-05 
45 1 1.86986e-06 6.21e-05 1.98e-05 1.16e-05 
19 1 1.74237e-06 9.48e-05 4.3e-05 1.18e-05 
38 1 1.51926e-06 9.28e-05 1.93e-05 1.88e-05 
32 1 1.82736e-06 6.08e-05 4.73e-05 2.79e-05 
27 1 1.95485e-06 9.13e-05 1.14e-05 3.18e-05 
21 1 1.45551e-06 7.69e-05 4.71e-05 4.08e-05 
39 1 1.54098e-06 7.23928e-05 1.01808e-05 4.39381e-05 
43 1 1.64675e-06 9.45e-05 2.27e-05 4.35e-05 
52 1 1.6902e-06 7.11513e-05 9.50898e-06 4.4696e-05 
2 1 1.63612e-06 8.44e-05 3.02e-05 4.48e-05 
11 1 1.96547e-06 8.17e-05 4.17e-06 4.61e-05 