 NUFEB Simulation

     100 atoms 
     2 atom types 
     4 nutrients 

  0.0e-4   1.00e-04  xlo xhi 
  0.0e-4   1.00e-04  ylo yhi 
  0.0e-4   1.00e-04  zlo zhi 

 Atoms 

     1 1 1.75e-06  370 4.22e-05 5.84e-05 9.33e-05 1.75e-06 
     2 1 1.81e-06  370 9.32e-06 9.56e-05 6.64e-05 1.81e-06 
     3 1 1.62e-06  370 2.58e-05 1.47e-05 3.99e-05 1.62e-06 
     4 1 1.87e-06  370 6.16e-06 2.09e-05 9.03e-05 1.87e-06 
     5 1 1.55e-06  370 7.07e-05 7.88e-05 3.36e-05 1.55e-06 
     6 1 1.79e-06  370 2.16e-05 9.44e-05 5.36e-05 1.79e-06 
     7 1 1.52e-06  370 9.81e-06 8.67e-05 9.48e-05 1.52e-06 
     8 1 1.79e-06  370 1.37e-05 7.23e-05 9.03e-05 1.79e-06 
     9 1 1.58e-06  370 6.33e-05 3.89e-05 8.47e-05 1.58e-06 
     10 1 1.52e-06  370 8.94e-05 2.86e-05 4.01e-06 1.52e-06 
     11 1 1.46e-06  370 1.27e-05 7.60e-05 6.50e-05 1.46e-06 
     12 1 1.76e-06  370 2.60e-05 8.03e-05 6.85e-06 1.76e-06 
     13 1 1.74e-06  370 7.92e-06 8.76e-06 6.32e-05 1.74e-06 
     14 1 1.58e-06  370 4.74e-06 6.49e-05 4.82e-05 1.58e-06 
     15 1 1.66e-06  370 3.11e-05 8.73e-05 7.48e-05 1.66e-06 
     16 1 1.43e-06  370 4.54e-05 6.68e-05 6.10e-05 1.43e-06 
     17 1 1.50e-06  370 4.70e-05 4.12e-05 5.70e-05 1.50e-06 
     18 1 1.93e-06  370 9.61e-05 7.89e-05 9.74e-05 1.93e-06 
     19 1 1.67e-06  370 8.07e-05 5.94e-05 9.00e-05 1.67e-06 
     20 1 1.77e-06  370 2.26e-05 4.09e-05 8.06e-05 1.77e-06 
     21 1 1.50e-06  370 1.09e-05 7.23e-05 5.50e-06 1.50e-06 
     22 1 1.81e-06  370 2.21e-05 3.09e-05 4.08e-05 1.81e-06 
     23 1 1.47e-06  370 6.06e-05 3.33e-05 5.99e-05 1.47e-06 
     24 1 1.62e-06  370 4.14e-05 8.20e-05 9.48e-05 1.62e-06 
     25 1 1.38e-06  370 6.75e-05 2.77e-06 1.92e-05 1.38e-06 
     26 1 1.74e-06  370 4.08e-05 9.19e-05 1.43e-05 1.74e-06 
     27 1 1.50e-06  370 3.80e-05 4.57e-05 1.81e-05 1.50e-06 
     28 1 1.69e-06  370 9.58e-05 8.99e-05 9.71e-05 1.69e-06 
     29 1 1.88e-06  370 4.35e-06 3.06e-05 7.07e-06 1.88e-06 
     30 1 1.83e-06  370 7.87e-05 7.15e-05 3.75e-05 1.83e-06 
     31 1 1.39e-06  370 1.18e-05 9.32e-05 5.25e-05 1.39e-06 
     32 1 1.40e-06  370 8.46e-05 7.11e-05 1.13e-05 1.40e-06 
     33 1 1.87e-06  370 5.37e-05 6.47e-05 9.40e-05 1.87e-06 
     34 1 1.82e-06  370 1.48e-05 6.24e-05 4.76e-05 1.82e-06 
     35 1 1.71e-06  370 5.18e-05 3.81e-05 4.02e-06 1.71e-06 
     36 1 1.76e-06  370 9.37e-05 8.20e-05 6.55e-05 1.76e-06 
     37 1 1.52e-06  370 3.56e-05 4.93e-05 3.04e-05 1.52e-06 
     38 1 1.42e-06  370 4.74e-05 7.68e-06 5.92e-06 1.42e-06 
     39 1 1.76e-06  370 2.01e-05 7.23e-05 5.60e-05 1.76e-06 
     40 1 1.47e-06  370 5.11e-05 4.07e-05 4.78e-05 1.47e-06 
     41 1 1.64e-06  370 6.81e-05 9.24e-05 2.58e-05 1.64e-06 
     42 1 1.60e-06  370 4.34e-06 2.81e-05 7.08e-05 1.60e-06 
     43 1 1.56e-06  370 4.90e-05 6.07e-05 5.23e-06 1.56e-06 
     44 1 1.66e-06  370 9.12e-05 4.84e-05 3.19e-05 1.66e-06 
     45 1 1.94e-06  370 4.49e-05 6.33e-05 1.35e-05 1.94e-06 
     46 1 1.76e-06  370 7.29e-05 2.50e-05 8.78e-05 1.76e-06 
     47 1 1.70e-06  370 6.97e-05 1.98e-05 2.80e-05 1.70e-06 
     48 1 1.61e-06  370 3.71e-05 2.72e-05 1.56e-05 1.61e-06 
     49 1 1.56e-06  370 5.35e-05 5.14e-05 8.25e-05 1.56e-06 
     50 1 1.40e-06  370 8.26e-05 3.33e-05 3.49e-05 1.40e-06 
     51 1 1.59e-06  370 4.00e-05 8.10e-05 9.36e-05 1.59e-06 
     52 1 1.82e-06  370 4.92e-05 7.56e-05 4.07e-05 1.82e-06 
     53 1 1.38e-06  370 1.66e-05 9.19e-05 2.02e-05 1.38e-06 
     54 1 1.76e-06  370 1.08e-05 5.48e-06 4.07e-05 1.76e-06 
     55 1 1.55e-06  370 7.50e-05 9.84e-05 3.73e-05 1.55e-06 
     56 1 1.91e-06  370 3.13e-05 2.17e-05 8.85e-05 1.91e-06 
     57 1 1.89e-06  370 8.00e-05 4.37e-05 2.67e-05 1.89e-06 
     58 1 1.62e-06  370 4.60e-05 3.37e-06 3.77e-05 1.62e-06 
     59 1 1.82e-06  370 4.16e-06 7.44e-05 6.16e-05 1.82e-06 
     60 1 1.60e-06  370 9.10e-05 8.87e-05 9.43e-05 1.60e-06 
     61 1 1.50e-06  370 4.48e-05 6.04e-05 2.17e-05 1.50e-06 
     62 1 1.58e-06  370 4.20e-05 8.23e-05 2.66e-05 1.58e-06 
     63 1 1.91e-06  370 2.28e-05 2.25e-05 8.03e-05 1.91e-06 
     64 1 1.91e-06  370 1.05e-05 3.17e-05 9.31e-05 1.91e-06 
     65 1 1.39e-06  370 7.15e-05 9.64e-05 1.93e-06 1.39e-06 
     66 1 1.66e-06  370 8.48e-05 6.89e-05 7.14e-05 1.66e-06 
     67 1 1.91e-06  370 7.59e-05 3.00e-05 8.22e-06 1.91e-06 
     68 1 1.52e-06  370 9.48e-05 6.01e-05 6.15e-05 1.52e-06 
     69 1 1.80e-06  370 4.04e-05 5.81e-05 4.90e-05 1.80e-06 
     70 1 1.44e-06  370 3.21e-05 1.16e-05 7.91e-05 1.44e-06 
     71 1 1.87e-06  370 6.40e-06 4.80e-05 4.65e-06 1.87e-06 
     72 1 1.67e-06  370 8.04e-05 8.92e-05 5.82e-05 1.67e-06 
     73 1 1.86e-06  370 2.79e-05 4.32e-06 5.85e-05 1.86e-06 
     74 1 1.40e-06  370 5.54e-05 5.03e-05 6.60e-05 1.40e-06 
     75 1 1.64e-06  370 3.23e-05 4.04e-06 6.12e-05 1.64e-06 
     76 1 1.64e-06  370 9.26e-05 1.18e-05 4.98e-05 1.64e-06 
     77 1 1.42e-06  370 8.09e-05 9.38e-05 6.43e-05 1.42e-06 
     78 1 1.76e-06  370 9.26e-05 2.94e-05 5.94e-06 1.76e-06 
     79 1 1.61e-06  370 4.14e-05 2.44e-05 6.74e-06 1.61e-06 
     80 1 1.55e-06  370 8.32e-05 4.08e-05 3.17e-06 1.55e-06 
     81 1 1.51e-06  370 8.26e-05 6.20e-05 7.17e-05 1.51e-06 
     82 1 1.86e-06  370 3.30e-05 3.29e-05 6.32e-05 1.86e-06 
     83 1 1.50e-06  370 1.99e-06 9.29e-05 2.50e-05 1.50e-06 
     84 1 1.89e-06  370 3.03e-05 7.78e-05 6.35e-05 1.89e-06 
     85 1 1.62e-06  370 1.72e-05 6.68e-05 2.64e-05 1.62e-06 
     86 1 1.41e-06  370 5.67e-05 6.71e-05 1.43e-05 1.41e-06 
     87 1 1.92e-06  370 5.92e-05 3.15e-05 5.44e-05 1.92e-06 
     88 1 1.50e-06  370 5.57e-05 8.78e-06 3.90e-05 1.50e-06 
     89 1 1.67e-06  370 7.54e-05 2.93e-05 5.95e-05 1.67e-06 
     90 1 1.94e-06  370 3.44e-05 7.44e-05 4.24e-06 1.94e-06 
     91 1 1.79e-06  370 5.34e-05 3.22e-05 4.43e-05 1.79e-06 
     92 1 1.94e-06  370 7.85e-05 3.63e-05 3.27e-06 1.94e-06 
     93 1 1.87e-06  370 9.30e-05 4.07e-06 3.94e-05 1.87e-06 
     94 1 1.84e-06  370 5.12e-05 3.66e-05 9.80e-06 1.84e-06 
     95 1 1.41e-06  370 7.94e-05 2.77e-05 1.87e-05 1.41e-06 
     96 1 1.79e-06  370 8.94e-05 6.06e-05 3.19e-05 1.79e-06 
     97 1 1.41e-06  370 7.12e-05 3.53e-05 9.73e-05 1.41e-06 
     98 1 1.84e-06  370 4.19e-05 6.89e-06 6.97e-05 1.84e-06 
     99 1 1.69e-06  370 8.24e-06 2.76e-05 4.99e-05 1.69e-06 
     100 1 1.50e-06  370 4.89e-05 5.90e-06 3.83e-05 1.50e-06 

 Nutrients 

     1 sub g nn nn nn 1.00e-01 1.00e-01 
     2 o2 l nn nn nd 9.00e-03 9.00e-03 
     3 suc l nn nn nn 3.42e-20 3.42e-20 
     4 co2 l nn nn nd 2.99e-02 2.99e-02 

 Type Name 

     1 cyano  
     2 ecw  

 Diffusion Coeffs 

     sub 0 
     o2 2.3e-09 
     suc 5.2e-10 
     co2 1.9e-09 

 Growth Rate 

     cyano 1.89e-05 
     ecw 6.71e-05 

 Ks 

     cyano 0.00035 0.0002 0.01 0.000138 
     ecw 0 0.001 3.6 0.05 

 Yield 

     cyano 0.55 
     ecw 0.43 

 Maintenance 

     cyano 0 
     ecw 9.5e-07 

 Decay 

     cyano 0 
     ecw 0 



