LAMMPS (20 Nov 2019)
Reading data file ...
  orthogonal box = (0 0 0) to (0.0001 0.0001 0.0001)
  2 by 4 by 4 MPI processor grid
  reading atoms ...
  100 atoms
  4 nutrients
Lattice spacing in x,y,z = 100 100 100
100 atoms in group CYANO
0 atoms in group ECW
Model is defined as a closed system. 
Neighbor list info ...
  update every 1 steps, delay 0 steps, check yes
  max neighbors/atom: 5000, page size: 100000
  master list distance cutoff = 2.44e-06
  ghost atom cutoff = 2.44e-06
  binsize = 1.22e-06, bins = 82 82 82
  1 neighbor lists, perpetual/occasional/extra = 1 0 0
  (1) pair gran/hooke/history, perpetual
      attributes: half, newton off, size, history
      pair build: half/size/bin/newtoff
      stencil: half/bin/3d/newtoff
      bin: standard
Setting up Verlet run ...
  Unit style    : lj
  Current step  : 0
  Time step     : 10
Per MPI rank memory allocation (min/avg/max) = 5.856 | 9.604 | 10.91 Mbytes
Step CPU Atoms c_myNtypes[1] c_myNtypes[2] c_myMass[1] c_myMass[2] c_myCon[1] c_myCon[2] c_myCon[3] c_myCon[4] 
       0            0      100          100            0 9.1599477e-14            0          0.1        0.009     3.42e-20       0.0299 
number of iterations: 50093 
     100    0.5893997      100          100            0 9.3386695e-14            0          0.1 0.0090002753 1.4504099e-20  0.029899542 
number of iterations: 42821 
     200    1.0477828      100          100            0 9.5208785e-14            0          0.1 0.0090002807 1.0657651e-20  0.029899533 
number of iterations: 31796 
     300    1.4149492      103          103            0 9.7066425e-14            0          0.1 0.0090002862 9.8921455e-21  0.029899524 
number of iterations: 20641 
     400    1.6729158      104          104            0 9.8960311e-14            0          0.1 0.0090002918 1.0284176e-20  0.029899514 
number of iterations: 26670 
     500    1.9864786      105          105            0 1.0089115e-13            0          0.1 0.0090002974 9.7998165e-21  0.029899505 
number of iterations: 24599 
     600     2.279567      109          109            0 1.0285966e-13            0          0.1 0.0090003037 1.0224984e-20  0.029899494 
number of iterations: 25221 
     700    2.5807099      111          111            0 1.0486658e-13            0          0.1 0.0090003097 9.7779222e-21  0.029899484 
number of iterations: 25257 
     800    2.8816944      112          112            0 1.0691265e-13            0          0.1 0.0090003157 1.0217471e-20  0.029899474 
number of iterations: 25009 
     900    3.1814993      116          116            0 1.0899865e-13            0          0.1 0.0090003219 9.7750697e-21  0.029899464 
number of iterations: 25337 
    1000    3.4896977      118          118            0 1.1112535e-13            0          0.1 0.0090003281 1.0216399e-20  0.029899454 
number of iterations: 24979 
    1100    3.7874314      120          120            0 1.1329354e-13            0          0.1 0.0090003345 9.7746979e-21  0.029899443 
number of iterations: 25348 
    1200    4.1232409      121          121            0 1.1550404e-13            0          0.1 0.0090003411 1.0216229e-20  0.029899432 
number of iterations: 24974 
    1300    4.4263562      124          124            0 1.1775766e-13            0          0.1 0.0090003475 9.7746274e-21  0.029899421 
number of iterations: 25350 
    1400    4.7324834      126          126            0 1.2005526e-13            0          0.1 0.0090003543 1.0218459e-20   0.02989941 
number of iterations: 25038 
    1500    5.0351791      127          127            0 1.2239769e-13            0          0.1 0.0090003612 9.7732954e-21  0.029899399 
number of iterations: 25387 
    1600    5.3399347      131          131            0 1.2478581e-13            0          0.1 0.0090003683 1.0217973e-20  0.029899387 
number of iterations: 25024 
    1700    5.6426111      132          132            0 1.2722054e-13            0          0.1 0.0090003762 9.7724114e-21  0.029899374 
number of iterations: 25412 
    1800    5.9468646      138          138            0 1.2970277e-13            0          0.1 0.0090003834 1.0218375e-20  0.029899362 
number of iterations: 25035 
    1900    6.2502106      139          139            0 1.3223343e-13            0          0.1 0.0090003909 9.7725359e-21  0.029899349 
number of iterations: 25408 
    2000    6.5889806      141          141            0 1.3481347e-13            0          0.1 0.0090003985 1.0218446e-20  0.029899336 
number of iterations: 25037 
    2100    6.8966988      141          141            0 1.3744384e-13            0          0.1 0.0090004063 9.7725601e-21  0.029899324 
number of iterations: 25408 
    2200    7.2080573      141          141            0 1.4012554e-13            0          0.1 0.0090004143 1.0218423e-20   0.02989931 
number of iterations: 25037 
    2300     7.512399      142          142            0 1.4285956e-13            0          0.1 0.0090004223 9.7725842e-21  0.029899297 
number of iterations: 25407 
    2400    7.8189643      143          143            0 1.4564693e-13            0          0.1 0.0090004304 1.0220172e-20  0.029899283 
number of iterations: 25086 
    2500    8.1235549      145          145            0 1.4848868e-13            0          0.1 0.0090004388 9.7715206e-21  0.029899269 
number of iterations: 25250 
    2600    8.4243671      148          148            0 1.5138588e-13            0          0.1 0.0090004485 1.0167318e-20  0.029899253 
number of iterations: 23318 
    2700    8.7130971      151          151            0 1.543396e-13            0          0.1 0.0090004573 9.8106538e-21  0.029899239 
number of iterations: 24129 
    2800     9.009448      151          151            0 1.5735096e-13            0          0.1 0.0090004662 1.0178852e-20  0.029899224 
number of iterations: 23711 
    2900    9.3021607      154          154            0 1.6042107e-13            0          0.1 0.0090004753 9.814519e-21  0.029899209 
number of iterations: 24006 
    3000    9.5996716      157          157            0 1.6355108e-13            0          0.1 0.0090004846 1.0180096e-20  0.029899193 
number of iterations: 23752 
    3100    9.8977355      163          163            0 1.6674216e-13            0          0.1  0.009000494 9.8149271e-21  0.029899177 
number of iterations: 23993 
    3200    10.195694      166          166            0 1.6999551e-13            0          0.1 0.0090005037 1.0180223e-20  0.029899161 
number of iterations: 23739 
    3300    10.491097      168          168            0 1.7331233e-13            0          0.1 0.0090005134 9.8226457e-21  0.029899145 
number of iterations: 23721 
    3400    10.786905      171          171            0 1.7669386e-13            0          0.1 0.0090005234 1.0174877e-20  0.029899129 
number of iterations: 23561 
    3500    11.082365      175          175            0 1.8014138e-13            0          0.1 0.0090005336 9.8213935e-21  0.029899112 
number of iterations: 23763 
    3600    11.377133      178          178            0 1.8365616e-13            0          0.1  0.009000544 1.0174491e-20  0.029899094 
number of iterations: 23548 
    3700    11.670886      182          182            0 1.8723951e-13            0          0.1 0.0090005546 9.8212787e-21  0.029899077 
number of iterations: 23767 
    3800    11.969015      186          186            0 1.9089279e-13            0          0.1 0.0090005654 1.017445e-20  0.029899059 
number of iterations: 23547 
    3900    12.263781      189          189            0 1.9461734e-13            0          0.1 0.0090005764 9.8257875e-21   0.02989904 
number of iterations: 23614 
    4000    12.560659      191          191            0 1.9841456e-13            0          0.1 0.0090005878 1.0171465e-20  0.029899021 
number of iterations: 23358 
    4100    12.843734      198          198            0 2.0228588e-13            0          0.1 0.0090005974 9.8323999e-21  0.029899005 
number of iterations: 23294 
    4200     13.13809      199          199            0 2.0623272e-13            0          0.1 0.0090006091 1.016612e-20  0.029898986 
number of iterations: 23173 
    4300    13.419016      207          207            0 2.1025657e-13            0          0.1 0.0090006184 9.8298971e-21   0.02989897 
number of iterations: 23381 
    4400     13.71269      209          209            0 2.1435894e-13            0          0.1 0.0090006305 1.0166527e-20   0.02989895 
number of iterations: 23188 
    4500    14.041169      212          212            0 2.1854135e-13            0          0.1 0.0090006428 9.830032e-21   0.02989893 
number of iterations: 23376 
    4600    14.339054      218          218            0 2.2280536e-13            0          0.1 0.0090006553 1.0166575e-20  0.029898909 
number of iterations: 23189 
    4700    14.633439      221          221            0 2.2715256e-13            0          0.1 0.0090006681 9.8300196e-21  0.029898888 
number of iterations: 23376 
    4800    14.928976      226          226            0 2.3158459e-13            0          0.1 0.0090006806 1.0166587e-20  0.029898867 
number of iterations: 23190 
    4900    15.222169      228          228            0 2.3610309e-13            0          0.1 0.0090006939 9.8300439e-21  0.029898845 
number of iterations: 23376 
    5000    15.518609      235          235            0 2.4070975e-13            0          0.1 0.0090007074 1.0167275e-20  0.029898822 
number of iterations: 23214 
    5100    15.812322      237          237            0 2.4540629e-13            0          0.1 0.0090007212 9.8295354e-21  0.029898799 
number of iterations: 23393 
    5200    16.116699      245          245            0 2.5019447e-13            0          0.1 0.0090007356 1.0167163e-20  0.029898775 
number of iterations: 23210 
    5300    16.411699      249          249            0 2.5507607e-13            0          0.1   0.00900075 9.8295029e-21  0.029898751 
number of iterations: 23394 
    5400    16.750738      254          254            0 2.6005292e-13            0          0.1 0.0090007646 1.0167159e-20  0.029898727 
number of iterations: 23210 
    5500    17.051401      258          258            0 2.6512687e-13            0          0.1 0.0090007795 9.8295071e-21  0.029898702 
number of iterations: 23394 
    5600    17.341046      271          271            0 2.7029982e-13            0          0.1 0.0090007905 1.0166574e-20  0.029898684 
number of iterations: 23189 
    5700    17.655658      272          272            0 2.755737e-13            0          0.1 0.0090008057 9.8299521e-21  0.029898658 
number of iterations: 23379 
    5800    17.956042      280          280            0 2.8095048e-13            0          0.1 0.0090008228 1.0159953e-20   0.02989863 
number of iterations: 22953 
    5900    18.253734      282          282            0 2.8643217e-13            0          0.1 0.0090008388 9.8355012e-21  0.029898603 
number of iterations: 23184 
    6000    18.570342      289          289            0 2.9202081e-13            0          0.1 0.0090008555 1.0161195e-20  0.029898576 
number of iterations: 22998 
    6100    18.865972      295          295            0 2.977185e-13            0          0.1 0.0090008722 9.8357752e-21  0.029898548 
number of iterations: 23174 
    6200    19.165127      299          299            0 3.0352735e-13            0          0.1 0.0090008892 1.0161264e-20   0.02989852 
number of iterations: 23001 
    6300    19.461126      303          303            0 3.0944954e-13            0          0.1 0.0090009065 9.8358078e-21  0.029898491 
number of iterations: 23173 
    6400     19.75951      307          307            0 3.1548728e-13            0          0.1 0.0090009242 1.0161266e-20  0.029898461 
number of iterations: 23001 
    6500    20.058904      318          318            0 3.2164282e-13            0          0.1 0.0090009422 9.8358061e-21  0.029898431 
number of iterations: 23173 
    6600    20.357871      323          323            0 3.2791847e-13            0          0.1 0.0090009606 1.0161267e-20  0.029898401 
number of iterations: 23001 
    6700    20.654215      331          331            0 3.3431656e-13            0          0.1 0.0090009772 9.8344911e-21  0.029898373 
number of iterations: 23220 
    6800    20.967444      339          339            0 3.4083949e-13            0          0.1 0.0090009977 1.0162329e-20  0.029898339 
number of iterations: 23039 
    6900    21.282468      341          341            0 3.4748968e-13            0          0.1 0.0090010172 9.8347059e-21  0.029898306 
number of iterations: 23212 
    7000    21.583983      347          347            0 3.5426963e-13            0          0.1 0.0090010371 1.0162388e-20  0.029898273 
number of iterations: 23041 
    7100    21.883435      348          348            0 3.6118187e-13            0          0.1 0.0090010573 9.8347147e-21   0.02989824 
number of iterations: 23212 
    7200    22.185842      357          357            0 3.6822897e-13            0          0.1 0.0090010779 1.0162379e-20  0.029898205 
number of iterations: 23041 
    7300    22.486148      364          364            0 3.7541357e-13            0          0.1 0.0090010992 9.8333984e-21   0.02989817 
number of iterations: 23258 
    7400    22.792664      372          372            0 3.8273835e-13            0          0.1 0.0090011227 1.0163493e-20  0.029898131 
number of iterations: 23081 
    7500    23.096798      378          378            0 3.9020604e-13            0          0.1  0.009001144 9.8336251e-21  0.029898095 
number of iterations: 23250 
    7600     23.41725      390          390            0 3.9781944e-13            0          0.1 0.0090011652 1.0163539e-20   0.02989806 
number of iterations: 23082 
    7700    23.721575      399          399            0 4.0558138e-13            0          0.1 0.0090011874 9.8336124e-21  0.029898023 
number of iterations: 23251 
    7800    24.054323      408          408            0 4.1349477e-13            0          0.1 0.0090012106 1.0163518e-20  0.029897984 
number of iterations: 23081 
    7900    24.374414      413          413            0 4.2156256e-13            0          0.1 0.0090012344 9.8335998e-21  0.029897945 
number of iterations: 23251 
    8000    24.679003      422          422            0 4.2978776e-13            0          0.1 0.0090012588 1.0163834e-20  0.029897904 
number of iterations: 23093 
    8100    24.974389      430          430            0 4.3817345e-13            0          0.1  0.009001283 9.8333912e-21  0.029897864 
number of iterations: 23259 
    8200    25.281344      434          434            0 4.4672275e-13            0          0.1 0.0090013081 1.016377e-20  0.029897822 
number of iterations: 23090 
    8300    25.584178      444          444            0 4.5543886e-13            0          0.1 0.0090013336 9.8333534e-21   0.02989778 
number of iterations: 23280 
    8400    25.888835      453          453            0 4.6432503e-13            0          0.1 0.0090013598 1.0163026e-20  0.029897736 
number of iterations: 23085 
    8500    26.192166      463          463            0 4.7338458e-13            0          0.1 0.0090013863 9.8340468e-21  0.029897692 
number of iterations: 23256 
    8600    26.518731      470          470            0 4.8262089e-13            0          0.1 0.0090014169 1.0163145e-20  0.029897641 
number of iterations: 23089 
    8700     26.83289      478          478            0 4.9203741e-13            0          0.1 0.0090014412 9.8340611e-21    0.0298976 
Loop time of 26.8329 on 32 procs for 8700 steps with 478 atoms

Performance: 280133611.055 tau/day, 324.229 timesteps/s
98.7% CPU use with 32 MPI tasks x no OpenMP threads

MPI task timing breakdown:
Section |  min time  |  avg time  |  max time  |%varavg| %total
---------------------------------------------------------------
Pair    | 0.00042311 | 0.0026085  | 0.0071363  |   3.2 |  0.01
Neigh   | 0.0011124  | 0.00204    | 0.0049674  |   1.8 |  0.01
Comm    | 0.015606   | 0.035004   | 0.056444   |   5.7 |  0.13
Output  | 0.82773    | 0.82827    | 0.82937    |   0.0 |  3.09
Modify  | 25.906     | 25.909     | 25.917     |   0.1 | 96.56
Other   |            | 0.05568    |            |       |  0.21

Nlocal:    14.9375 ave 53 max 0 min
Histogram: 8 7 5 6 1 0 2 2 0 1
Nghost:    7.03125 ave 23 max 0 min
Histogram: 5 5 7 7 3 2 2 0 0 1
Neighs:    17.1562 ave 61 max 0 min
Histogram: 7 8 6 5 1 0 1 2 1 1

Total # of neighbors = 549
Ave neighs/atom = 1.14854
Neighbor list builds = 103
Dangerous builds = 0
Total wall time: 0:00:26
