 NUFEB Simulation

     100 atoms 
     2 atom types 
     4 nutrients 

  0.0e-4   1.00e-04  xlo xhi 
  0.0e-4   1.00e-04  ylo yhi 
  0.0e-4   1.00e-05  zlo zhi 

 Atoms 

     1 1 1.82e-06  370 5.90e-06 4.16e-05 1.91e-06 1.82e-06 
     2 1 1.68e-06  370 5.24e-05 8.71e-06 4.00e-06 1.68e-06 
     3 1 1.79e-06  370 8.23e-05 7.44e-05 6.24e-06 1.79e-06 
     4 1 1.81e-06  370 7.03e-05 7.33e-05 5.62e-06 1.81e-06 
     5 1 1.70e-06  370 5.37e-05 8.97e-05 1.80e-06 1.70e-06 
     6 1 1.50e-06  370 4.44e-05 4.58e-05 7.69e-06 1.50e-06 
     7 1 1.84e-06  370 1.71e-05 3.92e-05 7.04e-06 1.84e-06 
     8 1 1.91e-06  370 3.40e-05 6.87e-05 3.92e-06 1.91e-06 
     9 1 1.67e-06  370 9.31e-05 9.66e-05 1.83e-06 1.67e-06 
     10 1 1.42e-06  370 4.31e-05 4.42e-06 5.21e-06 1.42e-06 
     11 1 1.72e-06  370 6.63e-06 6.82e-05 5.27e-06 1.72e-06 
     12 1 1.53e-06  370 8.50e-05 1.55e-05 6.90e-06 1.53e-06 
     13 1 1.73e-06  370 3.25e-05 7.08e-05 2.34e-06 1.73e-06 
     14 1 1.89e-06  370 3.48e-05 4.72e-05 2.61e-06 1.89e-06 
     15 1 1.83e-06  370 2.49e-05 4.64e-06 4.39e-06 1.83e-06 
     16 1 1.76e-06  370 8.17e-05 5.93e-05 4.10e-06 1.76e-06 
     17 1 1.59e-06  370 2.35e-05 5.99e-06 7.12e-06 1.59e-06 
     18 1 1.91e-06  370 3.03e-05 6.95e-05 3.88e-06 1.91e-06 
     19 1 1.70e-06  370 3.71e-05 9.73e-06 2.56e-06 1.70e-06 
     20 1 1.88e-06  370 1.85e-05 5.16e-05 2.40e-06 1.88e-06 
     21 1 1.77e-06  370 6.83e-05 2.27e-05 7.45e-06 1.77e-06 
     22 1 1.79e-06  370 4.90e-05 2.35e-05 2.95e-06 1.79e-06 
     23 1 1.44e-06  370 7.52e-05 4.91e-05 3.40e-06 1.44e-06 
     24 1 1.84e-06  370 1.15e-05 6.88e-05 7.50e-06 1.84e-06 
     25 1 1.39e-06  370 1.21e-05 9.22e-05 3.68e-06 1.39e-06 
     26 1 1.84e-06  370 8.76e-05 5.89e-06 5.04e-06 1.84e-06 
     27 1 1.87e-06  370 1.59e-05 9.32e-05 5.70e-06 1.87e-06 
     28 1 1.55e-06  370 6.73e-05 5.06e-05 6.82e-06 1.55e-06 
     29 1 1.87e-06  370 9.27e-06 2.92e-05 2.50e-06 1.87e-06 
     30 1 1.87e-06  370 9.52e-05 5.12e-05 2.13e-06 1.87e-06 
     31 1 1.80e-06  370 1.14e-05 6.93e-05 5.53e-06 1.80e-06 
     32 1 1.82e-06  370 9.51e-06 4.64e-05 5.83e-06 1.82e-06 
     33 1 1.60e-06  370 6.53e-05 4.31e-05 5.13e-06 1.60e-06 
     34 1 1.66e-06  370 2.19e-05 9.20e-06 5.69e-06 1.66e-06 
     35 1 1.41e-06  370 3.12e-05 2.70e-05 7.91e-06 1.41e-06 
     36 1 1.72e-06  370 7.62e-06 3.97e-05 3.44e-06 1.72e-06 
     37 1 1.47e-06  370 9.84e-05 5.30e-06 5.86e-06 1.47e-06 
     38 1 1.51e-06  370 2.14e-05 4.35e-05 2.42e-06 1.51e-06 
     39 1 1.63e-06  370 2.34e-05 6.09e-06 4.00e-06 1.63e-06 
     40 1 1.88e-06  370 9.01e-05 6.49e-05 7.01e-06 1.88e-06 
     41 1 1.50e-06  370 6.86e-05 3.04e-05 7.60e-06 1.50e-06 
     42 1 1.50e-06  370 9.67e-05 3.56e-05 2.50e-06 1.50e-06 
     43 1 1.45e-06  370 6.77e-05 4.48e-05 3.11e-06 1.45e-06 
     44 1 1.80e-06  370 4.50e-06 6.98e-05 2.03e-06 1.80e-06 
     45 1 1.88e-06  370 6.36e-06 2.91e-05 7.81e-06 1.88e-06 
     46 1 1.56e-06  370 4.25e-05 2.90e-05 2.86e-06 1.56e-06 
     47 1 1.55e-06  370 5.93e-05 4.53e-05 5.71e-06 1.55e-06 
     48 1 1.50e-06  370 7.04e-05 3.76e-05 5.36e-06 1.50e-06 
     49 1 1.69e-06  370 7.02e-05 6.42e-05 3.57e-06 1.69e-06 
     50 1 1.44e-06  370 4.45e-05 8.11e-05 5.44e-06 1.44e-06 
     51 2 1.13e-06  230 9.13e-05 2.37e-05 2.24e-06 1.13e-06 
     52 2 1.24e-06  230 3.13e-05 9.87e-05 4.03e-06 1.24e-06 
     53 2 1.32e-06  230 4.05e-05 3.60e-05 5.79e-06 1.32e-06 
     54 2 1.31e-06  230 8.39e-05 1.13e-05 8.33e-06 1.31e-06 
     55 2 1.24e-06  230 1.07e-05 9.01e-05 5.00e-06 1.24e-06 
     56 2 1.08e-06  230 3.33e-06 1.73e-05 5.47e-06 1.08e-06 
     57 2 1.09e-06  230 6.11e-05 5.15e-05 4.23e-06 1.09e-06 
     58 2 9.51e-07  230 7.09e-05 4.26e-05 1.40e-06 9.51e-07 
     59 2 1.07e-06  230 6.41e-05 8.07e-05 6.32e-06 1.07e-06 
     60 2 1.20e-06  230 4.53e-05 9.79e-05 4.46e-06 1.20e-06 
     61 2 9.12e-07  230 6.77e-06 2.82e-05 2.82e-06 9.12e-07 
     62 2 1.07e-06  230 1.05e-05 2.10e-05 2.27e-06 1.07e-06 
     63 2 9.50e-07  230 3.29e-05 6.47e-05 4.72e-06 9.50e-07 
     64 2 1.12e-06  230 7.07e-05 5.44e-05 7.98e-06 1.12e-06 
     65 2 1.16e-06  230 4.81e-05 7.59e-06 3.42e-06 1.16e-06 
     66 2 1.20e-06  230 2.27e-05 3.36e-05 8.46e-06 1.20e-06 
     67 2 9.92e-07  230 2.55e-05 1.13e-05 5.80e-06 9.92e-07 
     68 2 1.31e-06  230 9.43e-05 1.79e-05 3.43e-06 1.31e-06 
     69 2 8.95e-07  230 1.83e-05 5.68e-05 1.60e-06 8.95e-07 
     70 2 1.14e-06  230 2.50e-05 3.93e-05 6.01e-06 1.14e-06 
     71 2 1.18e-06  230 3.53e-05 1.77e-05 6.52e-06 1.18e-06 
     72 2 1.38e-06  230 3.60e-05 3.50e-05 3.12e-06 1.38e-06 
     73 2 1.07e-06  230 6.05e-05 4.72e-05 4.61e-06 1.07e-06 
     74 2 1.37e-06  230 6.33e-06 7.32e-05 7.80e-06 1.37e-06 
     75 2 1.14e-06  230 6.51e-06 8.45e-05 8.19e-06 1.14e-06 
     76 2 1.36e-06  230 1.52e-05 7.64e-05 5.73e-06 1.36e-06 
     77 2 1.29e-06  230 5.58e-05 8.10e-05 1.38e-06 1.29e-06 
     78 2 9.59e-07  230 9.51e-06 1.31e-05 8.43e-06 9.59e-07 
     79 2 1.39e-06  230 9.10e-05 8.42e-05 3.83e-06 1.39e-06 
     80 2 1.05e-06  230 8.19e-05 9.15e-05 8.06e-06 1.05e-06 
     81 2 1.05e-06  230 1.47e-05 5.55e-05 4.66e-06 1.05e-06 
     82 2 1.31e-06  230 2.21e-05 2.03e-05 6.08e-06 1.31e-06 
     83 2 1.16e-06  230 3.10e-05 4.34e-05 5.02e-06 1.16e-06 
     84 2 1.14e-06  230 3.18e-05 2.27e-05 8.59e-06 1.14e-06 
     85 2 1.09e-06  230 9.81e-05 9.33e-05 8.30e-06 1.09e-06 
     86 2 1.30e-06  230 4.83e-05 1.82e-06 4.24e-06 1.30e-06 
     87 2 9.64e-07  230 5.37e-06 1.10e-05 3.80e-06 9.64e-07 
     88 2 1.31e-06  230 6.59e-05 7.84e-05 8.12e-06 1.31e-06 
     89 2 1.18e-06  230 2.31e-05 9.34e-05 5.79e-06 1.18e-06 
     90 2 9.33e-07  230 2.67e-05 4.18e-05 5.65e-06 9.33e-07 
     91 2 1.31e-06  230 9.39e-05 4.72e-05 8.36e-06 1.31e-06 
     92 2 1.15e-06  230 8.85e-05 9.76e-05 7.85e-06 1.15e-06 
     93 2 9.01e-07  230 3.34e-05 6.71e-05 4.08e-06 9.01e-07 
     94 2 9.12e-07  230 2.15e-05 8.46e-05 3.99e-06 9.12e-07 
     95 2 1.01e-06  230 2.10e-05 1.85e-05 4.46e-06 1.01e-06 
     96 2 9.41e-07  230 2.91e-05 1.32e-05 4.82e-06 9.41e-07 
     97 2 1.15e-06  230 7.43e-05 3.34e-06 7.85e-06 1.15e-06 
     98 2 1.37e-06  230 8.82e-05 3.73e-05 5.68e-06 1.37e-06 
     99 2 1.20e-06  230 8.29e-05 3.69e-05 7.06e-06 1.20e-06 
     100 2 1.38e-06  230 1.20e-05 3.85e-05 3.50e-06 1.38e-06 

 Nutrients 

     1 sub g nn nn nn 1.00e-01 1.00e-01 
     2 o2 l nn nn nd 9.00e-03 9.00e-03 
     3 suc l nn nn nn 3.42e-20 3.42e-20 
     4 co2 l nn nn nd 2.99e-02 2.99e-02 

 Type Name 

     1 cyano  
     2 ecw  

 Diffusion Coeffs 

     sub 0 
     o2 2.3e-09 
     suc 5.2e-10 
     co2 1.9e-09 

 Growth Rate 

     cyano 1.67e-05 
     ecw 2e-06 

 Ks 

     cyano 0.00035 0.0002 0.01 0.000138 
     ecw 0 0.001 3.6 0.05 

 Yield 

     cyano 0.55 
     ecw 0.43 

 Maintenance 

     cyano 0 
     ecw 9.5e-07 

 Decay 

     cyano 0 
     ecw 0 



