LAMMPS (20 Nov 2019)
Reading data file ...
  orthogonal box = (0 0 0) to (0.0001 0.0001 5e-05)
  2 by 2 by 2 MPI processor grid
  reading atoms ...
  50 atoms
  4 nutrients
Lattice spacing in x,y,z = 100 100 100
50 atoms in group CYANO
0 atoms in group ECW
Model is defined as a closed system. 
Neighbor list info ...
  update every 1 steps, delay 0 steps, check yes
  max neighbors/atom: 5000, page size: 100000
  master list distance cutoff = 2.43e-06
  ghost atom cutoff = 2.43e-06
  binsize = 1.215e-06, bins = 83 83 42
  1 neighbor lists, perpetual/occasional/extra = 1 0 0
  (1) pair gran/hooke/history, perpetual
      attributes: half, newton off, size, history
      pair build: half/size/bin/newtoff
      stencil: half/bin/3d/newtoff
      bin: standard
Setting up Verlet run ...
  Unit style    : lj
  Current step  : 0
  Time step     : 10
Per MPI rank memory allocation (min/avg/max) = 6.973 | 11.61 | 12.35 Mbytes
Step CPU Atoms c_myNtypes[1] c_myNtypes[2] c_myMass[1] c_myMass[2] c_myCon[1] c_myCon[2] c_myCon[3] c_myCon[4] 
       0            0       50           50            0 4.5388992e-14            0          0.1        0.009     3.42e-20       0.0299 
number of iterations: 328348 
     100     5.267567       50           50            0 4.6255313e-14            0          0.1 0.0090021577 0.0026987521  0.029896408 
number of iterations: 22598 
     200    5.8656414       50           50            0 4.7138169e-14            0          0.1 0.0090021989 0.0053633095  0.029896339 
number of iterations: 22697 
     300    6.4334558       50           50            0 4.8037875e-14            0          0.1 0.0090022409 0.0080780783  0.029896269 
number of iterations: 22797 
     400    7.0041446       51           51            0 4.8954754e-14            0          0.1 0.0090022836  0.010844404  0.029896198 
number of iterations: 22896 
     500    7.5774947       52           52            0 4.9889133e-14            0          0.1 0.0090023272  0.013663423  0.029896126 
number of iterations: 23010 
     600    8.1880693       54           54            0 5.0841346e-14            0          0.1 0.0090023717  0.016536188  0.029896052 
number of iterations: 23096 
     700    8.7475153       54           54            0 5.1811733e-14            0          0.1 0.0090024169  0.019463745  0.029895976 
number of iterations: 23195 
     800    9.3485158       55           55            0 5.2800642e-14            0          0.1 0.0090024631  0.022447146  0.029895899 
number of iterations: 23295 
     900    10.010372       55           55            0 5.3808426e-14            0          0.1 0.0090025101  0.025487464  0.029895821 
number of iterations: 23395 
    1000    10.611691       55           55            0 5.4835444e-14            0          0.1  0.009002558  0.028585789  0.029895741 
number of iterations: 23495 
    1100    11.223206       56           56            0 5.5882065e-14            0          0.1 0.0090026068  0.031743232   0.02989566 
number of iterations: 23595 
    1200    11.812824       57           57            0 5.6948663e-14            0          0.1 0.0090026566  0.034960923  0.029895577 
number of iterations: 23682 
    1300    12.411033       59           59            0 5.8035618e-14            0          0.1 0.0090027073   0.03824002  0.029895493 
number of iterations: 23794 
    1400    13.049693       61           61            0 5.9143319e-14            0          0.1  0.009002759   0.04158169  0.029895407 
number of iterations: 23894 
    1500     13.64906       63           63            0 6.0272163e-14            0          0.1 0.0090028116  0.044987131  0.029895319 
number of iterations: 23994 
    1600    14.281715       64           64            0 6.1422552e-14            0          0.1 0.0090028653  0.048457558   0.02989523 
number of iterations: 24094 
    1700    14.911136       65           65            0 6.2594898e-14            0          0.1   0.00900292  0.051994216  0.029895139 
number of iterations: 24194 
    1800    15.577629       65           65            0 6.378962e-14            0          0.1 0.0090029757   0.05559837  0.029895046 
number of iterations: 24313 
    1900    16.242381       69           69            0 6.5007146e-14            0          0.1 0.0090030325  0.059271307  0.029894951 
number of iterations: 23637 
    2000    16.886891       70           70            0 6.624791e-14            0          0.1 0.0090030839  0.063014345  0.029894866 
number of iterations: 24481 
    2100    17.507826       70           70            0 6.7512355e-14            0          0.1 0.0090031428  0.066828818  0.029894768 
number of iterations: 24582 
    2200    18.178509       70           70            0 6.8800935e-14            0          0.1 0.0090032028   0.07071609  0.029894668 
number of iterations: 24682 
    2300    18.796586       71           71            0 7.0114109e-14            0          0.1 0.0090032639  0.074677552  0.029894566 
number of iterations: 24782 
    2400    19.422187       71           71            0 7.1452347e-14            0          0.1 0.0090033262   0.07871462  0.029894462 
number of iterations: 24882 
    2500    20.036358       71           71            0 7.2816128e-14            0          0.1 0.0090033897  0.082828737  0.029894356 
number of iterations: 25087 
    2600    20.677163       73           73            0 7.4205938e-14            0          0.1 0.0090034557  0.087021376  0.029894246 
number of iterations: 23004 
    2700    21.254442       74           74            0 7.5622275e-14            0          0.1 0.0090035024  0.091294029  0.029894169 
number of iterations: 25151 
    2800    21.860338       74           74            0 7.7065645e-14            0          0.1 0.0090035693  0.095648228  0.029894057 
number of iterations: 25252 
    2900    22.536866       75           75            0 7.8536564e-14            0          0.1 0.0090036374   0.10008553  0.029893944 
number of iterations: 25344 
    3000    23.280337       78           78            0 8.0035558e-14            0          0.1 0.0090037068   0.10460752  0.029893828 
number of iterations: 25475 
    3100     23.92235       80           80            0 8.1563162e-14            0          0.1 0.0090037776   0.10921581  0.029893711 
number of iterations: 26281 
    3200     24.58771       81           81            0 8.3119923e-14            0          0.1 0.0090038583   0.11391205  0.029893576 
number of iterations: 25669 
    3300    25.272422       81           81            0 8.4706397e-14            0          0.1  0.009003932   0.11869793  0.029893453 
number of iterations: 25769 
    3400    25.948104       82           82            0 8.6323152e-14            0          0.1  0.009004007   0.12357514  0.029893328 
number of iterations: 26921 
    3500    26.638672       84           84            0 8.7970765e-14            0          0.1 0.0090041007   0.12854545  0.029893172 
number of iterations: 26907 
    3600    27.317251       87           87            0 8.9649825e-14            0          0.1 0.0090041918   0.13361061  0.029893021 
number of iterations: 26111 
    3700    27.982238       89           89            0 9.1360932e-14            0          0.1 0.0090042718   0.13877244  0.029892888 
number of iterations: 26207 
    3800    28.658443       90           90            0 9.3104698e-14            0          0.1 0.0090043534   0.14403279  0.029892752 
number of iterations: 26312 
    3900    29.306436       91           91            0 9.4881747e-14            0          0.1 0.0090044365   0.14939353  0.029892613 
number of iterations: 26413 
    4000    29.958869       92           92            0 9.6692714e-14            0          0.1 0.0090045211   0.15485659  0.029892472 
number of iterations: 26513 
    4100    30.631471       92           92            0 9.8538246e-14            0          0.1 0.0090046074   0.16042392  0.029892329 
number of iterations: 26614 
    4200    31.338981       93           93            0  1.00419e-13            0          0.1 0.0090046954   0.16609751  0.029892182 
number of iterations: 26715 
    4300     32.03569       96           96            0 1.0233566e-13            0          0.1  0.009004785   0.17187938  0.029892033 
number of iterations: 26819 
    4400    32.737248       98           98            0 1.0428889e-13            0          0.1 0.0090048763    0.1777716  0.029891881 
number of iterations: 26916 
    4500    33.420692      100          100            0 1.0627941e-13            0          0.1 0.0090049694   0.18377627  0.029891726 
number of iterations: 27017 
    4600    34.096519      103          103            0 1.0830792e-13            0          0.1 0.0090050643   0.18989555  0.029891568 
number of iterations: 27114 
    4700    34.777431      106          106            0 1.1037514e-13            0          0.1 0.0090051609   0.19613165  0.029891407 
number of iterations: 27219 
    4800    35.459416      107          107            0 1.1248182e-13            0          0.1 0.0090052595   0.20248677  0.029891243 
number of iterations: 27225 
    4900    36.119891      114          114            0 1.1462872e-13            0          0.1 0.0090053571   0.20896317   0.02989108 
number of iterations: 27418 
    5000    36.787368      120          120            0 1.1681658e-13            0          0.1 0.0090054594   0.21556318   0.02989091 
number of iterations: 27519 
    5100     37.45085      123          123            0 1.1904621e-13            0          0.1 0.0090055636   0.22228915  0.029890737 
number of iterations: 27620 
    5200    38.165144      124          124            0 1.2131839e-13            0          0.1 0.0090056698    0.2291435   0.02989056 
number of iterations: 27721 
    5300    38.899363      125          125            0 1.2363394e-13            0          0.1  0.009005778   0.23612868   0.02989038 
number of iterations: 27423 
    5400    39.574692      126          126            0 1.2599369e-13            0          0.1 0.0090058817   0.24324717  0.029890207 
number of iterations: 27916 
    5500    40.239537      128          128            0 1.2839848e-13            0          0.1  0.009005994   0.25050153   0.02989002 
number of iterations: 28012 
    5600    40.960472      131          131            0 1.3084916e-13            0          0.1 0.0090061084   0.25789435   0.02988983 
number of iterations: 28118 
    5700    41.693395      132          132            0 1.3334662e-13            0          0.1  0.009006225   0.26542826  0.029889635 
number of iterations: 28219 
    5800    42.396152      135          135            0 1.3589175e-13            0          0.1 0.0090063438   0.27310597  0.029889438 
number of iterations: 28320 
    5900    43.168906      136          136            0 1.3848545e-13            0          0.1 0.0090064649   0.28093022  0.029889236 
number of iterations: 28421 
    6000    43.882772      138          138            0 1.4112866e-13            0          0.1 0.0090065883    0.2889038  0.029889031 
number of iterations: 28164 
    6100    44.582447      142          142            0 1.4382232e-13            0          0.1 0.0090067073   0.29702957  0.029888832 
number of iterations: 28934 
    6200    45.299601      144          144            0 1.4656739e-13            0          0.1 0.0090068416   0.30531042  0.029888609 
number of iterations: 28297 
    6300    46.025227      151          151            0 1.4936486e-13            0          0.1 0.0090069641   0.31374933  0.029888405 
number of iterations: 28814 
    6400    46.768797      155          155            0 1.5221572e-13            0          0.1 0.0090070971   0.32234931  0.029888183 
number of iterations: 28793 
    6500    47.485327      158          158            0 1.5512099e-13            0          0.1 0.0090072273   0.33111342  0.029887966 
number of iterations: 29535 
    6600    48.223668      159          159            0 1.5808171e-13            0          0.1 0.0090073777   0.34004481  0.029887716 
number of iterations: 29128 
    6700    48.968519      160          160            0 1.6109895e-13            0          0.1 0.0090075185   0.34914667  0.029887482 
number of iterations: 29233 
    6800    49.683708      163          163            0 1.6417377e-13            0          0.1  0.009007662   0.35842222  0.029887243 
number of iterations: 29331 
    6900    50.387491      164          164            0 1.6730728e-13            0          0.1 0.0090078083   0.36787481  0.029886999 
number of iterations: 29432 
    7000    51.187235      168          168            0 1.705006e-13            0          0.1 0.0090079573   0.37750781  0.029886751 
number of iterations: 29533 
    7100    51.919922      168          168            0 1.7375487e-13            0          0.1 0.0090081092   0.38732467  0.029886498 
number of iterations: 29261 
    7200     52.67915      169          169            0 1.7707124e-13            0          0.1 0.0090082547    0.3973289  0.029886256 
number of iterations: 29729 
    7300    53.455546      172          172            0 1.8045092e-13            0          0.1 0.0090084123   0.40752408  0.029885993 
number of iterations: 29830 
    7400    54.180733      175          175            0 1.8389511e-13            0          0.1 0.0090085728   0.41791385  0.029885726 
number of iterations: 29787 
    7500    54.922912      178          178            0 1.8740503e-13            0          0.1 0.0090087331   0.42850193  0.029885459 
number of iterations: 29912 
    7600    55.677516      181          181            0 1.9098194e-13            0          0.1 0.0090088944   0.43929208  0.029885191 
number of iterations: 30129 
    7700    56.391313      186          186            0 1.9462712e-13            0          0.1 0.0090090641   0.45028817  0.029884908 
number of iterations: 30395 
    7800    57.112497      191          191            0 1.9834188e-13            0          0.1 0.0090092413   0.46149413  0.029884613 
number of iterations: 30712 
    7900    57.945586      197          197            0 2.0212754e-13            0          0.1 0.0090094291   0.47291397    0.0298843 
number of iterations: 30148 
    8000    58.773422      203          203            0 2.0598545e-13            0          0.1 0.0090096011   0.48455178  0.029884014 
number of iterations: 30542 
    8100    59.540275      207          207            0  2.09917e-13            0          0.1 0.0090097843    0.4964117  0.029883709 
number of iterations: 30641 
    8200    60.295305      209          209            0 2.1392359e-13            0          0.1 0.0090099711   0.50849799  0.029883398 
number of iterations: 30906 
    8300    61.032466      213          213            0 2.1800665e-13            0          0.1 0.0090101664   0.52081494  0.029883073 
number of iterations: 30848 
    8400    61.777782      217          217            0 2.2216763e-13            0          0.1 0.0090103604   0.53336697   0.02988275 
number of iterations: 30948 
    8500    62.530226      222          222            0 2.2640804e-13            0          0.1 0.0090105581   0.54615857   0.02988242 
number of iterations: 31050 
    8600    63.292092      226          226            0 2.3072939e-13            0          0.1 0.0090107597   0.55919431  0.029882085 
number of iterations: 31151 
    8700     64.02446      228          228            0 2.3513321e-13            0          0.1  0.009010965   0.57247886  0.029881743 
number of iterations: 31053 
    8800    64.824245      234          234            0 2.3962108e-13            0          0.1  0.009011168   0.58601696  0.029881405 
number of iterations: 31353 
    8900    65.616188      238          238            0 2.4419461e-13            0          0.1 0.0090113812   0.59981344   0.02988105 
number of iterations: 31452 
    9000    66.381637      243          243            0 2.4885544e-13            0          0.1 0.0090115984   0.61387324  0.029880688 
number of iterations: 31554 
    9100    67.156631      247          247            0 2.5360522e-13            0          0.1 0.0090118198    0.6282014   0.02988032 
number of iterations: 32025 
    9200    68.015136      253          253            0 2.5844566e-13            0          0.1 0.0090120619   0.64280303  0.029879916 
number of iterations: 31763 
    9300    68.914115      258          258            0 2.6337849e-13            0          0.1 0.0090122921   0.65768336  0.029879533 
number of iterations: 31865 
    9400     69.81962      264          264            0 2.6840547e-13            0          0.1 0.0090125267    0.6728477  0.029879142 
number of iterations: 31964 
    9500    70.603151      272          272            0 2.7352839e-13            0          0.1 0.0090127658   0.68830149  0.029878744 
number of iterations: 32070 
    9600    71.380695      283          283            0 2.7874909e-13            0          0.1 0.0090130102   0.70405021  0.029878337 
number of iterations: 32169 
    9700     72.15622      285          285            0 2.8406944e-13            0          0.1 0.0090132585   0.72009952  0.029877924 
number of iterations: 31987 
    9800    72.933109      292          292            0 2.8949133e-13            0          0.1    0.0090135   0.73645515  0.029877522 
number of iterations: 32367 
    9900    73.725265      297          297            0 2.9501671e-13            0          0.1 0.0090137577   0.75312294  0.029877093 
number of iterations: 32682 
   10000    74.494206      300          300            0 3.0064755e-13            0          0.1 0.0090140289   0.77010884  0.029876641 
Loop time of 74.4943 on 8 procs for 10000 steps with 300 atoms

Performance: 115982098.061 tau/day, 134.239 timesteps/s
87.9% CPU use with 8 MPI tasks x no OpenMP threads

MPI task timing breakdown:
Section |  min time  |  avg time  |  max time  |%varavg| %total
---------------------------------------------------------------
Pair    | 0.01004    | 0.01192    | 0.014628   |   1.2 |  0.02
Neigh   | 0.0076203  | 0.0088552  | 0.010216   |   1.1 |  0.01
Comm    | 0.052551   | 0.059131   | 0.062375   |   1.4 |  0.08
Output  | 13.508     | 13.508     | 13.511     |   0.0 | 18.13
Modify  | 60.834     | 60.836     | 60.838     |   0.0 | 81.67
Other   |            | 0.07       |            |       |  0.09

Nlocal:    37.5 ave 64 max 19 min
Histogram: 1 1 0 2 1 2 0 0 0 1
Nghost:    11 ave 17 max 6 min
Histogram: 3 0 1 0 1 0 0 1 0 2
Neighs:    47.5 ave 78 max 25 min
Histogram: 1 1 1 1 0 3 0 0 0 1

Total # of neighbors = 380
Ave neighs/atom = 1.26667
Neighbor list builds = 115
Dangerous builds = 0
Total wall time: 0:01:14
