ITEM: TIMESTEP
0
ITEM: NUMBER OF ATOMS
50
ITEM: BOX BOUNDS ff ff ff
0.0000000000000000e+00 1.0000000000000000e-04
0.0000000000000000e+00 1.0000000000000000e-04
0.0000000000000000e+00 5.0000000000000002e-05
ITEM: ATOMS id type diameter x y z 
10 1 1.48e-06 1.62e-05 3.79e-05 5.63e-06 
45 1 1.58e-06 1.85e-05 3.63e-05 6.91e-06 
3 1 1.63e-06 2.76e-05 4.01e-05 8.99e-06 
22 1 1.45e-06 2.62e-05 3.96e-05 1.02e-05 
35 1 1.37e-06 1.96e-05 4.5e-05 1.14e-05 
46 1 1.82e-06 9.98e-06 4.68e-05 1.65e-05 
24 1 1.68e-06 1.11e-05 2.85e-05 1.97e-05 
30 1 1.75e-06 7.71e-06 1.82e-05 2.52e-05 
16 1 1.81e-06 3.09e-05 2.75e-05 2.54e-05 
38 1 1.65e-06 1.57e-05 3.71e-05 2.58e-05 
2 1 1.58e-06 5.64e-06 1.02e-05 2.9e-05 
15 1 1.92e-06 2.83e-05 6.63e-06 2.91e-05 
9 1 1.56e-06 3.79e-05 3.94e-05 2.92e-05 
11 1 1.47e-06 3.01e-05 4.54e-05 3.59e-05 
7 1 1.64e-06 1.14e-05 6.02e-06 3.7e-05 
4 1 1.9e-06 4.16e-05 2e-05 3.83e-05 
21 1 1.49e-06 1.43e-05 1.13e-05 4.71e-05 
27 1 1.4e-06 1.8e-05 5.11e-05 3.43e-06 
36 1 1.49e-06 2.05e-05 7.89e-05 5.97e-06 
28 1 1.9e-06 3.74e-05 7.34e-05 6.4e-06 
25 1 1.81e-06 1.14e-05 7.29e-05 8.15e-06 
39 1 1.45e-06 5.63e-06 6.78e-05 1.58e-05 
41 1 1.71e-06 2.15e-05 5.41e-05 1.78e-05 
42 1 1.74e-06 4.09e-05 8.69e-05 1.97e-05 
34 1 1.62e-06 2.34e-05 8.88e-05 2e-05 
12 1 1.76e-06 4e-05 5.85e-05 2.1e-05 
18 1 1.6e-06 4.45e-06 5.94e-05 2.25e-05 
37 1 1.93e-06 3.98e-05 6.34e-05 2.28e-05 
43 1 1.8e-06 4.1e-05 6.2e-05 2.65e-05 
31 1 1.54e-06 2.86e-05 8.79e-05 3.13e-05 
20 1 1.83e-06 7.44e-05 3.73e-05 6.71e-06 
40 1 1.45e-06 5.12e-05 8.67e-06 1.12e-05 
13 1 1.76e-06 7.71e-05 2.09e-05 1.4e-05 
8 1 1.45e-06 9.33e-05 4.2e-05 2.01e-05 
17 1 1.85e-06 7.83e-05 4.78e-05 2.08e-05 
50 1 1.82e-06 8.1e-05 8.24e-06 2.16e-05 
23 1 1.76e-06 9.4e-05 1.87e-05 2.26e-05 
33 1 1.78e-06 7.19e-05 2.8e-05 3.5e-05 
19 1 1.64e-06 7e-05 9.23e-06 3.51e-05 
6 1 1.79e-06 8.45e-05 4.23e-06 3.8e-05 
5 1 1.88e-06 6.25e-05 7.22e-05 8.16e-06 
29 1 1.44e-06 9.84e-05 5.71e-05 8.6e-06 
14 1 1.68e-06 6.45e-05 7.6e-05 1.68e-05 
44 1 1.38e-06 5.76e-05 5.88e-05 2.09e-05 
26 1 1.67e-06 5.27e-05 8.99e-05 3.58e-05 
49 1 1.57e-06 9.42e-05 9.49e-05 3.65e-05 
48 1 1.59e-06 6.81e-05 5.55e-05 4.04e-05 
32 1 1.8e-06 5.27e-05 5.24e-05 4.13e-05 
47 1 1.64e-06 6.57e-05 9.34e-05 4.19e-05 
1 1 1.63e-06 7.85e-05 5.86e-05 4.61e-05 
ITEM: TIMESTEP
100
ITEM: NUMBER OF ATOMS
50
ITEM: BOX BOUNDS ff ff ff
0.0000000000000000e+00 1.0000000000000000e-04
0.0000000000000000e+00 1.0000000000000000e-04
0.0000000000000000e+00 5.0000000000000002e-05
ITEM: ATOMS id type diameter x y z 
10 1 1.48936e-06 1.62e-05 3.79e-05 5.63e-06 
45 1 1.58999e-06 1.85e-05 3.63e-05 6.91e-06 
3 1 1.64031e-06 2.76e-05 4.01e-05 8.99e-06 
22 1 1.45917e-06 2.62e-05 3.96e-05 1.02e-05 
35 1 1.37866e-06 1.96e-05 4.5e-05 1.14e-05 
46 1 1.83151e-06 9.98e-06 4.68e-05 1.65e-05 
24 1 1.69062e-06 1.11e-05 2.85e-05 1.97e-05 
30 1 1.76106e-06 7.71e-06 1.82e-05 2.52e-05 
16 1 1.82144e-06 3.09e-05 2.75e-05 2.54e-05 
38 1 1.66043e-06 1.57e-05 3.71e-05 2.58e-05 
2 1 1.58999e-06 5.64e-06 1.02e-05 2.9e-05 
15 1 1.93214e-06 2.83e-05 6.63e-06 2.91e-05 
9 1 1.56986e-06 3.79e-05 3.94e-05 2.92e-05 
11 1 1.47929e-06 3.01e-05 4.54e-05 3.59e-05 
7 1 1.65037e-06 1.14e-05 6.02e-06 3.7e-05 
4 1 1.91201e-06 4.16e-05 2e-05 3.83e-05 
21 1 1.49942e-06 1.43e-05 1.13e-05 4.71e-05 
27 1 1.40885e-06 1.8e-05 5.11e-05 3.43e-06 
36 1 1.49942e-06 2.05e-05 7.89e-05 5.97e-06 
28 1 1.91201e-06 3.74e-05 7.34e-05 6.4e-06 
25 1 1.82144e-06 1.14e-05 7.29e-05 8.15e-06 
39 1 1.45917e-06 5.63e-06 6.78e-05 1.58e-05 
41 1 1.72081e-06 2.15e-05 5.41e-05 1.78e-05 
42 1 1.751e-06 4.09e-05 8.69e-05 1.97e-05 
34 1 1.63024e-06 2.34e-05 8.88e-05 2e-05 
12 1 1.77113e-06 4e-05 5.85e-05 2.1e-05 
18 1 1.61012e-06 4.45e-06 5.94e-05 2.25e-05 
37 1 1.9422e-06 3.98e-05 6.34e-05 2.28e-05 
43 1 1.81138e-06 4.1e-05 6.2e-05 2.65e-05 
31 1 1.54974e-06 2.86e-05 8.79e-05 3.13e-05 
20 1 1.84157e-06 7.44e-05 3.73e-05 6.71e-06 
40 1 1.45917e-06 5.12e-05 8.67e-06 1.12e-05 
13 1 1.77113e-06 7.71e-05 2.09e-05 1.4e-05 
8 1 1.45917e-06 9.33e-05 4.2e-05 2.01e-05 
17 1 1.8617e-06 7.83e-05 4.78e-05 2.08e-05 
50 1 1.83151e-06 8.1e-05 8.24e-06 2.16e-05 
23 1 1.77113e-06 9.4e-05 1.87e-05 2.26e-05 
33 1 1.79125e-06 7.19e-05 2.8e-05 3.5e-05 
19 1 1.65037e-06 7e-05 9.23e-06 3.51e-05 
6 1 1.80132e-06 8.45e-05 4.23e-06 3.8e-05 
5 1 1.89189e-06 6.25e-05 7.22e-05 8.16e-06 
29 1 1.4491e-06 9.84e-05 5.71e-05 8.6e-06 
14 1 1.69062e-06 6.45e-05 7.6e-05 1.68e-05 
44 1 1.38872e-06 5.76e-05 5.88e-05 2.09e-05 
26 1 1.68056e-06 5.27e-05 8.99e-05 3.58e-05 
49 1 1.57993e-06 9.42e-05 9.49e-05 3.65e-05 
48 1 1.60005e-06 6.81e-05 5.55e-05 4.04e-05 
32 1 1.81138e-06 5.27e-05 5.24e-05 4.13e-05 
47 1 1.65037e-06 6.57e-05 9.34e-05 4.19e-05 
1 1 1.64031e-06 7.85e-05 5.86e-05 4.61e-05 
ITEM: TIMESTEP
200
ITEM: NUMBER OF ATOMS
50
ITEM: BOX BOUNDS ff ff ff
0.0000000000000000e+00 1.0000000000000000e-04
0.0000000000000000e+00 1.0000000000000000e-04
0.0000000000000000e+00 5.0000000000000002e-05
ITEM: ATOMS id type diameter x y z 
10 1 1.49877e-06 1.62e-05 3.79e-05 5.63e-06 
45 1 1.60004e-06 1.85e-05 3.63e-05 6.91e-06 
3 1 1.65068e-06 2.76e-05 4.01e-05 8.99e-06 
22 1 1.46839e-06 2.62e-05 3.96e-05 1.02e-05 
35 1 1.38738e-06 1.96e-05 4.5e-05 1.14e-05 
46 1 1.84309e-06 9.98e-06 4.68e-05 1.65e-05 
24 1 1.70131e-06 1.11e-05 2.85e-05 1.97e-05 
30 1 1.7722e-06 7.71e-06 1.82e-05 2.52e-05 
16 1 1.83296e-06 3.09e-05 2.75e-05 2.54e-05 
38 1 1.67093e-06 1.57e-05 3.71e-05 2.58e-05 
2 1 1.60004e-06 5.64e-06 1.02e-05 2.9e-05 
15 1 1.94435e-06 2.83e-05 6.63e-06 2.91e-05 
9 1 1.57979e-06 3.79e-05 3.94e-05 2.92e-05 
11 1 1.48865e-06 3.01e-05 4.54e-05 3.59e-05 
7 1 1.6608e-06 1.14e-05 6.02e-06 3.7e-05 
4 1 1.9241e-06 4.16e-05 2e-05 3.83e-05 
21 1 1.5089e-06 1.43e-05 1.13e-05 4.71e-05 
27 1 1.41776e-06 1.8e-05 5.11e-05 3.43e-06 
36 1 1.5089e-06 2.05e-05 7.89e-05 5.97e-06 
28 1 1.9241e-06 3.74e-05 7.34e-05 6.4e-06 
25 1 1.83296e-06 1.14e-05 7.29e-05 8.15e-06 
39 1 1.46839e-06 5.63e-06 6.78e-05 1.58e-05 
41 1 1.73169e-06 2.15e-05 5.41e-05 1.78e-05 
42 1 1.76207e-06 4.09e-05 8.69e-05 1.97e-05 
34 1 1.64055e-06 2.34e-05 8.88e-05 2e-05 
12 1 1.78232e-06 4e-05 5.85e-05 2.1e-05 
18 1 1.62029e-06 4.45e-06 5.94e-05 2.25e-05 
37 1 1.95448e-06 3.98e-05 6.34e-05 2.28e-05 
43 1 1.82283e-06 4.1e-05 6.2e-05 2.65e-05 
31 1 1.55953e-06 2.86e-05 8.79e-05 3.13e-05 
20 1 1.85321e-06 7.44e-05 3.73e-05 6.71e-06 
40 1 1.46839e-06 5.12e-05 8.67e-06 1.12e-05 
13 1 1.78232e-06 7.71e-05 2.09e-05 1.4e-05 
8 1 1.46839e-06 9.33e-05 4.2e-05 2.01e-05 
17 1 1.87347e-06 7.83e-05 4.78e-05 2.08e-05 
50 1 1.84309e-06 8.1e-05 8.24e-06 2.16e-05 
23 1 1.78232e-06 9.4e-05 1.87e-05 2.26e-05 
33 1 1.80258e-06 7.19e-05 2.8e-05 3.5e-05 
19 1 1.6608e-06 7e-05 9.23e-06 3.51e-05 
6 1 1.8127e-06 8.45e-05 4.23e-06 3.8e-05 
5 1 1.90385e-06 6.25e-05 7.22e-05 8.16e-06 
29 1 1.45827e-06 9.84e-05 5.71e-05 8.6e-06 
14 1 1.70131e-06 6.45e-05 7.6e-05 1.68e-05 
44 1 1.3975e-06 5.76e-05 5.88e-05 2.09e-05 
26 1 1.69118e-06 5.27e-05 8.99e-05 3.58e-05 
49 1 1.58991e-06 9.42e-05 9.49e-05 3.65e-05 
48 1 1.61017e-06 6.81e-05 5.55e-05 4.04e-05 
32 1 1.82283e-06 5.27e-05 5.24e-05 4.13e-05 
47 1 1.6608e-06 6.57e-05 9.34e-05 4.19e-05 
1 1 1.65068e-06 7.85e-05 5.86e-05 4.61e-05 
ITEM: TIMESTEP
300
ITEM: NUMBER OF ATOMS
50
ITEM: BOX BOUNDS ff ff ff
0.0000000000000000e+00 1.0000000000000000e-04
0.0000000000000000e+00 1.0000000000000000e-04
0.0000000000000000e+00 5.0000000000000002e-05
ITEM: ATOMS id type diameter x y z 
10 1 1.50825e-06 1.62e-05 3.79e-05 5.63e-06 
45 1 1.61016e-06 1.85e-05 3.63e-05 6.91e-06 
3 1 1.66111e-06 2.76e-05 4.01e-05 8.99e-06 
22 1 1.47768e-06 2.62e-05 3.96e-05 1.02e-05 
35 1 1.39615e-06 1.96e-05 4.5e-05 1.14e-05 
46 1 1.85474e-06 9.98e-06 4.68e-05 1.65e-05 
24 1 1.71207e-06 1.11e-05 2.85e-05 1.97e-05 
30 1 1.7834e-06 7.71e-06 1.82e-05 2.52e-05 
16 1 1.84455e-06 3.09e-05 2.75e-05 2.54e-05 
38 1 1.68149e-06 1.57e-05 3.71e-05 2.58e-05 
2 1 1.61016e-06 5.64e-06 1.02e-05 2.9e-05 
15 1 1.95665e-06 2.83e-05 6.63e-06 2.91e-05 
9 1 1.58978e-06 3.79e-05 3.94e-05 2.92e-05 
11 1 1.49806e-06 3.01e-05 4.54e-05 3.59e-05 
7 1 1.6713e-06 1.14e-05 6.02e-06 3.7e-05 
4 1 1.93626e-06 4.16e-05 2e-05 3.83e-05 
21 1 1.51844e-06 1.43e-05 1.13e-05 4.71e-05 
27 1 1.42672e-06 1.8e-05 5.11e-05 3.43e-06 
36 1 1.51844e-06 2.05e-05 7.89e-05 5.97e-06 
28 1 1.93626e-06 3.74e-05 7.34e-05 6.4e-06 
25 1 1.84455e-06 1.14e-05 7.29e-05 8.15e-06 
39 1 1.47768e-06 5.63e-06 6.78e-05 1.58e-05 
41 1 1.74264e-06 2.15e-05 5.41e-05 1.78e-05 
42 1 1.77321e-06 4.09e-05 8.69e-05 1.97e-05 
34 1 1.65092e-06 2.34e-05 8.88e-05 2e-05 
12 1 1.79359e-06 4e-05 5.85e-05 2.1e-05 
18 1 1.63054e-06 4.45e-06 5.94e-05 2.25e-05 
37 1 1.96684e-06 3.98e-05 6.34e-05 2.28e-05 
43 1 1.83436e-06 4.1e-05 6.2e-05 2.65e-05 
31 1 1.56939e-06 2.86e-05 8.79e-05 3.13e-05 
20 1 1.86493e-06 7.44e-05 3.73e-05 6.71e-06 
40 1 1.47768e-06 5.12e-05 8.67e-06 1.12e-05 
13 1 1.79359e-06 7.71e-05 2.09e-05 1.4e-05 
8 1 1.47768e-06 9.33e-05 4.2e-05 2.01e-05 
17 1 1.88531e-06 7.83e-05 4.78e-05 2.08e-05 
50 1 1.85474e-06 8.1e-05 8.24e-06 2.16e-05 
23 1 1.79359e-06 9.4e-05 1.87e-05 2.26e-05 
33 1 1.81397e-06 7.19e-05 2.8e-05 3.5e-05 
19 1 1.6713e-06 7e-05 9.23e-06 3.51e-05 
6 1 1.82416e-06 8.45e-05 4.23e-06 3.8e-05 
5 1 1.91588e-06 6.25e-05 7.22e-05 8.16e-06 
29 1 1.46748e-06 9.84e-05 5.71e-05 8.6e-06 
14 1 1.71207e-06 6.45e-05 7.6e-05 1.68e-05 
44 1 1.40634e-06 5.76e-05 5.88e-05 2.09e-05 
26 1 1.70187e-06 5.27e-05 8.99e-05 3.58e-05 
49 1 1.59997e-06 9.42e-05 9.49e-05 3.65e-05 
48 1 1.62035e-06 6.81e-05 5.55e-05 4.04e-05 
32 1 1.83436e-06 5.27e-05 5.24e-05 4.13e-05 
47 1 1.6713e-06 6.57e-05 9.34e-05 4.19e-05 
1 1 1.66111e-06 7.85e-05 5.86e-05 4.61e-05 
ITEM: TIMESTEP
400
ITEM: NUMBER OF ATOMS
51
ITEM: BOX BOUNDS ff ff ff
0.0000000000000000e+00 1.0000000000000000e-04
0.0000000000000000e+00 1.0000000000000000e-04
0.0000000000000000e+00 5.0000000000000002e-05
ITEM: ATOMS id type diameter x y z 
10 1 1.51778e-06 1.62e-05 3.79e-05 5.63e-06 
45 1 1.62034e-06 1.85e-05 3.63e-05 6.91e-06 
3 1 1.67161e-06 2.76e-05 4.01e-05 8.99e-06 
22 1 1.48702e-06 2.62e-05 3.96e-05 1.02e-05 
35 1 1.40498e-06 1.96e-05 4.5e-05 1.14e-05 
46 1 1.86646e-06 9.98e-06 4.68e-05 1.65e-05 
24 1 1.72289e-06 1.11e-05 2.85e-05 1.97e-05 
30 1 1.79468e-06 7.71e-06 1.82e-05 2.52e-05 
16 1 1.85621e-06 3.09e-05 2.75e-05 2.54e-05 
38 1 1.69212e-06 1.57e-05 3.71e-05 2.58e-05 
2 1 1.62034e-06 5.64e-06 1.02e-05 2.9e-05 
15 1 1.96902e-06 2.83e-05 6.63e-06 2.91e-05 
9 1 1.59983e-06 3.79e-05 3.94e-05 2.92e-05 
11 1 1.50753e-06 3.01e-05 4.54e-05 3.59e-05 
7 1 1.68187e-06 1.14e-05 6.02e-06 3.7e-05 
4 1 1.94851e-06 4.16e-05 2e-05 3.83e-05 
21 1 1.52804e-06 1.43e-05 1.13e-05 4.71e-05 
27 1 1.43574e-06 1.8e-05 5.11e-05 3.43e-06 
36 1 1.52804e-06 2.05e-05 7.89e-05 5.97e-06 
28 1 1.94851e-06 3.74e-05 7.34e-05 6.4e-06 
25 1 1.85621e-06 1.14e-05 7.29e-05 8.15e-06 
39 1 1.48702e-06 5.63e-06 6.78e-05 1.58e-05 
41 1 1.75366e-06 2.15e-05 5.41e-05 1.78e-05 
42 1 1.78442e-06 4.09e-05 8.69e-05 1.97e-05 
34 1 1.66136e-06 2.34e-05 8.88e-05 2e-05 
12 1 1.80493e-06 4e-05 5.85e-05 2.1e-05 
18 1 1.64085e-06 4.45e-06 5.94e-05 2.25e-05 
37 1 1.50757e-06 3.96681e-05 6.34591e-05 2.20612e-05 
43 1 1.84595e-06 4.1e-05 6.2e-05 2.65e-05 
31 1 1.57932e-06 2.86e-05 8.79e-05 3.13e-05 
51 1 1.62959e-06 3.99426e-05 6.33361e-05 2.35986e-05 
20 1 1.87672e-06 7.44e-05 3.73e-05 6.71e-06 
40 1 1.48702e-06 5.12e-05 8.67e-06 1.12e-05 
13 1 1.80493e-06 7.71e-05 2.09e-05 1.4e-05 
8 1 1.48702e-06 9.33e-05 4.2e-05 2.01e-05 
17 1 1.89723e-06 7.83e-05 4.78e-05 2.08e-05 
50 1 1.86646e-06 8.1e-05 8.24e-06 2.16e-05 
23 1 1.80493e-06 9.4e-05 1.87e-05 2.26e-05 
33 1 1.82544e-06 7.19e-05 2.8e-05 3.5e-05 
19 1 1.68187e-06 7e-05 9.23e-06 3.51e-05 
6 1 1.8357e-06 8.45e-05 4.23e-06 3.8e-05 
5 1 1.928e-06 6.25e-05 7.22e-05 8.16e-06 
29 1 1.47676e-06 9.84e-05 5.71e-05 8.6e-06 
14 1 1.72289e-06 6.45e-05 7.6e-05 1.68e-05 
44 1 1.41523e-06 5.76e-05 5.88e-05 2.09e-05 
26 1 1.71263e-06 5.27e-05 8.99e-05 3.58e-05 
49 1 1.61008e-06 9.42e-05 9.49e-05 3.65e-05 
48 1 1.63059e-06 6.81e-05 5.55e-05 4.04e-05 
32 1 1.84595e-06 5.27e-05 5.24e-05 4.13e-05 
47 1 1.68187e-06 6.57e-05 9.34e-05 4.19e-05 
1 1 1.67161e-06 7.85e-05 5.86e-05 4.61e-05 
ITEM: TIMESTEP
500
ITEM: NUMBER OF ATOMS
52
ITEM: BOX BOUNDS ff ff ff
0.0000000000000000e+00 1.0000000000000000e-04
0.0000000000000000e+00 1.0000000000000000e-04
0.0000000000000000e+00 5.0000000000000002e-05
ITEM: ATOMS id type diameter x y z 
10 1 1.52738e-06 1.62e-05 3.79e-05 5.63e-06 
45 1 1.63058e-06 1.85e-05 3.63e-05 6.91e-06 
3 1 1.68218e-06 2.76e-05 4.01e-05 8.99e-06 
22 1 1.49642e-06 2.62e-05 3.96e-05 1.02e-05 
35 1 1.41386e-06 1.96e-05 4.5e-05 1.14e-05 
46 1 1.87826e-06 9.98e-06 4.68e-05 1.65e-05 
24 1 1.73378e-06 1.11e-05 2.85e-05 1.97e-05 
30 1 1.80602e-06 7.71e-06 1.82e-05 2.52e-05 
16 1 1.86794e-06 3.09e-05 2.75e-05 2.54e-05 
38 1 1.70282e-06 1.57e-05 3.71e-05 2.58e-05 
2 1 1.63058e-06 5.64e-06 1.02e-05 2.9e-05 
15 1 1.50924e-06 2.8168e-05 6.68915e-06 2.83604e-05 
9 1 1.60994e-06 3.79e-05 3.94e-05 2.92e-05 
11 1 1.51706e-06 3.01e-05 4.54e-05 3.59e-05 
7 1 1.6925e-06 1.14e-05 6.02e-06 3.7e-05 
4 1 1.96082e-06 4.16e-05 2e-05 3.83e-05 
21 1 1.5377e-06 1.43e-05 1.13e-05 4.71e-05 
52 1 1.63139e-06 2.84427e-05 6.56606e-06 2.98995e-05 
27 1 1.44482e-06 1.8e-05 5.11e-05 3.43e-06 
36 1 1.5377e-06 2.05e-05 7.89e-05 5.97e-06 
28 1 1.96082e-06 3.74e-05 7.34e-05 6.4e-06 
25 1 1.86794e-06 1.14e-05 7.29e-05 8.15e-06 
39 1 1.49642e-06 5.63e-06 6.78e-05 1.58e-05 
41 1 1.76474e-06 2.15e-05 5.41e-05 1.78e-05 
42 1 1.7957e-06 4.09e-05 8.69e-05 1.97e-05 
34 1 1.67186e-06 2.34e-05 8.88e-05 2e-05 
12 1 1.81634e-06 4e-05 5.85e-05 2.1e-05 
18 1 1.65122e-06 4.45e-06 5.94e-05 2.25e-05 
37 1 1.5171e-06 3.96681e-05 6.34591e-05 2.20612e-05 
43 1 1.85762e-06 4.1e-05 6.2e-05 2.65e-05 
31 1 1.5893e-06 2.86e-05 8.79e-05 3.13e-05 
51 1 1.63989e-06 3.99426e-05 6.33361e-05 2.35986e-05 
20 1 1.88858e-06 7.44e-05 3.73e-05 6.71e-06 
40 1 1.49642e-06 5.12e-05 8.67e-06 1.12e-05 
13 1 1.81634e-06 7.71e-05 2.09e-05 1.4e-05 
8 1 1.49642e-06 9.33e-05 4.2e-05 2.01e-05 
17 1 1.90922e-06 7.83e-05 4.78e-05 2.08e-05 
50 1 1.87826e-06 8.1e-05 8.24e-06 2.16e-05 
23 1 1.81634e-06 9.4e-05 1.87e-05 2.26e-05 
33 1 1.83698e-06 7.19e-05 2.8e-05 3.5e-05 
19 1 1.6925e-06 7e-05 9.23e-06 3.51e-05 
6 1 1.8473e-06 8.45e-05 4.23e-06 3.8e-05 
5 1 1.94018e-06 6.25e-05 7.22e-05 8.16e-06 
29 1 1.4861e-06 9.84e-05 5.71e-05 8.6e-06 
14 1 1.73378e-06 6.45e-05 7.6e-05 1.68e-05 
44 1 1.42418e-06 5.76e-05 5.88e-05 2.09e-05 
26 1 1.72346e-06 5.27e-05 8.99e-05 3.58e-05 
49 1 1.62026e-06 9.42e-05 9.49e-05 3.65e-05 
48 1 1.6409e-06 6.81e-05 5.55e-05 4.04e-05 
32 1 1.85762e-06 5.27e-05 5.24e-05 4.13e-05 
47 1 1.6925e-06 6.57e-05 9.34e-05 4.19e-05 
1 1 1.68218e-06 7.85e-05 5.86e-05 4.61e-05 
ITEM: TIMESTEP
600
ITEM: NUMBER OF ATOMS
54
ITEM: BOX BOUNDS ff ff ff
0.0000000000000000e+00 1.0000000000000000e-04
0.0000000000000000e+00 1.0000000000000000e-04
0.0000000000000000e+00 5.0000000000000002e-05
ITEM: ATOMS id type diameter x y z 
10 1 1.53704e-06 1.62e-05 3.79e-05 5.63e-06 
45 1 1.64089e-06 1.85e-05 3.63e-05 6.91e-06 
3 1 1.69282e-06 2.76e-05 4.01e-05 8.99e-06 
22 1 1.50588e-06 2.62e-05 3.96e-05 1.02e-05 
35 1 1.4228e-06 1.96e-05 4.5e-05 1.14e-05 
46 1 1.89014e-06 9.98e-06 4.68e-05 1.65e-05 
24 1 1.74474e-06 1.11e-05 2.85e-05 1.97e-05 
30 1 1.81744e-06 7.71e-06 1.82e-05 2.52e-05 
16 1 1.87975e-06 3.09e-05 2.75e-05 2.54e-05 
38 1 1.71359e-06 1.57e-05 3.71e-05 2.58e-05 
2 1 1.64089e-06 5.64e-06 1.02e-05 2.9e-05 
15 1 1.51878e-06 2.8168e-05 6.68915e-06 2.83604e-05 
9 1 1.62012e-06 3.79e-05 3.94e-05 2.92e-05 
11 1 1.52665e-06 3.01e-05 4.54e-05 3.59e-05 
7 1 1.7032e-06 1.14e-05 6.02e-06 3.7e-05 
4 1 1.57005e-06 4.08876e-05 1.99155e-05 3.86161e-05 
21 1 1.54742e-06 1.43e-05 1.13e-05 4.71e-05 
52 1 1.64171e-06 2.84427e-05 6.56606e-06 2.98995e-05 
53 1 1.56222e-06 4.23089e-05 2.00841e-05 3.79855e-05 
27 1 1.45395e-06 1.8e-05 5.11e-05 3.43e-06 
36 1 1.54742e-06 2.05e-05 7.89e-05 5.97e-06 
28 1 1.50296e-06 3.72685e-05 7.34589e-05 5.66347e-06 
25 1 1.87975e-06 1.14e-05 7.29e-05 8.15e-06 
39 1 1.50588e-06 5.63e-06 6.78e-05 1.58e-05 
41 1 1.7759e-06 2.15e-05 5.41e-05 1.78e-05 
42 1 1.80706e-06 4.09e-05 8.69e-05 1.97e-05 
54 1 1.62461e-06 3.75421e-05 7.33363e-05 7.19615e-06 
34 1 1.68243e-06 2.34e-05 8.88e-05 2e-05 
12 1 1.82783e-06 4e-05 5.85e-05 2.1e-05 
18 1 1.66166e-06 4.45e-06 5.94e-05 2.25e-05 
37 1 1.52669e-06 3.96681e-05 6.34591e-05 2.20612e-05 
43 1 1.86937e-06 4.1e-05 6.2e-05 2.65e-05 
31 1 1.59935e-06 2.86e-05 8.79e-05 3.13e-05 
51 1 1.65026e-06 3.99426e-05 6.33361e-05 2.35986e-05 
20 1 1.90052e-06 7.44e-05 3.73e-05 6.71e-06 
40 1 1.50588e-06 5.12e-05 8.67e-06 1.12e-05 
13 1 1.82783e-06 7.71e-05 2.09e-05 1.4e-05 
8 1 1.50588e-06 9.33e-05 4.2e-05 2.01e-05 
17 1 1.92129e-06 7.83e-05 4.78e-05 2.08e-05 
50 1 1.89014e-06 8.1e-05 8.24e-06 2.16e-05 
23 1 1.82783e-06 9.4e-05 1.87e-05 2.26e-05 
33 1 1.8486e-06 7.19e-05 2.8e-05 3.5e-05 
19 1 1.7032e-06 7e-05 9.23e-06 3.51e-05 
6 1 1.85898e-06 8.45e-05 4.23e-06 3.8e-05 
5 1 1.95245e-06 6.25e-05 7.22e-05 8.16e-06 
29 1 1.49549e-06 9.84e-05 5.71e-05 8.6e-06 
14 1 1.74474e-06 6.45e-05 7.6e-05 1.68e-05 
44 1 1.43318e-06 5.76e-05 5.88e-05 2.09e-05 
26 1 1.73436e-06 5.27e-05 8.99e-05 3.58e-05 
49 1 1.6305e-06 9.42e-05 9.49e-05 3.65e-05 
48 1 1.65127e-06 6.81e-05 5.55e-05 4.04e-05 
32 1 1.86937e-06 5.27e-05 5.24e-05 4.13e-05 
47 1 1.7032e-06 6.57e-05 9.34e-05 4.19e-05 
1 1 1.69282e-06 7.85e-05 5.86e-05 4.61e-05 
ITEM: TIMESTEP
700
ITEM: NUMBER OF ATOMS
54
ITEM: BOX BOUNDS ff ff ff
0.0000000000000000e+00 1.0000000000000000e-04
0.0000000000000000e+00 1.0000000000000000e-04
0.0000000000000000e+00 5.0000000000000002e-05
ITEM: ATOMS id type diameter x y z 
10 1 1.54675e-06 1.62e-05 3.79e-05 5.63e-06 
45 1 1.65126e-06 1.85e-05 3.63e-05 6.91e-06 
3 1 1.70352e-06 2.76e-05 4.01e-05 8.99e-06 
22 1 1.5154e-06 2.62e-05 3.96e-05 1.02e-05 
35 1 1.43179e-06 1.96e-05 4.5e-05 1.14e-05 
46 1 1.90209e-06 9.98e-06 4.68e-05 1.65e-05 
24 1 1.75577e-06 1.11e-05 2.85e-05 1.97e-05 
30 1 1.82893e-06 7.71e-06 1.82e-05 2.52e-05 
16 1 1.89164e-06 3.09e-05 2.75e-05 2.54e-05 
38 1 1.72442e-06 1.57e-05 3.71e-05 2.58e-05 
2 1 1.65126e-06 5.64e-06 1.02e-05 2.9e-05 
15 1 1.52838e-06 2.8168e-05 6.68915e-06 2.83604e-05 
9 1 1.63036e-06 3.79e-05 3.94e-05 2.92e-05 
11 1 1.5363e-06 3.01e-05 4.54e-05 3.59e-05 
7 1 1.71397e-06 1.14e-05 6.02e-06 3.7e-05 
4 1 1.57998e-06 4.08876e-05 1.99155e-05 3.86161e-05 
21 1 1.5572e-06 1.43e-05 1.13e-05 4.71e-05 
52 1 1.65209e-06 2.84427e-05 6.56606e-06 2.98995e-05 
53 1 1.5721e-06 4.23089e-05 2.00841e-05 3.79855e-05 
27 1 1.46314e-06 1.8e-05 5.11e-05 3.43e-06 
36 1 1.5572e-06 2.05e-05 7.89e-05 5.97e-06 
28 1 1.51246e-06 3.72685e-05 7.34589e-05 5.66347e-06 
25 1 1.89164e-06 1.14e-05 7.29e-05 8.15e-06 
39 1 1.5154e-06 5.63e-06 6.78e-05 1.58e-05 
41 1 1.78713e-06 2.15e-05 5.41e-05 1.78e-05 
42 1 1.81848e-06 4.09e-05 8.69e-05 1.97e-05 
54 1 1.63488e-06 3.75421e-05 7.33363e-05 7.19615e-06 
34 1 1.69307e-06 2.34e-05 8.88e-05 2e-05 
12 1 1.83938e-06 4e-05 5.85e-05 2.1e-05 
18 1 1.67217e-06 4.45e-06 5.94e-05 2.25e-05 
37 1 1.53634e-06 3.96646e-05 6.34607e-05 2.20416e-05 
43 1 1.88119e-06 4.1e-05 6.2e-05 2.65e-05 
31 1 1.60946e-06 2.86e-05 8.79e-05 3.13e-05 
51 1 1.66069e-06 3.99461e-05 6.33346e-05 2.36182e-05 
20 1 1.91254e-06 7.44e-05 3.73e-05 6.71e-06 
40 1 1.5154e-06 5.12e-05 8.67e-06 1.12e-05 
13 1 1.83938e-06 7.71e-05 2.09e-05 1.4e-05 
8 1 1.5154e-06 9.33e-05 4.2e-05 2.01e-05 
17 1 1.93344e-06 7.83e-05 4.78e-05 2.08e-05 
50 1 1.90209e-06 8.1e-05 8.24e-06 2.16e-05 
23 1 1.83938e-06 9.4e-05 1.87e-05 2.26e-05 
33 1 1.86028e-06 7.19e-05 2.8e-05 3.5e-05 
19 1 1.71397e-06 7e-05 9.23e-06 3.51e-05 
6 1 1.87073e-06 8.45e-05 4.23e-06 3.8e-05 
5 1 1.96479e-06 6.25e-05 7.22e-05 8.16e-06 
29 1 1.50495e-06 9.84e-05 5.71e-05 8.6e-06 
14 1 1.75577e-06 6.45e-05 7.6e-05 1.68e-05 
44 1 1.44224e-06 5.76e-05 5.88e-05 2.09e-05 
26 1 1.74532e-06 5.27e-05 8.99e-05 3.58e-05 
49 1 1.64081e-06 9.42e-05 9.49e-05 3.65e-05 
48 1 1.66171e-06 6.81e-05 5.55e-05 4.04e-05 
32 1 1.88119e-06 5.27e-05 5.24e-05 4.13e-05 
47 1 1.71397e-06 6.57e-05 9.34e-05 4.19e-05 
1 1 1.70352e-06 7.85e-05 5.86e-05 4.61e-05 
ITEM: TIMESTEP
800
ITEM: NUMBER OF ATOMS
55
ITEM: BOX BOUNDS ff ff ff
0.0000000000000000e+00 1.0000000000000000e-04
0.0000000000000000e+00 1.0000000000000000e-04
0.0000000000000000e+00 5.0000000000000002e-05
ITEM: ATOMS id type diameter x y z 
10 1 1.55653e-06 1.62e-05 3.79e-05 5.63e-06 
45 1 1.6617e-06 1.85e-05 3.63e-05 6.91e-06 
3 1 1.71429e-06 2.76e-05 4.01e-05 8.99e-06 
22 1 1.52498e-06 2.62e-05 3.96e-05 1.02e-05 
35 1 1.44084e-06 1.96e-05 4.5e-05 1.14e-05 
46 1 1.91411e-06 9.98e-06 4.68e-05 1.65e-05 
24 1 1.76687e-06 1.11e-05 2.85e-05 1.97e-05 
30 1 1.84049e-06 7.71e-06 1.82e-05 2.52e-05 
16 1 1.9036e-06 3.09e-05 2.75e-05 2.54e-05 
38 1 1.73532e-06 1.57e-05 3.71e-05 2.58e-05 
2 1 1.6617e-06 5.64e-06 1.02e-05 2.9e-05 
15 1 1.53805e-06 2.81645e-05 6.69072e-06 2.83408e-05 
9 1 1.64067e-06 3.79e-05 3.94e-05 2.92e-05 
11 1 1.54601e-06 3.01e-05 4.54e-05 3.59e-05 
7 1 1.72481e-06 1.14e-05 6.02e-06 3.7e-05 
4 1 1.58997e-06 4.08876e-05 1.99155e-05 3.86161e-05 
21 1 1.56705e-06 1.43e-05 1.13e-05 4.71e-05 
52 1 1.66253e-06 2.84462e-05 6.56449e-06 2.99191e-05 
53 1 1.58204e-06 4.23089e-05 2.00841e-05 3.79855e-05 
27 1 1.47239e-06 1.8e-05 5.11e-05 3.43e-06 
36 1 1.56705e-06 2.05e-05 7.89e-05 5.97e-06 
28 1 1.52203e-06 3.72685e-05 7.34589e-05 5.66347e-06 
25 1 1.9036e-06 1.14e-05 7.29e-05 8.15e-06 
39 1 1.52498e-06 5.63e-06 6.78e-05 1.58e-05 
41 1 1.79842e-06 2.15e-05 5.41e-05 1.78e-05 
42 1 1.82998e-06 4.09e-05 8.69e-05 1.97e-05 
54 1 1.64521e-06 3.75421e-05 7.33363e-05 7.19615e-06 
34 1 1.70377e-06 2.34e-05 8.88e-05 2e-05 
12 1 1.85101e-06 4e-05 5.85e-05 2.1e-05 
18 1 1.68274e-06 4.45e-06 5.94e-05 2.25e-05 
37 1 1.54606e-06 3.96646e-05 6.34607e-05 2.20416e-05 
43 1 1.89308e-06 4.1e-05 6.2e-05 2.65e-05 
31 1 1.61963e-06 2.86e-05 8.79e-05 3.13e-05 
51 1 1.67119e-06 3.99461e-05 6.33346e-05 2.36182e-05 
20 1 1.92463e-06 7.44e-05 3.73e-05 6.71e-06 
40 1 1.52498e-06 5.12e-05 8.67e-06 1.12e-05 
13 1 1.85101e-06 7.71e-05 2.09e-05 1.4e-05 
8 1 1.52498e-06 9.33e-05 4.2e-05 2.01e-05 
17 1 1.94566e-06 7.83e-05 4.78e-05 2.08e-05 
50 1 1.91411e-06 8.1e-05 8.24e-06 2.16e-05 
23 1 1.85101e-06 9.4e-05 1.87e-05 2.26e-05 
33 1 1.87204e-06 7.19e-05 2.8e-05 3.5e-05 
19 1 1.72481e-06 7e-05 9.23e-06 3.51e-05 
6 1 1.88256e-06 8.45e-05 4.23e-06 3.8e-05 
5 1 1.506e-06 6.23682e-05 7.2259e-05 7.42198e-06 
29 1 1.51446e-06 9.84e-05 5.71e-05 8.6e-06 
14 1 1.76687e-06 6.45e-05 7.6e-05 1.68e-05 
55 1 1.6279e-06 6.26424e-05 7.21362e-05 8.95776e-06 
44 1 1.45136e-06 5.76e-05 5.88e-05 2.09e-05 
26 1 1.75636e-06 5.27e-05 8.99e-05 3.58e-05 
49 1 1.65119e-06 9.42e-05 9.49e-05 3.65e-05 
48 1 1.67222e-06 6.81e-05 5.55e-05 4.04e-05 
32 1 1.89308e-06 5.27e-05 5.24e-05 4.13e-05 
47 1 1.72481e-06 6.57e-05 9.34e-05 4.19e-05 
1 1 1.71429e-06 7.85e-05 5.86e-05 4.61e-05 
ITEM: TIMESTEP
900
ITEM: NUMBER OF ATOMS
55
ITEM: BOX BOUNDS ff ff ff
0.0000000000000000e+00 1.0000000000000000e-04
0.0000000000000000e+00 1.0000000000000000e-04
0.0000000000000000e+00 5.0000000000000002e-05
ITEM: ATOMS id type diameter x y z 
10 1 1.56637e-06 1.62e-05 3.79e-05 5.63e-06 
45 1 1.67221e-06 1.85e-05 3.63e-05 6.91e-06 
3 1 1.72513e-06 2.76e-05 4.01e-05 8.99e-06 
22 1 1.53462e-06 2.62e-05 3.96e-05 1.02e-05 
35 1 1.44995e-06 1.96e-05 4.5e-05 1.14e-05 
46 1 1.92621e-06 9.98e-06 4.68e-05 1.65e-05 
24 1 1.77804e-06 1.11e-05 2.85e-05 1.97e-05 
30 1 1.85213e-06 7.71e-06 1.82e-05 2.52e-05 
16 1 1.91563e-06 3.09e-05 2.75e-05 2.54e-05 
38 1 1.74629e-06 1.57e-05 3.71e-05 2.58e-05 
2 1 1.67221e-06 5.64e-06 1.02e-05 2.9e-05 
15 1 1.54777e-06 2.81645e-05 6.69072e-06 2.83408e-05 
9 1 1.65104e-06 3.79e-05 3.94e-05 2.92e-05 
11 1 1.55579e-06 3.01e-05 4.54e-05 3.59e-05 
7 1 1.73571e-06 1.14e-05 6.02e-06 3.7e-05 
4 1 1.60002e-06 4.08694e-05 1.99133e-05 3.86242e-05 
21 1 1.57696e-06 1.43e-05 1.13e-05 4.71e-05 
52 1 1.67304e-06 2.84462e-05 6.56449e-06 2.99191e-05 
53 1 1.59204e-06 4.23271e-05 2.00863e-05 3.79774e-05 
27 1 1.4817e-06 1.8e-05 5.11e-05 3.43e-06 
36 1 1.57696e-06 2.05e-05 7.89e-05 5.97e-06 
28 1 1.53165e-06 3.7265e-05 7.34605e-05 5.64384e-06 
25 1 1.91563e-06 1.14e-05 7.29e-05 8.15e-06 
39 1 1.53462e-06 5.63e-06 6.78e-05 1.58e-05 
41 1 1.80979e-06 2.15e-05 5.41e-05 1.78e-05 
42 1 1.84155e-06 4.09e-05 8.69e-05 1.97e-05 
54 1 1.65562e-06 3.75456e-05 7.33348e-05 7.21577e-06 
34 1 1.71454e-06 2.34e-05 8.88e-05 2e-05 
12 1 1.86271e-06 4e-05 5.85e-05 2.1e-05 
18 1 1.69338e-06 4.45e-06 5.94e-05 2.25e-05 
37 1 1.55583e-06 3.96646e-05 6.34607e-05 2.20416e-05 
43 1 1.90505e-06 4.1e-05 6.2e-05 2.65e-05 
31 1 1.62987e-06 2.86e-05 8.79e-05 3.13e-05 
51 1 1.68176e-06 3.99461e-05 6.33346e-05 2.36182e-05 
20 1 1.9368e-06 7.44e-05 3.73e-05 6.71e-06 
40 1 1.53462e-06 5.12e-05 8.67e-06 1.12e-05 
13 1 1.86271e-06 7.71e-05 2.09e-05 1.4e-05 
8 1 1.53462e-06 9.33e-05 4.2e-05 2.01e-05 
17 1 1.95797e-06 7.83e-05 4.78e-05 2.08e-05 
50 1 1.92621e-06 8.1e-05 8.24e-06 2.16e-05 
23 1 1.86271e-06 9.4e-05 1.87e-05 2.26e-05 
33 1 1.88388e-06 7.19e-05 2.8e-05 3.5e-05 
19 1 1.73571e-06 7e-05 9.23e-06 3.51e-05 
6 1 1.89446e-06 8.45e-05 4.23e-06 3.8e-05 
5 1 1.51553e-06 6.23682e-05 7.2259e-05 7.42198e-06 
29 1 1.52404e-06 9.84e-05 5.71e-05 8.6e-06 
14 1 1.77804e-06 6.45e-05 7.6e-05 1.68e-05 
55 1 1.63819e-06 6.26424e-05 7.21362e-05 8.95776e-06 
44 1 1.46054e-06 5.76e-05 5.88e-05 2.09e-05 
26 1 1.76746e-06 5.27e-05 8.99e-05 3.58e-05 
49 1 1.66162e-06 9.42e-05 9.49e-05 3.65e-05 
48 1 1.68279e-06 6.81e-05 5.55e-05 4.04e-05 
32 1 1.90505e-06 5.27e-05 5.24e-05 4.13e-05 
47 1 1.73571e-06 6.57e-05 9.34e-05 4.19e-05 
1 1 1.72513e-06 7.85e-05 5.86e-05 4.61e-05 
ITEM: TIMESTEP
1000
ITEM: NUMBER OF ATOMS
55
ITEM: BOX BOUNDS ff ff ff
0.0000000000000000e+00 1.0000000000000000e-04
0.0000000000000000e+00 1.0000000000000000e-04
0.0000000000000000e+00 5.0000000000000002e-05
ITEM: ATOMS id type diameter x y z 
10 1 1.57627e-06 1.62e-05 3.79e-05 5.63e-06 
45 1 1.68278e-06 1.85e-05 3.63e-05 6.91e-06 
3 1 1.73603e-06 2.76e-05 4.01e-05 8.99e-06 
22 1 1.54432e-06 2.62e-05 3.96e-05 1.02e-05 
35 1 1.45912e-06 1.96e-05 4.5e-05 1.14e-05 
46 1 1.93839e-06 9.98e-06 4.68e-05 1.65e-05 
24 1 1.78929e-06 1.11e-05 2.85e-05 1.97e-05 
30 1 1.86384e-06 7.71e-06 1.82e-05 2.52e-05 
16 1 1.92774e-06 3.09e-05 2.75e-05 2.54e-05 
38 1 1.75733e-06 1.57e-05 3.71e-05 2.58e-05 
15 1 1.55756e-06 2.81645e-05 6.69072e-06 2.83408e-05 
2 1 1.68278e-06 5.64e-06 1.02e-05 2.9e-05 
9 1 1.66148e-06 3.79e-05 3.94e-05 2.92e-05 
52 1 1.68362e-06 2.84462e-05 6.56449e-06 2.99191e-05 
11 1 1.56562e-06 3.01e-05 4.54e-05 3.59e-05 
7 1 1.74668e-06 1.14e-05 6.02e-06 3.7e-05 
53 1 1.60211e-06 4.23271e-05 2.00863e-05 3.79774e-05 
4 1 1.61013e-06 4.08694e-05 1.99133e-05 3.86242e-05 
21 1 1.58693e-06 1.43e-05 1.13e-05 4.71e-05 
27 1 1.49107e-06 1.8e-05 5.11e-05 3.43e-06 
28 1 1.54133e-06 3.7265e-05 7.34605e-05 5.64384e-06 
36 1 1.58693e-06 2.05e-05 7.89e-05 5.97e-06 
54 1 1.66608e-06 3.75456e-05 7.33348e-05 7.21577e-06 
25 1 1.92774e-06 1.14e-05 7.29e-05 8.15e-06 
39 1 1.54432e-06 5.63e-06 6.78e-05 1.58e-05 
41 1 1.82124e-06 2.15e-05 5.41e-05 1.78e-05 
42 1 1.85319e-06 4.09e-05 8.69e-05 1.97e-05 
34 1 1.72538e-06 2.34e-05 8.88e-05 2e-05 
12 1 1.87449e-06 4e-05 5.85e-05 2.1e-05 
37 1 1.56567e-06 3.96646e-05 6.34607e-05 2.20416e-05 
18 1 1.70408e-06 4.45e-06 5.94e-05 2.25e-05 
51 1 1.69239e-06 3.99461e-05 6.33346e-05 2.36182e-05 
43 1 1.91709e-06 4.1e-05 6.2e-05 2.65e-05 
31 1 1.64018e-06 2.86e-05 8.79e-05 3.13e-05 
20 1 1.94904e-06 7.44e-05 3.73e-05 6.71e-06 
40 1 1.54432e-06 5.12e-05 8.67e-06 1.12e-05 
13 1 1.87449e-06 7.71e-05 2.09e-05 1.4e-05 
8 1 1.54432e-06 9.33e-05 4.2e-05 2.01e-05 
17 1 1.97034e-06 7.83e-05 4.78e-05 2.08e-05 
50 1 1.93839e-06 8.1e-05 8.24e-06 2.16e-05 
23 1 1.87449e-06 9.4e-05 1.87e-05 2.26e-05 
33 1 1.89579e-06 7.19e-05 2.8e-05 3.5e-05 
19 1 1.74668e-06 7e-05 9.23e-06 3.51e-05 
6 1 1.90644e-06 8.45e-05 4.23e-06 3.8e-05 
5 1 1.52511e-06 6.23682e-05 7.2259e-05 7.42198e-06 
29 1 1.53367e-06 9.84e-05 5.71e-05 8.6e-06 
55 1 1.64854e-06 6.26424e-05 7.21362e-05 8.95776e-06 
14 1 1.78929e-06 6.45e-05 7.6e-05 1.68e-05 
44 1 1.46977e-06 5.76e-05 5.88e-05 2.09e-05 
26 1 1.77863e-06 5.27e-05 8.99e-05 3.58e-05 
49 1 1.67213e-06 9.42e-05 9.49e-05 3.65e-05 
48 1 1.69343e-06 6.81e-05 5.55e-05 4.04e-05 
32 1 1.91709e-06 5.27e-05 5.24e-05 4.13e-05 
47 1 1.74668e-06 6.57e-05 9.34e-05 4.19e-05 
1 1 1.73603e-06 7.85e-05 5.86e-05 4.61e-05 
ITEM: TIMESTEP
1100
ITEM: NUMBER OF ATOMS
56
ITEM: BOX BOUNDS ff ff ff
0.0000000000000000e+00 1.0000000000000000e-04
0.0000000000000000e+00 1.0000000000000000e-04
0.0000000000000000e+00 5.0000000000000002e-05
ITEM: ATOMS id type diameter x y z 
10 1 1.58624e-06 1.62e-05 3.79e-05 5.63e-06 
45 1 1.69342e-06 1.85e-05 3.63e-05 6.91e-06 
3 1 1.74701e-06 2.76e-05 4.01e-05 8.99e-06 
22 1 1.55409e-06 2.62e-05 3.96e-05 1.02e-05 
35 1 1.46834e-06 1.96e-05 4.5e-05 1.14e-05 
46 1 1.95065e-06 9.98e-06 4.68e-05 1.65e-05 
24 1 1.8006e-06 1.11e-05 2.85e-05 1.97e-05 
30 1 1.87562e-06 7.71e-06 1.82e-05 2.52e-05 
16 1 1.93993e-06 3.09e-05 2.75e-05 2.54e-05 
38 1 1.76844e-06 1.57e-05 3.71e-05 2.58e-05 
15 1 1.5674e-06 2.81645e-05 6.69072e-06 2.83408e-05 
2 1 1.69342e-06 5.64e-06 1.02e-05 2.9e-05 
9 1 1.67198e-06 3.79e-05 3.94e-05 2.92e-05 
52 1 1.69426e-06 2.84462e-05 6.56449e-06 2.99191e-05 
11 1 1.57552e-06 3.01e-05 4.54e-05 3.59e-05 
7 1 1.75773e-06 1.14e-05 6.02e-06 3.7e-05 
53 1 1.61223e-06 4.23271e-05 2.00863e-05 3.79774e-05 
4 1 1.62031e-06 4.08694e-05 1.99133e-05 3.86242e-05 
21 1 1.59696e-06 1.43e-05 1.13e-05 4.71e-05 
27 1 1.5005e-06 1.8e-05 5.11e-05 3.43e-06 
28 1 1.55108e-06 3.7265e-05 7.34605e-05 5.64384e-06 
36 1 1.59696e-06 2.05e-05 7.89e-05 5.97e-06 
54 1 1.67662e-06 3.75456e-05 7.33348e-05 7.21577e-06 
25 1 1.93993e-06 1.14e-05 7.29e-05 8.15e-06 
39 1 1.55409e-06 5.63e-06 6.78e-05 1.58e-05 
41 1 1.83275e-06 2.15e-05 5.41e-05 1.78e-05 
42 1 1.8649e-06 4.09e-05 8.69e-05 1.97e-05 
34 1 1.73629e-06 2.34e-05 8.88e-05 2e-05 