LAMMPS (20 Nov 2019)
Reading data file ...
  orthogonal box = (0 0 0) to (0.0001 0.0001 0.0001)
  2 by 4 by 4 MPI processor grid
  reading atoms ...
  100 atoms
  4 nutrients
Lattice spacing in x,y,z = 100 100 100
100 atoms in group CYANO
0 atoms in group ECW
Model is defined as a closed system. 
Neighbor list info ...
  update every 1 steps, delay 0 steps, check yes
  max neighbors/atom: 5000, page size: 100000
  master list distance cutoff = 2.44e-06
  ghost atom cutoff = 2.44e-06
  binsize = 1.22e-06, bins = 82 82 82
  1 neighbor lists, perpetual/occasional/extra = 1 0 0
  (1) pair gran/hooke/history, perpetual
      attributes: half, newton off, size, history
      pair build: half/size/bin/newtoff
      stencil: half/bin/3d/newtoff
      bin: standard
Setting up Verlet run ...
  Unit style    : lj
  Current step  : 0
  Time step     : 10
Per MPI rank memory allocation (min/avg/max) = 5.856 | 9.743 | 10.91 Mbytes
Step CPU Atoms c_myNtypes[1] c_myNtypes[2] c_myMass[1] c_myMass[2] c_myCon[1] c_myCon[2] c_myCon[3] c_myCon[4] 
       0            0      100          100            0 8.9033054e-14            0          0.1        0.009     3.42e-20       0.0299 
number of iterations: 120054 
     100    1.3106223      100          100            0 9.0544639e-14            0          0.1 0.0090011751 1.7466472e-05  0.029898043 
number of iterations: 106700 
     200    2.4457839      100          100            0 9.2081888e-14            0          0.1  0.009001195 4.422117e-05   0.02989801 
number of iterations: 95442 
     300    3.4623829      101          101            0 9.3645235e-14            0          0.1 0.0090012153 8.5079725e-05  0.029897976 
number of iterations: 85235 
     400    4.4126505      102          102            0 9.5235125e-14            0          0.1  0.009001236 0.0001473924  0.029897942 
number of iterations: 75605 
     500    5.2430709      103          103            0 9.6852008e-14            0          0.1 0.0090012569 0.00024243604  0.029897907 
number of iterations: 66283 
     600    5.9736464      106          106            0 9.8496342e-14            0          0.1 0.0090012783 0.00038771323  0.029897872 
number of iterations: 57083 
     700    6.6193161      108          108            0 1.0016859e-13            0          0.1    0.0090013 0.00061091098  0.029897835 
number of iterations: 47820 
     800     7.219433      110          110            0 1.0186923e-13            0          0.1 0.0090013221 0.00095756843  0.029897799 
number of iterations: 38203 
     900    7.6777021      110          110            0 1.0359875e-13            0          0.1 0.0090013445 0.0015091139  0.029897761 
number of iterations: 27439 
    1000    8.0342403      111          111            0 1.0535763e-13            0          0.1 0.0090013673 0.0024468929  0.029897723 
number of iterations: 16642 
    1100     8.282136      114          114            0 1.0714637e-13            0          0.1 0.0090013906 0.0041464415  0.029897685 
number of iterations: 16697 
    1200     8.522907      114          114            0 1.0896548e-13            0          0.1 0.0090014142 0.0062132525  0.029897645 
number of iterations: 16751 
    1300    8.7579497      115          115            0 1.1081547e-13            0          0.1 0.0090014382 0.0086460147  0.029897605 
number of iterations: 16805 
    1400    8.9917096      118          118            0 1.1269687e-13            0          0.1 0.0090014626  0.011462844  0.029897565 
number of iterations: 16860 
    1500    9.2200447      120          120            0 1.1461022e-13            0          0.1 0.0090014874  0.014702413  0.029897523 
number of iterations: 16914 
    1600    9.4433498      122          122            0 1.1655605e-13            0          0.1 0.0090015127  0.018431443  0.029897481 
number of iterations: 16968 
    1700    9.6675491      123          123            0 1.1853491e-13            0          0.1 0.0090015384   0.02243943  0.029897439 
number of iterations: 17023 
    1800    9.8951802      123          123            0 1.2054737e-13            0          0.1 0.0090015645  0.026674707  0.029897395 
number of iterations: 17077 
    1900    10.120606      125          125            0  1.22594e-13            0          0.1  0.009001591  0.031132208  0.029897351 
number of iterations: 17132 
    2000    10.344026      126          126            0 1.2467538e-13            0          0.1  0.009001618    0.0358099  0.029897306 
number of iterations: 17186 
    2100    10.568201      127          127            0 1.2679209e-13            0          0.1 0.0090016455  0.040705853   0.02989726 
number of iterations: 17240 
    2200    10.792489      128          128            0 1.2894474e-13            0          0.1 0.0090016735  0.045819524  0.029897214 
number of iterations: 17295 
    2300    11.015967      130          130            0 1.3113394e-13            0          0.1 0.0090017019  0.051151422  0.029897166 
number of iterations: 18758 
    2400    11.254037      131          131            0 1.333603e-13            0          0.1 0.0090017361  0.056710488  0.029897109 
number of iterations: 17433 
    2500    11.478846      134          134            0 1.3562447e-13            0          0.1 0.0090017656  0.062489497   0.02989706 
number of iterations: 17487 
    2600    11.704105      137          137            0 1.3792707e-13            0          0.1 0.0090017955  0.068491044   0.02989701 
number of iterations: 17542 
    2700    11.930791      138          138            0 1.4026877e-13            0          0.1  0.009001826  0.074716833   0.02989696 
number of iterations: 17596 
    2800    12.158041      142          142            0 1.4265022e-13            0          0.1  0.009001857   0.08116931  0.029896908 
number of iterations: 17650 
    2900    12.383905      147          147            0 1.4507211e-13            0          0.1 0.0090018885   0.08784378  0.029896855 
number of iterations: 17705 
    3000     12.61359      147          147            0 1.4753511e-13            0          0.1 0.0090019206  0.094708141  0.029896802 
number of iterations: 17759 
    3100    12.840416      149          149            0 1.5003993e-13            0          0.1 0.0090019532   0.10176282  0.029896748 
number of iterations: 17813 
    3200    13.065857      152          152            0 1.5258728e-13            0          0.1 0.0090019864   0.10900881  0.029896693 
number of iterations: 17868 
    3300    13.292839      157          157            0 1.5517788e-13            0          0.1 0.0090020205   0.11645143  0.029896636 
number of iterations: 17922 
    3400    13.519856      160          160            0 1.5781245e-13            0          0.1 0.0090020548   0.12408854  0.029896579 
number of iterations: 17976 
    3500    13.785777      160          160            0 1.6049176e-13            0          0.1 0.0090020897   0.13192136  0.029896521 
number of iterations: 18031 
    3600    14.015387      160          160            0 1.6321656e-13            0          0.1 0.0090021252   0.13995196  0.029896461 
number of iterations: 18085 
    3700    14.243761      160          160            0 1.6598761e-13            0          0.1 0.0090021612   0.14818225  0.029896401 
number of iterations: 18139 
    3800    14.474551      164          164            0 1.6880572e-13            0          0.1 0.0090021979   0.15661396   0.02989634 
number of iterations: 18194 
    3900    14.703866      164          164            0 1.7167167e-13            0          0.1 0.0090022352   0.16524991  0.029896278 
number of iterations: 18248 
    4000    14.936049      166          166            0 1.7458627e-13            0          0.1 0.0090022732   0.17409284  0.029896215 
number of iterations: 18302 
    4100    15.167851      170          170            0 1.7755036e-13            0          0.1 0.0090023118   0.18314404  0.029896151 
number of iterations: 18357 
    4200    15.398106      172          172            0 1.8056477e-13            0          0.1  0.009002351   0.19240738  0.029896085 
number of iterations: 18411 
    4300    15.629094      175          175            0 1.8363036e-13            0          0.1  0.009002391   0.20188531  0.029896019 
number of iterations: 19332 
    4400    15.871225      177          177            0  1.86748e-13            0          0.1 0.0090024375   0.21178224  0.029895941 
number of iterations: 18536 
    4500    16.103374      178          178            0 1.8991857e-13            0          0.1 0.0090024789   0.22190697  0.029895873 
number of iterations: 18591 
    4600    16.336942      182          182            0 1.9314297e-13            0          0.1  0.009002521   0.23226182  0.029895802 
number of iterations: 18645 
    4700    16.571563      184          184            0 1.9642211e-13            0          0.1 0.0090025638   0.24284901  0.029895731 
number of iterations: 18700 
    4800    16.840103      186          186            0 1.9975692e-13            0          0.1 0.0090026073   0.25367402  0.029895659 
number of iterations: 18754 
    4900    17.078115      192          192            0 2.0314835e-13            0          0.1 0.0090026516   0.26473897  0.029895585 
number of iterations: 18631 
    5000    17.314963      199          199            0 2.0659736e-13            0          0.1 0.0090026966   0.27605128   0.02989551 
number of iterations: 18860 
    5100    17.552377      201          201            0 2.1010493e-13            0          0.1 0.0090027423   0.28760932  0.029895434 
number of iterations: 18914 
    5200      17.7898      203          203            0 2.1367205e-13            0          0.1 0.0090027895   0.29942388  0.029895355 
number of iterations: 19498 
    5300    18.035352      208          208            0 2.1729973e-13            0          0.1 0.0090028409   0.31165952   0.02989527 
number of iterations: 19032 
    5400    18.274687      217          217            0 2.2098899e-13            0          0.1 0.0090028892   0.32415804  0.029895189 
number of iterations: 19087 
    5500    18.514314      221          221            0 2.247409e-13            0          0.1 0.0090029382   0.33692533  0.029895108 
number of iterations: 19141 
    5600     18.75583      229          229            0 2.285565e-13            0          0.1 0.0090029881   0.34996307  0.029895025 
number of iterations: 19195 
    5700    18.995575      230          230            0 2.3243688e-13            0          0.1 0.0090030388   0.36327721   0.02989494 
number of iterations: 19250 
    5800    19.237582      235          235            0 2.3638315e-13            0          0.1 0.0090030904   0.37687153  0.029894854 
number of iterations: 19304 
    5900     19.47698      242          242            0 2.4039641e-13            0          0.1 0.0090031429   0.39074981  0.029894767 
number of iterations: 19358 
    6000     19.72104      245          245            0 2.4447781e-13            0          0.1 0.0090031952   0.40491122   0.02989468 
number of iterations: 19413 
    6100    19.963118      247          247            0 2.486285e-13            0          0.1 0.0090032495    0.4193665  0.029894589 
number of iterations: 19467 
    6200    20.207282      249          249            0 2.5284966e-13            0          0.1 0.0090033046   0.43411945  0.029894498 
number of iterations: 19521 
    6300    20.451258      258          258            0 2.5714249e-13            0          0.1 0.0090033601   0.44917167  0.029894405 
number of iterations: 19576 
    6400    20.695715      260          260            0 2.615082e-13            0          0.1 0.0090034172   0.46453168   0.02989431 
number of iterations: 19630 
    6500    20.942863      264          264            0 2.6594803e-13            0          0.1 0.0090034752   0.48020325  0.029894214 
number of iterations: 20234 
    6600    21.193433      272          272            0 2.7046324e-13            0          0.1 0.0090035385   0.49639252  0.029894108 
number of iterations: 19749 
    6700    21.439744      277          277            0 2.750551e-13            0          0.1 0.0090035986   0.51291096  0.029894008 
number of iterations: 19211 
    6800    21.679885      283          283            0 2.7972493e-13            0          0.1 0.0090036548   0.52952173  0.029893915 
number of iterations: 19848 
    6900    21.929027      289          289            0 2.8447404e-13            0          0.1 0.0090037168   0.54646411  0.029893811 
number of iterations: 19903 
    7000    22.177977      293          293            0 2.8930378e-13            0          0.1 0.0090037799   0.56374485  0.029893706 
number of iterations: 20042 
    7100    22.427311      296          296            0 2.9421551e-13            0          0.1  0.009003843   0.58137068  0.029893601 
number of iterations: 20013 
    7200    22.678447      297          297            0 2.9921064e-13            0          0.1 0.0090039082   0.59934567  0.029893492 
number of iterations: 20067 
    7300    22.929774      297          297            0 3.0429057e-13            0          0.1 0.0090039746   0.61767366  0.029893382 
number of iterations: 19964 
    7400    23.178443      303          303            0 3.0945675e-13            0          0.1 0.0090040372   0.63635502  0.029893278 
number of iterations: 20173 
    7500    23.429421      310          310            0 3.1471064e-13            0          0.1 0.0090041063   0.65540265  0.029893163 
number of iterations: 20228 
    7600    23.709453      314          314            0 3.2005373e-13            0          0.1  0.009004176   0.67482473  0.029893047 
number of iterations: 20282 
    7700    23.966118      318          318            0 3.2548753e-13            0          0.1 0.0090042469   0.69462523  0.029892929 
number of iterations: 20336 
    7800    24.222112      322          322            0 3.3101359e-13            0          0.1  0.009004319   0.71481163  0.029892809 
number of iterations: 20391 
    7900     24.47771      326          326            0 3.3663346e-13            0          0.1 0.0090043923   0.73538794  0.029892686 
number of iterations: 20445 
    8000    24.731933      330          330            0 3.4234875e-13            0          0.1 0.0090044669   0.75636176  0.029892562 
number of iterations: 20499 
    8100    24.986532      336          336            0 3.4816107e-13            0          0.1 0.0090045427   0.77774087  0.029892436 
number of iterations: 20554 
    8200    25.242115      342          342            0 3.5407207e-13            0          0.1 0.0090046202   0.79953119  0.029892307 
number of iterations: 20608 
    8300    25.497307      349          349            0 3.6008343e-13            0          0.1 0.0090046987   0.82173876  0.029892176 
number of iterations: 20662 
    8400    25.754408      355          355            0 3.6619685e-13            0          0.1 0.0090047785   0.84437166  0.029892043 
number of iterations: 20717 
    8500    26.009957      357          357            0 3.7241405e-13            0          0.1 0.0090048596   0.86743814  0.029891908 
number of iterations: 20400 
    8600    26.264238      364          364            0 3.7873682e-13            0          0.1 0.0090049316   0.89096119  0.029891788 
number of iterations: 20820 
    8700    26.520736      373          373            0 3.8516692e-13            0          0.1 0.0090050148   0.91493354   0.02989165 
Loop time of 26.5208 on 32 procs for 8700 steps with 373 atoms

Performance: 283430847.162 tau/day, 328.045 timesteps/s
98.6% CPU use with 32 MPI tasks x no OpenMP threads

MPI task timing breakdown:
Section |  min time  |  avg time  |  max time  |%varavg| %total
---------------------------------------------------------------
Pair    | 0.00042077 | 0.0020914  | 0.0056602  |   2.4 |  0.01
Neigh   | 0.0010666  | 0.0018628  | 0.0044822  |   1.7 |  0.01
Comm    | 0.012533   | 0.027392   | 0.046898   |   5.9 |  0.10
Output  | 0.8714     | 0.87199    | 0.87279    |   0.0 |  3.29
Modify  | 25.572     | 25.575     | 25.58      |   0.0 | 96.43
Other   |            | 0.04232    |            |       |  0.16

Nlocal:    11.6562 ave 41 max 0 min
Histogram: 6 8 7 3 3 2 2 0 0 1
Nghost:    4.34375 ave 12 max 0 min
Histogram: 6 6 4 3 3 4 1 2 1 2
Neighs:    11.125 ave 40 max 0 min
Histogram: 6 9 4 5 4 1 1 1 0 1

Total # of neighbors = 356
Ave neighs/atom = 0.954424
Neighbor list builds = 96
Dangerous builds = 0
Total wall time: 0:00:26
