 NUFEB Simulation

     50 atoms 
     2 atom types 
     4 nutrients 

  0.0e-4   1.00e-04  xlo xhi 
  0.0e-4   1.00e-04  ylo yhi 
  0.0e-4   5.00e-05  zlo zhi 

 Atoms 

     1 1 1.68e-06  370 7.99e-05 5.52e-06 2.89e-05 1.68e-06 
     2 1 1.55e-06  370 1.86e-05 7.00e-05 6.25e-06 1.55e-06 
     3 1 1.77e-06  370 2.12e-05 4.17e-05 2.66e-05 1.77e-06 
     4 1 1.39e-06  370 9.23e-05 4.41e-05 3.27e-05 1.39e-06 
     5 1 1.52e-06  370 4.36e-05 8.00e-05 1.40e-05 1.52e-06 
     6 1 1.59e-06  370 6.99e-05 7.93e-05 2.40e-05 1.59e-06 
     7 1 1.70e-06  370 7.36e-05 6.06e-05 1.70e-05 1.70e-06 
     8 1 1.86e-06  370 5.90e-05 4.81e-05 2.92e-06 1.86e-06 
     9 1 1.74e-06  370 4.60e-05 8.29e-05 1.36e-05 1.74e-06 
     10 1 1.75e-06  370 2.48e-05 8.43e-05 3.52e-05 1.75e-06 
     11 1 1.58e-06  370 7.53e-05 8.99e-05 6.26e-06 1.58e-06 
     12 1 1.89e-06  370 4.27e-06 7.83e-05 1.37e-05 1.89e-06 
     13 1 1.40e-06  370 7.49e-05 4.00e-06 3.19e-05 1.40e-06 
     14 1 1.58e-06  370 1.17e-05 5.23e-05 3.74e-05 1.58e-06 
     15 1 1.74e-06  370 9.11e-05 2.08e-05 4.28e-06 1.74e-06 
     16 1 1.89e-06  370 4.67e-05 1.07e-05 5.90e-06 1.89e-06 
     17 1 1.39e-06  370 2.72e-05 8.15e-05 6.31e-06 1.39e-06 
     18 1 1.43e-06  370 9.30e-05 1.65e-05 1.60e-05 1.43e-06 
     19 1 1.58e-06  370 3.39e-05 3.89e-05 4.34e-05 1.58e-06 
     20 1 1.64e-06  370 4.23e-05 2.93e-05 2.17e-05 1.64e-06 
     21 1 1.39e-06  370 6.77e-05 2.22e-05 4.35e-05 1.39e-06 
     22 1 1.69e-06  370 7.54e-05 4.35e-05 2.72e-05 1.69e-06 
     23 1 1.55e-06  370 5.86e-05 8.32e-05 3.23e-05 1.55e-06 
     24 1 1.43e-06  370 1.07e-05 8.62e-05 5.13e-06 1.43e-06 
     25 1 1.52e-06  370 4.21e-05 3.56e-05 3.78e-05 1.52e-06 
     26 1 1.64e-06  370 7.26e-05 3.80e-05 1.38e-05 1.64e-06 
     27 1 1.78e-06  370 5.30e-05 7.65e-05 1.17e-05 1.78e-06 
     28 1 1.85e-06  370 2.40e-05 4.44e-05 2.81e-05 1.85e-06 
     29 1 1.63e-06  370 3.54e-05 8.28e-06 2.37e-05 1.63e-06 
     30 1 1.82e-06  370 2.04e-05 4.66e-05 1.03e-05 1.82e-06 
     31 1 1.54e-06  370 8.30e-05 3.16e-05 4.63e-05 1.54e-06 
     32 1 1.90e-06  370 1.15e-05 3.53e-05 1.82e-05 1.90e-06 
     33 1 1.80e-06  370 5.25e-05 4.73e-05 3.79e-05 1.80e-06 
     34 1 1.55e-06  370 3.34e-05 8.44e-05 6.04e-06 1.55e-06 
     35 1 1.67e-06  370 4.81e-05 3.86e-05 4.36e-05 1.67e-06 
     36 1 1.86e-06  370 7.00e-05 6.97e-05 2.78e-05 1.86e-06 
     37 1 1.67e-06  370 8.41e-05 7.26e-05 4.11e-05 1.67e-06 
     38 1 1.76e-06  370 6.56e-05 8.40e-05 3.93e-05 1.76e-06 
     39 1 1.67e-06  370 8.34e-05 2.89e-05 6.16e-06 1.67e-06 
     40 1 1.69e-06  370 7.84e-05 8.89e-05 2.54e-05 1.69e-06 
     41 1 1.57e-06  370 9.30e-05 2.83e-05 3.41e-05 1.57e-06 
     42 1 1.84e-06  370 1.93e-05 4.66e-05 3.78e-05 1.84e-06 
     43 1 1.49e-06  370 4.03e-05 9.77e-05 1.16e-05 1.49e-06 
     44 1 1.42e-06  370 3.17e-05 6.92e-05 1.53e-05 1.42e-06 
     45 1 1.60e-06  370 4.95e-05 2.09e-05 2.74e-05 1.60e-06 
     46 1 1.45e-06  370 9.29e-05 3.84e-05 6.72e-06 1.45e-06 
     47 1 1.37e-06  370 1.38e-05 4.16e-05 8.64e-06 1.37e-06 
     48 1 1.68e-06  370 4.17e-05 9.75e-05 1.51e-05 1.68e-06 
     49 1 1.61e-06  370 8.58e-05 7.74e-05 9.78e-06 1.61e-06 
     50 1 1.38e-06  370 6.30e-05 1.83e-05 3.08e-05 1.38e-06 

 Nutrients 

     1 sub g nn nn nn 1.00e-01 1.00e-01 
     2 o2 l nn nn nd 9.00e-03 9.00e-03 
     3 suc l nn nn nn 3.42e-20 3.42e-20 
     4 co2 l nn nn nd 2.99e-02 2.99e-02 

 Type Name 

     1 cyano  
     2 ecw  

 Diffusion Coeffs 

     sub 0 
     o2 2.3e-09 
     suc 5.2e-10 
     co2 1.9e-09 

 Growth Rate 

     cyano 2.047e-05 
     ecw 6.71e-05 

 Ks 

     cyano 0.00035 0.0002 0.01 0.000138 
     ecw 0 0.001 3.6 0.05 

 Yield 

     cyano 0.55 
     ecw 0.43 

 Maintenance 

     cyano 0 
     ecw 9.5e-07 

 Decay 

     cyano 0 
     ecw 0 



