ITEM: TIMESTEP
0
ITEM: NUMBER OF ATOMS
50
ITEM: BOX BOUNDS ff ff ff
0.0000000000000000e+00 1.0000000000000000e-04
0.0000000000000000e+00 1.0000000000000000e-04
0.0000000000000000e+00 5.0000000000000002e-05
ITEM: ATOMS id type diameter x y z 
16 1 1.89e-06 4.67e-05 1.07e-05 5.9e-06 
47 1 1.37e-06 1.38e-05 4.16e-05 8.64e-06 
30 1 1.82e-06 2.04e-05 4.66e-05 1.03e-05 
32 1 1.9e-06 1.15e-05 3.53e-05 1.82e-05 
20 1 1.64e-06 4.23e-05 2.93e-05 2.17e-05 
29 1 1.63e-06 3.54e-05 8.28e-06 2.37e-05 
3 1 1.77e-06 2.12e-05 4.17e-05 2.66e-05 
45 1 1.6e-06 4.95e-05 2.09e-05 2.74e-05 
28 1 1.85e-06 2.4e-05 4.44e-05 2.81e-05 
25 1 1.52e-06 4.21e-05 3.56e-05 3.78e-05 
42 1 1.84e-06 1.93e-05 4.66e-05 3.78e-05 
19 1 1.58e-06 3.39e-05 3.89e-05 4.34e-05 
35 1 1.67e-06 4.81e-05 3.86e-05 4.36e-05 
24 1 1.43e-06 1.07e-05 8.62e-05 5.13e-06 
2 1 1.55e-06 1.86e-05 7e-05 6.25e-06 
17 1 1.39e-06 2.72e-05 8.15e-05 6.31e-06 
34 1 1.55e-06 3.34e-05 8.44e-05 6.04e-06 
43 1 1.49e-06 4.03e-05 9.77e-05 1.16e-05 
12 1 1.89e-06 4.27e-06 7.83e-05 1.37e-05 
5 1 1.52e-06 4.36e-05 8e-05 1.4e-05 
9 1 1.74e-06 4.6e-05 8.29e-05 1.36e-05 
44 1 1.42e-06 3.17e-05 6.92e-05 1.53e-05 
48 1 1.68e-06 4.17e-05 9.75e-05 1.51e-05 
10 1 1.75e-06 2.48e-05 8.43e-05 3.52e-05 
14 1 1.58e-06 1.17e-05 5.23e-05 3.74e-05 
8 1 1.86e-06 5.9e-05 4.81e-05 2.92e-06 
15 1 1.74e-06 9.11e-05 2.08e-05 4.28e-06 
39 1 1.67e-06 8.34e-05 2.89e-05 6.16e-06 
46 1 1.45e-06 9.29e-05 3.84e-05 6.72e-06 
26 1 1.64e-06 7.26e-05 3.8e-05 1.38e-05 
18 1 1.43e-06 9.3e-05 1.65e-05 1.6e-05 
22 1 1.69e-06 7.54e-05 4.35e-05 2.72e-05 
1 1 1.68e-06 7.99e-05 5.52e-06 2.89e-05 
50 1 1.38e-06 6.3e-05 1.83e-05 3.08e-05 
13 1 1.4e-06 7.49e-05 4e-06 3.19e-05 
4 1 1.39e-06 9.23e-05 4.41e-05 3.27e-05 
41 1 1.57e-06 9.3e-05 2.83e-05 3.41e-05 
33 1 1.8e-06 5.25e-05 4.73e-05 3.79e-05 
21 1 1.39e-06 6.77e-05 2.22e-05 4.35e-05 
31 1 1.54e-06 8.3e-05 3.16e-05 4.63e-05 
11 1 1.58e-06 7.53e-05 8.99e-05 6.26e-06 
49 1 1.61e-06 8.58e-05 7.74e-05 9.78e-06 
27 1 1.78e-06 5.3e-05 7.65e-05 1.17e-05 
7 1 1.7e-06 7.36e-05 6.06e-05 1.7e-05 
6 1 1.59e-06 6.99e-05 7.93e-05 2.4e-05 
40 1 1.69e-06 7.84e-05 8.89e-05 2.54e-05 
36 1 1.86e-06 7e-05 6.97e-05 2.78e-05 
23 1 1.55e-06 5.86e-05 8.32e-05 3.23e-05 
38 1 1.76e-06 6.56e-05 8.4e-05 3.93e-05 
37 1 1.67e-06 8.41e-05 7.26e-05 4.11e-05 
ITEM: TIMESTEP
100
ITEM: NUMBER OF ATOMS
50
ITEM: BOX BOUNDS ff ff ff
0.0000000000000000e+00 1.0000000000000000e-04
0.0000000000000000e+00 1.0000000000000000e-04
0.0000000000000000e+00 5.0000000000000002e-05
ITEM: ATOMS id type diameter x y z 
16 1 1.90245e-06 4.67e-05 1.07e-05 5.9e-06 
47 1 1.37903e-06 1.38e-05 4.16e-05 8.64e-06 
30 1 1.83199e-06 2.04e-05 4.66e-05 1.03e-05 
32 1 1.91252e-06 1.15e-05 3.53e-05 1.82e-05 
20 1 1.65081e-06 4.23e-05 2.93e-05 2.17e-05 
29 1 1.64074e-06 3.54e-05 8.28e-06 2.37e-05 
3 1 1.78166e-06 2.12e-05 4.17e-05 2.66e-05 
45 1 1.61054e-06 4.95e-05 2.09e-05 2.74e-05 
28 1 1.86219e-06 2.4e-05 4.44e-05 2.81e-05 
25 1 1.53002e-06 4.21e-05 3.56e-05 3.78e-05 
42 1 1.85212e-06 1.93e-05 4.66e-05 3.78e-05 
19 1 1.59041e-06 3.39e-05 3.89e-05 4.34e-05 
35 1 1.681e-06 4.81e-05 3.86e-05 4.36e-05 
24 1 1.43942e-06 1.07e-05 8.62e-05 5.13e-06 
2 1 1.56021e-06 1.86e-05 7e-05 6.25e-06 
17 1 1.39916e-06 2.72e-05 8.15e-05 6.31e-06 
34 1 1.56021e-06 3.34e-05 8.44e-05 6.04e-06 
43 1 1.49982e-06 4.03e-05 9.77e-05 1.16e-05 
12 1 1.90245e-06 4.27e-06 7.83e-05 1.37e-05 
5 1 1.53002e-06 4.36e-05 8e-05 1.4e-05 
9 1 1.75147e-06 4.6e-05 8.29e-05 1.36e-05 
44 1 1.42936e-06 3.17e-05 6.92e-05 1.53e-05 
48 1 1.69107e-06 4.17e-05 9.75e-05 1.51e-05 
10 1 1.76153e-06 2.48e-05 8.43e-05 3.52e-05 
14 1 1.59041e-06 1.17e-05 5.23e-05 3.74e-05 
8 1 1.87226e-06 5.9e-05 4.81e-05 2.92e-06 
15 1 1.75147e-06 9.11e-05 2.08e-05 4.28e-06 
39 1 1.681e-06 8.34e-05 2.89e-05 6.16e-06 
46 1 1.45955e-06 9.29e-05 3.84e-05 6.72e-06 
26 1 1.65081e-06 7.26e-05 3.8e-05 1.38e-05 
18 1 1.43942e-06 9.3e-05 1.65e-05 1.6e-05 
22 1 1.70114e-06 7.54e-05 4.35e-05 2.72e-05 
1 1 1.69107e-06 7.99e-05 5.52e-06 2.89e-05 
50 1 1.38909e-06 6.3e-05 1.83e-05 3.08e-05 
13 1 1.40923e-06 7.49e-05 4e-06 3.19e-05 
4 1 1.39916e-06 9.23e-05 4.41e-05 3.27e-05 
41 1 1.58035e-06 9.3e-05 2.83e-05 3.41e-05 
33 1 1.81186e-06 5.25e-05 4.73e-05 3.79e-05 
21 1 1.39916e-06 6.77e-05 2.22e-05 4.35e-05 
31 1 1.55015e-06 8.3e-05 3.16e-05 4.63e-05 
11 1 1.59041e-06 7.53e-05 8.99e-05 6.26e-06 
49 1 1.62061e-06 8.58e-05 7.74e-05 9.78e-06 
27 1 1.79173e-06 5.3e-05 7.65e-05 1.17e-05 
7 1 1.7112e-06 7.36e-05 6.06e-05 1.7e-05 
6 1 1.60048e-06 6.99e-05 7.93e-05 2.4e-05 
40 1 1.70114e-06 7.84e-05 8.89e-05 2.54e-05 
36 1 1.87226e-06 7e-05 6.97e-05 2.78e-05 
23 1 1.56021e-06 5.86e-05 8.32e-05 3.23e-05 
38 1 1.7716e-06 6.56e-05 8.4e-05 3.93e-05 
37 1 1.681e-06 8.41e-05 7.26e-05 4.11e-05 
ITEM: TIMESTEP
200
ITEM: NUMBER OF ATOMS
50
ITEM: BOX BOUNDS ff ff ff
0.0000000000000000e+00 1.0000000000000000e-04
0.0000000000000000e+00 1.0000000000000000e-04
0.0000000000000000e+00 5.0000000000000002e-05
ITEM: ATOMS id type diameter x y z 
16 1 1.91499e-06 4.67e-05 1.07e-05 5.9e-06 
47 1 1.38811e-06 1.38e-05 4.16e-05 8.64e-06 
30 1 1.84406e-06 2.04e-05 4.66e-05 1.03e-05 
32 1 1.92512e-06 1.15e-05 3.53e-05 1.82e-05 
20 1 1.66168e-06 4.23e-05 2.93e-05 2.17e-05 
29 1 1.65155e-06 3.54e-05 8.28e-06 2.37e-05 
3 1 1.7934e-06 2.12e-05 4.17e-05 2.66e-05 
45 1 1.62116e-06 4.95e-05 2.09e-05 2.74e-05 
28 1 1.87446e-06 2.4e-05 4.44e-05 2.81e-05 
25 1 1.5401e-06 4.21e-05 3.56e-05 3.78e-05 
42 1 1.86433e-06 1.93e-05 4.66e-05 3.78e-05 
19 1 1.60089e-06 3.39e-05 3.89e-05 4.34e-05 
35 1 1.69208e-06 4.81e-05 3.86e-05 4.36e-05 
24 1 1.44891e-06 1.07e-05 8.62e-05 5.13e-06 
2 1 1.57049e-06 1.86e-05 7e-05 6.25e-06 
17 1 1.40838e-06 2.72e-05 8.15e-05 6.31e-06 
34 1 1.57049e-06 3.34e-05 8.44e-05 6.04e-06 
43 1 1.5097e-06 4.03e-05 9.77e-05 1.16e-05 
12 1 1.91499e-06 4.27e-06 7.83e-05 1.37e-05 
5 1 1.5401e-06 4.36e-05 8e-05 1.4e-05 
9 1 1.76301e-06 4.6e-05 8.29e-05 1.36e-05 
44 1 1.43878e-06 3.17e-05 6.92e-05 1.53e-05 
48 1 1.70221e-06 4.17e-05 9.75e-05 1.51e-05 
10 1 1.77314e-06 2.48e-05 8.43e-05 3.52e-05 
14 1 1.60089e-06 1.17e-05 5.23e-05 3.74e-05 
8 1 1.88459e-06 5.9e-05 4.81e-05 2.92e-06 
15 1 1.76301e-06 9.11e-05 2.08e-05 4.28e-06 
39 1 1.69208e-06 8.34e-05 2.89e-05 6.16e-06 
46 1 1.46917e-06 9.29e-05 3.84e-05 6.72e-06 
26 1 1.66168e-06 7.26e-05 3.8e-05 1.38e-05 
18 1 1.44891e-06 9.3e-05 1.65e-05 1.6e-05 
22 1 1.71235e-06 7.54e-05 4.35e-05 2.72e-05 
1 1 1.70221e-06 7.99e-05 5.52e-06 2.89e-05 
50 1 1.39825e-06 6.3e-05 1.83e-05 3.08e-05 
13 1 1.41851e-06 7.49e-05 4e-06 3.19e-05 
4 1 1.40838e-06 9.23e-05 4.41e-05 3.27e-05 
41 1 1.59076e-06 9.3e-05 2.83e-05 3.41e-05 
33 1 1.8238e-06 5.25e-05 4.73e-05 3.79e-05 
21 1 1.40838e-06 6.77e-05 2.22e-05 4.35e-05 
31 1 1.56036e-06 8.3e-05 3.16e-05 4.63e-05 
11 1 1.60089e-06 7.53e-05 8.99e-05 6.26e-06 
49 1 1.63129e-06 8.58e-05 7.74e-05 9.78e-06 
27 1 1.80354e-06 5.3e-05 7.65e-05 1.17e-05 
7 1 1.72248e-06 7.36e-05 6.06e-05 1.7e-05 
6 1 1.61102e-06 6.99e-05 7.93e-05 2.4e-05 
40 1 1.71235e-06 7.84e-05 8.89e-05 2.54e-05 
36 1 1.88459e-06 7e-05 6.97e-05 2.78e-05 
23 1 1.57049e-06 5.86e-05 8.32e-05 3.23e-05 
38 1 1.78327e-06 6.56e-05 8.4e-05 3.93e-05 
37 1 1.69208e-06 8.41e-05 7.26e-05 4.11e-05 
ITEM: TIMESTEP
300
ITEM: NUMBER OF ATOMS
50
ITEM: BOX BOUNDS ff ff ff
0.0000000000000000e+00 1.0000000000000000e-04
0.0000000000000000e+00 1.0000000000000000e-04
0.0000000000000000e+00 5.0000000000000002e-05
ITEM: ATOMS id type diameter x y z 
16 1 1.92761e-06 4.67e-05 1.07e-05 5.9e-06 
47 1 1.39726e-06 1.38e-05 4.16e-05 8.64e-06 
30 1 1.85622e-06 2.04e-05 4.66e-05 1.03e-05 
32 1 1.93781e-06 1.15e-05 3.53e-05 1.82e-05 
20 1 1.67263e-06 4.23e-05 2.93e-05 2.17e-05 
29 1 1.66244e-06 3.54e-05 8.28e-06 2.37e-05 
3 1 1.80522e-06 2.12e-05 4.17e-05 2.66e-05 
45 1 1.63184e-06 4.95e-05 2.09e-05 2.74e-05 
28 1 1.88681e-06 2.4e-05 4.44e-05 2.81e-05 
25 1 1.55025e-06 4.21e-05 3.56e-05 3.78e-05 
42 1 1.87661e-06 1.93e-05 4.66e-05 3.78e-05 
19 1 1.61144e-06 3.39e-05 3.89e-05 4.34e-05 
35 1 1.70323e-06 4.81e-05 3.86e-05 4.36e-05 
24 1 1.45846e-06 1.07e-05 8.62e-05 5.13e-06 
2 1 1.58084e-06 1.86e-05 7e-05 6.25e-06 
17 1 1.41766e-06 2.72e-05 8.15e-05 6.31e-06 
34 1 1.58084e-06 3.34e-05 8.44e-05 6.04e-06 
43 1 1.51965e-06 4.03e-05 9.77e-05 1.16e-05 
12 1 1.92761e-06 4.27e-06 7.83e-05 1.37e-05 
5 1 1.55025e-06 4.36e-05 8e-05 1.4e-05 
9 1 1.77462e-06 4.6e-05 8.29e-05 1.36e-05 
44 1 1.44826e-06 3.17e-05 6.92e-05 1.53e-05 
48 1 1.71343e-06 4.17e-05 9.75e-05 1.51e-05 
10 1 1.78482e-06 2.48e-05 8.43e-05 3.52e-05 
14 1 1.61144e-06 1.17e-05 5.23e-05 3.74e-05 
8 1 1.89701e-06 5.9e-05 4.81e-05 2.92e-06 
15 1 1.77462e-06 9.11e-05 2.08e-05 4.28e-06 
39 1 1.70323e-06 8.34e-05 2.89e-05 6.16e-06 
46 1 1.47885e-06 9.29e-05 3.84e-05 6.72e-06 
26 1 1.67263e-06 7.26e-05 3.8e-05 1.38e-05 
18 1 1.45846e-06 9.3e-05 1.65e-05 1.6e-05 
22 1 1.72363e-06 7.54e-05 4.35e-05 2.72e-05 
1 1 1.71343e-06 7.99e-05 5.52e-06 2.89e-05 
50 1 1.40746e-06 6.3e-05 1.83e-05 3.08e-05 
13 1 1.42786e-06 7.49e-05 4e-06 3.19e-05 
4 1 1.41766e-06 9.23e-05 4.41e-05 3.27e-05 
41 1 1.60124e-06 9.3e-05 2.83e-05 3.41e-05 
33 1 1.83582e-06 5.25e-05 4.73e-05 3.79e-05 
21 1 1.41766e-06 6.77e-05 2.22e-05 4.35e-05 
31 1 1.57064e-06 8.3e-05 3.16e-05 4.63e-05 
11 1 1.61144e-06 7.53e-05 8.99e-05 6.26e-06 
49 1 1.64204e-06 8.58e-05 7.74e-05 9.78e-06 
27 1 1.81542e-06 5.3e-05 7.65e-05 1.17e-05 
7 1 1.73383e-06 7.36e-05 6.06e-05 1.7e-05 
6 1 1.62164e-06 6.99e-05 7.93e-05 2.4e-05 
40 1 1.72363e-06 7.84e-05 8.89e-05 2.54e-05 
36 1 1.89701e-06 7e-05 6.97e-05 2.78e-05 
23 1 1.58084e-06 5.86e-05 8.32e-05 3.23e-05 
38 1 1.79502e-06 6.56e-05 8.4e-05 3.93e-05 
37 1 1.70323e-06 8.41e-05 7.26e-05 4.11e-05 
ITEM: TIMESTEP
400
ITEM: NUMBER OF ATOMS
50
ITEM: BOX BOUNDS ff ff ff
0.0000000000000000e+00 1.0000000000000000e-04
0.0000000000000000e+00 1.0000000000000000e-04
0.0000000000000000e+00 5.0000000000000002e-05
ITEM: ATOMS id type diameter x y z 
16 1 1.94031e-06 4.67e-05 1.07e-05 5.9e-06 
47 1 1.40647e-06 1.38e-05 4.16e-05 8.64e-06 
30 1 1.86845e-06 2.04e-05 4.66e-05 1.03e-05 
32 1 1.95058e-06 1.15e-05 3.53e-05 1.82e-05 
20 1 1.68366e-06 4.23e-05 2.93e-05 2.17e-05 
29 1 1.67339e-06 3.54e-05 8.28e-06 2.37e-05 
3 1 1.81712e-06 2.12e-05 4.17e-05 2.66e-05 
45 1 1.64259e-06 4.95e-05 2.09e-05 2.74e-05 
28 1 1.89925e-06 2.4e-05 4.44e-05 2.81e-05 
25 1 1.56046e-06 4.21e-05 3.56e-05 3.78e-05 
42 1 1.88898e-06 1.93e-05 4.66e-05 3.78e-05 
19 1 1.62206e-06 3.39e-05 3.89e-05 4.34e-05 
35 1 1.71445e-06 4.81e-05 3.86e-05 4.36e-05 
24 1 1.46807e-06 1.07e-05 8.62e-05 5.13e-06 
2 1 1.59126e-06 1.86e-05 7e-05 6.25e-06 
17 1 1.427e-06 2.72e-05 8.15e-05 6.31e-06 
34 1 1.59126e-06 3.34e-05 8.44e-05 6.04e-06 
43 1 1.52966e-06 4.03e-05 9.77e-05 1.16e-05 
12 1 1.94031e-06 4.27e-06 7.83e-05 1.37e-05 
5 1 1.56046e-06 4.36e-05 8e-05 1.4e-05 
9 1 1.78632e-06 4.6e-05 8.29e-05 1.36e-05 
44 1 1.4578e-06 3.17e-05 6.92e-05 1.53e-05 
48 1 1.72472e-06 4.17e-05 9.75e-05 1.51e-05 
10 1 1.79658e-06 2.48e-05 8.43e-05 3.52e-05 
14 1 1.62206e-06 1.17e-05 5.23e-05 3.74e-05 
8 1 1.90951e-06 5.9e-05 4.81e-05 2.92e-06 
15 1 1.78632e-06 9.11e-05 2.08e-05 4.28e-06 
39 1 1.71445e-06 8.34e-05 2.89e-05 6.16e-06 
46 1 1.4886e-06 9.29e-05 3.84e-05 6.72e-06 
26 1 1.68366e-06 7.26e-05 3.8e-05 1.38e-05 
18 1 1.46807e-06 9.3e-05 1.65e-05 1.6e-05 
22 1 1.73499e-06 7.54e-05 4.35e-05 2.72e-05 
1 1 1.72472e-06 7.99e-05 5.52e-06 2.89e-05 
50 1 1.41673e-06 6.3e-05 1.83e-05 3.08e-05 
13 1 1.43727e-06 7.49e-05 4e-06 3.19e-05 
4 1 1.427e-06 9.23e-05 4.41e-05 3.27e-05 
41 1 1.61179e-06 9.3e-05 2.83e-05 3.41e-05 
33 1 1.84791e-06 5.25e-05 4.73e-05 3.79e-05 
21 1 1.427e-06 6.77e-05 2.22e-05 4.35e-05 
31 1 1.58099e-06 8.3e-05 3.16e-05 4.63e-05 
11 1 1.62206e-06 7.53e-05 8.99e-05 6.26e-06 
49 1 1.65286e-06 8.58e-05 7.74e-05 9.78e-06 
27 1 1.82738e-06 5.3e-05 7.65e-05 1.17e-05 
7 1 1.74525e-06 7.36e-05 6.06e-05 1.7e-05 
6 1 1.63232e-06 6.99e-05 7.93e-05 2.4e-05 
40 1 1.73499e-06 7.84e-05 8.89e-05 2.54e-05 
36 1 1.90951e-06 7e-05 6.97e-05 2.78e-05 
23 1 1.59126e-06 5.86e-05 8.32e-05 3.23e-05 
38 1 1.80685e-06 6.56e-05 8.4e-05 3.93e-05 
37 1 1.71445e-06 8.41e-05 7.26e-05 4.11e-05 
ITEM: TIMESTEP
500
ITEM: NUMBER OF ATOMS
50
ITEM: BOX BOUNDS ff ff ff
0.0000000000000000e+00 1.0000000000000000e-04
0.0000000000000000e+00 1.0000000000000000e-04
0.0000000000000000e+00 5.0000000000000002e-05
ITEM: ATOMS id type diameter x y z 
16 1 1.9531e-06 4.67e-05 1.07e-05 5.9e-06 
47 1 1.41574e-06 1.38e-05 4.16e-05 8.64e-06 
30 1 1.88076e-06 2.04e-05 4.66e-05 1.03e-05 
32 1 1.96343e-06 1.15e-05 3.53e-05 1.82e-05 
20 1 1.69475e-06 4.23e-05 2.93e-05 2.17e-05 
29 1 1.68442e-06 3.54e-05 8.28e-06 2.37e-05 
3 1 1.82909e-06 2.12e-05 4.17e-05 2.66e-05 
45 1 1.65341e-06 4.95e-05 2.09e-05 2.74e-05 
28 1 1.91176e-06 2.4e-05 4.44e-05 2.81e-05 
25 1 1.57074e-06 4.21e-05 3.56e-05 3.78e-05 
42 1 1.90143e-06 1.93e-05 4.66e-05 3.78e-05 
19 1 1.63275e-06 3.39e-05 3.89e-05 4.34e-05 
35 1 1.72575e-06 4.81e-05 3.86e-05 4.36e-05 
24 1 1.47774e-06 1.07e-05 8.62e-05 5.13e-06 
2 1 1.60175e-06 1.86e-05 7e-05 6.25e-06 
17 1 1.4364e-06 2.72e-05 8.15e-05 6.31e-06 
34 1 1.60175e-06 3.34e-05 8.44e-05 6.04e-06 
43 1 1.53974e-06 4.03e-05 9.77e-05 1.16e-05 
12 1 1.9531e-06 4.27e-06 7.83e-05 1.37e-05 
5 1 1.57074e-06 4.36e-05 8e-05 1.4e-05 
9 1 1.79809e-06 4.6e-05 8.29e-05 1.36e-05 
44 1 1.46741e-06 3.17e-05 6.92e-05 1.53e-05 
48 1 1.73609e-06 4.17e-05 9.75e-05 1.51e-05 
10 1 1.80842e-06 2.48e-05 8.43e-05 3.52e-05 
14 1 1.63275e-06 1.17e-05 5.23e-05 3.74e-05 
8 1 1.92209e-06 5.9e-05 4.81e-05 2.92e-06 
15 1 1.79809e-06 9.11e-05 2.08e-05 4.28e-06 
39 1 1.72575e-06 8.34e-05 2.89e-05 6.16e-06 
46 1 1.49841e-06 9.29e-05 3.84e-05 6.72e-06 
26 1 1.69475e-06 7.26e-05 3.8e-05 1.38e-05 
18 1 1.47774e-06 9.3e-05 1.65e-05 1.6e-05 
22 1 1.74642e-06 7.54e-05 4.35e-05 2.72e-05 
1 1 1.73609e-06 7.99e-05 5.52e-06 2.89e-05 
50 1 1.42607e-06 6.3e-05 1.83e-05 3.08e-05 
13 1 1.44674e-06 7.49e-05 4e-06 3.19e-05 
4 1 1.4364e-06 9.23e-05 4.41e-05 3.27e-05 
41 1 1.62241e-06 9.3e-05 2.83e-05 3.41e-05 
33 1 1.86009e-06 5.25e-05 4.73e-05 3.79e-05 
21 1 1.4364e-06 6.77e-05 2.22e-05 4.35e-05 
31 1 1.59141e-06 8.3e-05 3.16e-05 4.63e-05 
11 1 1.63275e-06 7.53e-05 8.99e-05 6.26e-06 
49 1 1.66375e-06 8.58e-05 7.74e-05 9.78e-06 
27 1 1.83942e-06 5.3e-05 7.65e-05 1.17e-05 
7 1 1.75675e-06 7.36e-05 6.06e-05 1.7e-05 
6 1 1.64308e-06 6.99e-05 7.93e-05 2.4e-05 
40 1 1.74642e-06 7.84e-05 8.89e-05 2.54e-05 
36 1 1.92209e-06 7e-05 6.97e-05 2.78e-05 
23 1 1.60175e-06 5.86e-05 8.32e-05 3.23e-05 
38 1 1.81876e-06 6.56e-05 8.4e-05 3.93e-05 
37 1 1.72575e-06 8.41e-05 7.26e-05 4.11e-05 
ITEM: TIMESTEP
600
ITEM: NUMBER OF ATOMS
51
ITEM: BOX BOUNDS ff ff ff
0.0000000000000000e+00 1.0000000000000000e-04
0.0000000000000000e+00 1.0000000000000000e-04
0.0000000000000000e+00 5.0000000000000002e-05
ITEM: ATOMS id type diameter x y z 
16 1 1.96597e-06 4.67e-05 1.07e-05 5.9e-06 
47 1 1.42507e-06 1.38e-05 4.16e-05 8.64e-06 
30 1 1.89315e-06 2.04e-05 4.66e-05 1.03e-05 
32 1 1.66548e-06 1.15422e-05 3.61277e-05 1.82668e-05 
51 1 1.4581e-06 1.14631e-05 3.45754e-05 1.81415e-05 
20 1 1.70592e-06 4.23e-05 2.93e-05 2.17e-05 
29 1 1.69552e-06 3.54e-05 8.28e-06 2.37e-05 
3 1 1.84114e-06 2.12e-05 4.17e-05 2.66e-05 
45 1 1.66431e-06 4.95e-05 2.09e-05 2.74e-05 
28 1 1.92436e-06 2.4e-05 4.44e-05 2.81e-05 
25 1 1.58109e-06 4.21e-05 3.56e-05 3.78e-05 
42 1 1.91396e-06 1.93e-05 4.66e-05 3.78e-05 
19 1 1.64351e-06 3.39e-05 3.89e-05 4.34e-05 
35 1 1.73712e-06 4.81e-05 3.86e-05 4.36e-05 
24 1 1.48748e-06 1.07e-05 8.62e-05 5.13e-06 
2 1 1.6123e-06 1.86e-05 7e-05 6.25e-06 
17 1 1.44587e-06 2.72e-05 8.15e-05 6.31e-06 
34 1 1.6123e-06 3.34e-05 8.44e-05 6.04e-06 
43 1 1.54989e-06 4.03e-05 9.77e-05 1.16e-05 
12 1 1.96597e-06 4.27e-06 7.83e-05 1.37e-05 
5 1 1.58109e-06 4.36e-05 8e-05 1.4e-05 
9 1 1.80994e-06 4.6e-05 8.29e-05 1.36e-05 
44 1 1.47707e-06 3.17e-05 6.92e-05 1.53e-05 
48 1 1.74753e-06 4.17e-05 9.75e-05 1.51e-05 
10 1 1.82034e-06 2.48e-05 8.43e-05 3.52e-05 
14 1 1.64351e-06 1.17e-05 5.23e-05 3.74e-05 
8 1 1.93476e-06 5.9e-05 4.81e-05 2.92e-06 
15 1 1.80994e-06 9.11e-05 2.08e-05 4.28e-06 
39 1 1.73712e-06 8.34e-05 2.89e-05 6.16e-06 
46 1 1.50828e-06 9.29e-05 3.84e-05 6.72e-06 
26 1 1.70592e-06 7.26e-05 3.8e-05 1.38e-05 
18 1 1.48748e-06 9.3e-05 1.65e-05 1.6e-05 
22 1 1.75793e-06 7.54e-05 4.35e-05 2.72e-05 
1 1 1.74753e-06 7.99e-05 5.52e-06 2.89e-05 
50 1 1.43547e-06 6.3e-05 1.83e-05 3.08e-05 
13 1 1.45627e-06 7.49e-05 4e-06 3.19e-05 
4 1 1.44587e-06 9.23e-05 4.41e-05 3.27e-05 
41 1 1.6331e-06 9.3e-05 2.83e-05 3.41e-05 
33 1 1.87235e-06 5.25e-05 4.73e-05 3.79e-05 
21 1 1.44587e-06 6.77e-05 2.22e-05 4.35e-05 
31 1 1.6019e-06 8.3e-05 3.16e-05 4.63e-05 
11 1 1.64351e-06 7.53e-05 8.99e-05 6.26e-06 
49 1 1.67471e-06 8.58e-05 7.74e-05 9.78e-06 
27 1 1.85154e-06 5.3e-05 7.65e-05 1.17e-05 
7 1 1.76833e-06 7.36e-05 6.06e-05 1.7e-05 
6 1 1.65391e-06 6.99e-05 7.93e-05 2.4e-05 
40 1 1.75793e-06 7.84e-05 8.89e-05 2.54e-05 
36 1 1.93476e-06 7e-05 6.97e-05 2.78e-05 
23 1 1.6123e-06 5.86e-05 8.32e-05 3.23e-05 
38 1 1.83074e-06 6.56e-05 8.4e-05 3.93e-05 
37 1 1.73712e-06 8.41e-05 7.26e-05 4.11e-05 
ITEM: TIMESTEP
700
ITEM: NUMBER OF ATOMS
53
ITEM: BOX BOUNDS ff ff ff
0.0000000000000000e+00 1.0000000000000000e-04
0.0000000000000000e+00 1.0000000000000000e-04
0.0000000000000000e+00 5.0000000000000002e-05
ITEM: ATOMS id type diameter x y z 
16 1 1.5286e-06 4.67372e-05 1.04435e-05 6.61772e-06 
47 1 1.43446e-06 1.38e-05 4.16e-05 8.64e-06 
30 1 1.90563e-06 2.04e-05 4.66e-05 1.03e-05 
32 1 1.67645e-06 1.15422e-05 3.61277e-05 1.82668e-05 
51 1 1.46771e-06 1.14631e-05 3.45754e-05 1.81415e-05 
52 1 1.6106e-06 4.66608e-05 1.09703e-05 5.14377e-06 
20 1 1.71716e-06 4.23e-05 2.93e-05 2.17e-05 
29 1 1.70669e-06 3.54e-05 8.28e-06 2.37e-05 
3 1 1.85327e-06 2.12e-05 4.17e-05 2.66e-05 
45 1 1.67528e-06 4.95e-05 2.09e-05 2.74e-05 
28 1 1.93704e-06 2.4e-05 4.44e-05 2.81e-05 
25 1 1.59151e-06 4.21e-05 3.56e-05 3.78e-05 
42 1 1.92657e-06 1.93e-05 4.66e-05 3.78e-05 
19 1 1.65434e-06 3.39e-05 3.89e-05 4.34e-05 
35 1 1.74857e-06 4.81e-05 3.86e-05 4.36e-05 
24 1 1.49728e-06 1.07e-05 8.62e-05 5.13e-06 
2 1 1.62292e-06 1.86e-05 7e-05 6.25e-06 
17 1 1.4554e-06 2.72e-05 8.15e-05 6.31e-06 
34 1 1.62292e-06 3.34e-05 8.44e-05 6.04e-06 
43 1 1.5601e-06 4.03e-05 9.77e-05 1.16e-05 
12 1 1.66763e-06 4.31226e-06 7.91287e-05 1.37669e-05 
5 1 1.59151e-06 4.36e-05 8e-05 1.4e-05 
9 1 1.82186e-06 4.6e-05 8.29e-05 1.36e-05 
44 1 1.48681e-06 3.17e-05 6.92e-05 1.53e-05 
48 1 1.75904e-06 4.17e-05 9.75e-05 1.51e-05 
53 1 1.45998e-06 4.233e-06 7.75745e-05 1.36415e-05 
10 1 1.83233e-06 2.48e-05 8.43e-05 3.52e-05 
14 1 1.65434e-06 1.17e-05 5.23e-05 3.74e-05 
8 1 1.94751e-06 5.9e-05 4.81e-05 2.92e-06 
15 1 1.82186e-06 9.11e-05 2.08e-05 4.28e-06 
39 1 1.74857e-06 8.34e-05 2.89e-05 6.16e-06 
46 1 1.51822e-06 9.29e-05 3.84e-05 6.72e-06 
26 1 1.71716e-06 7.26e-05 3.8e-05 1.38e-05 
18 1 1.49728e-06 9.3e-05 1.65e-05 1.6e-05 
22 1 1.76951e-06 7.54e-05 4.35e-05 2.72e-05 
1 1 1.75904e-06 7.99e-05 5.52e-06 2.89e-05 
50 1 1.44493e-06 6.3e-05 1.83e-05 3.08e-05 
13 1 1.46587e-06 7.49e-05 4e-06 3.19e-05 
4 1 1.4554e-06 9.23e-05 4.41e-05 3.27e-05 
41 1 1.64387e-06 9.3e-05 2.83e-05 3.41e-05 
33 1 1.88469e-06 5.25e-05 4.73e-05 3.79e-05 
21 1 1.4554e-06 6.77e-05 2.22e-05 4.35e-05 
31 1 1.61245e-06 8.3e-05 3.16e-05 4.63e-05 
11 1 1.65434e-06 7.53e-05 8.99e-05 6.26e-06 
49 1 1.68575e-06 8.58e-05 7.74e-05 9.78e-06 
27 1 1.86375e-06 5.3e-05 7.65e-05 1.17e-05 
7 1 1.77998e-06 7.36e-05 6.06e-05 1.7e-05 
6 1 1.66481e-06 6.99e-05 7.93e-05 2.4e-05 
40 1 1.76951e-06 7.84e-05 8.89e-05 2.54e-05 
36 1 1.94751e-06 7e-05 6.97e-05 2.78e-05 
23 1 1.62292e-06 5.86e-05 8.32e-05 3.23e-05 
38 1 1.8428e-06 6.56e-05 8.4e-05 3.93e-05 
37 1 1.74857e-06 8.41e-05 7.26e-05 4.11e-05 
ITEM: TIMESTEP
800
ITEM: NUMBER OF ATOMS
53
ITEM: BOX BOUNDS ff ff ff
0.0000000000000000e+00 1.0000000000000000e-04
0.0000000000000000e+00 1.0000000000000000e-04
0.0000000000000000e+00 5.0000000000000002e-05
ITEM: ATOMS id type diameter x y z 
16 1 1.53867e-06 4.67372e-05 1.04435e-05 6.61772e-06 
47 1 1.44391e-06 1.38e-05 4.16e-05 8.64e-06 
30 1 1.91818e-06 2.04e-05 4.66e-05 1.03e-05 
32 1 1.6875e-06 1.15422e-05 3.61277e-05 1.82668e-05 
51 1 1.47738e-06 1.14631e-05 3.45754e-05 1.81415e-05 
52 1 1.62121e-06 4.66608e-05 1.09703e-05 5.14377e-06 
20 1 1.72847e-06 4.23e-05 2.93e-05 2.17e-05 
29 1 1.71793e-06 3.54e-05 8.28e-06 2.37e-05 
3 1 1.86549e-06 2.12e-05 4.17e-05 2.66e-05 
45 1 1.68632e-06 4.95e-05 2.09e-05 2.74e-05 
28 1 1.9498e-06 2.4e-05 4.44e-05 2.81e-05 
25 1 1.602e-06 4.21e-05 3.56e-05 3.78e-05 
42 1 1.93926e-06 1.93e-05 4.66e-05 3.78e-05 
19 1 1.66524e-06 3.39e-05 3.89e-05 4.34e-05 
35 1 1.76009e-06 4.81e-05 3.86e-05 4.36e-05 
24 1 1.50714e-06 1.07e-05 8.62e-05 5.13e-06 
2 1 1.63362e-06 1.86e-05 7e-05 6.25e-06 
17 1 1.46499e-06 2.72e-05 8.15e-05 6.31e-06 
34 1 1.63362e-06 3.34e-05 8.44e-05 6.04e-06 
43 1 1.57038e-06 4.03e-05 9.77e-05 1.16e-05 
12 1 1.67862e-06 4.31226e-06 7.91287e-05 1.37669e-05 
5 1 1.602e-06 4.36e-05 8e-05 1.4e-05 
9 1 1.83387e-06 4.6e-05 8.29e-05 1.36e-05 
44 1 1.49661e-06 3.17e-05 6.92e-05 1.53e-05 
48 1 1.77063e-06 4.17e-05 9.75e-05 1.51e-05 
53 1 1.4696e-06 4.233e-06 7.75745e-05 1.36415e-05 
10 1 1.84441e-06 2.48e-05 8.43e-05 3.52e-05 
14 1 1.66524e-06 1.17e-05 5.23e-05 3.74e-05 
8 1 1.96034e-06 5.9e-05 4.81e-05 2.92e-06 
15 1 1.83387e-06 9.11e-05 2.08e-05 4.28e-06 
39 1 1.76009e-06 8.34e-05 2.89e-05 6.16e-06 
46 1 1.52822e-06 9.29e-05 3.84e-05 6.72e-06 
26 1 1.72847e-06 7.26e-05 3.8e-05 1.38e-05 
18 1 1.50714e-06 9.3e-05 1.65e-05 1.6e-05 
22 1 1.78117e-06 7.54e-05 4.35e-05 2.72e-05 
1 1 1.77063e-06 7.99e-05 5.52e-06 2.89e-05 
50 1 1.45445e-06 6.3e-05 1.83e-05 3.08e-05 
13 1 1.47553e-06 7.49e-05 4e-06 3.19e-05 
4 1 1.46499e-06 9.23e-05 4.41e-05 3.27e-05 
41 1 1.6547e-06 9.3e-05 2.83e-05 3.41e-05 
33 1 1.89711e-06 5.25e-05 4.73e-05 3.79e-05 
21 1 1.46499e-06 6.77e-05 2.22e-05 4.35e-05 
31 1 1.62308e-06 8.3e-05 3.16e-05 4.63e-05 
11 1 1.66524e-06 7.53e-05 8.99e-05 6.26e-06 
49 1 1.69686e-06 8.58e-05 7.74e-05 9.78e-06 
27 1 1.87603e-06 5.3e-05 7.65e-05 1.17e-05 
7 1 1.79171e-06 7.36e-05 6.06e-05 1.7e-05 
6 1 1.67578e-06 6.99e-05 7.93e-05 2.4e-05 
40 1 1.78117e-06 7.84e-05 8.89e-05 2.54e-05 
36 1 1.96034e-06 7e-05 6.97e-05 2.78e-05 
23 1 1.63362e-06 5.86e-05 8.32e-05 3.23e-05 
38 1 1.85495e-06 6.56e-05 8.4e-05 3.93e-05 
37 1 1.76009e-06 8.41e-05 7.26e-05 4.11e-05 
ITEM: TIMESTEP
900
ITEM: NUMBER OF ATOMS
55
ITEM: BOX BOUNDS ff ff ff
0.0000000000000000e+00 1.0000000000000000e-04
0.0000000000000000e+00 1.0000000000000000e-04
0.0000000000000000e+00 5.0000000000000002e-05
ITEM: ATOMS id type diameter x y z 
16 1 1.54881e-06 4.67372e-05 1.04435e-05 6.61772e-06 
47 1 1.45342e-06 1.38e-05 4.16e-05 8.64e-06 
30 1 1.93082e-06 2.04e-05 4.66e-05 1.03e-05 
32 1 1.69862e-06 1.15432e-05 3.61476e-05 1.82684e-05 
51 1 1.48711e-06 1.1462e-05 3.45555e-05 1.81399e-05 
52 1 1.6319e-06 4.66608e-05 1.09703e-05 5.14377e-06 
20 1 1.73986e-06 4.23e-05 2.93e-05 2.17e-05 
29 1 1.72925e-06 3.54e-05 8.28e-06 2.37e-05 
3 1 1.87778e-06 2.12e-05 4.17e-05 2.66e-05 
45 1 1.69743e-06 4.95e-05 2.09e-05 2.74e-05 
28 1 1.96265e-06 2.4e-05 4.44e-05 2.81e-05 
25 1 1.61256e-06 4.21e-05 3.56e-05 3.78e-05 
42 1 1.95204e-06 1.93e-05 4.66e-05 3.78e-05 
19 1 1.67621e-06 3.39e-05 3.89e-05 4.34e-05 
35 1 1.77169e-06 4.81e-05 3.86e-05 4.36e-05 
24 1 1.51708e-06 1.07e-05 8.62e-05 5.13e-06 
2 1 1.64438e-06 1.86e-05 7e-05 6.25e-06 
17 1 1.47464e-06 2.72e-05 8.15e-05 6.31e-06 
34 1 1.64438e-06 3.34e-05 8.44e-05 6.04e-06 
43 1 1.58073e-06 4.03e-05 9.77e-05 1.16e-05 
12 1 1.68968e-06 4.31226e-06 7.91287e-05 1.37669e-05 
5 1 1.61256e-06 4.36e-05 8e-05 1.4e-05 
9 1 1.84595e-06 4.6e-05 8.29e-05 1.36e-05 
44 1 1.50647e-06 3.17e-05 6.92e-05 1.53e-05 
48 1 1.7823e-06 4.17e-05 9.75e-05 1.51e-05 
53 1 1.47929e-06 4.233e-06 7.75745e-05 1.36415e-05 
10 1 1.85656e-06 2.48e-05 8.43e-05 3.52e-05 
14 1 1.67621e-06 1.17e-05 5.23e-05 3.74e-05 
8 1 1.66286e-06 5.90421e-05 4.89264e-05 2.98668e-06 
15 1 1.84595e-06 9.11e-05 2.08e-05 4.28e-06 
39 1 1.77169e-06 8.34e-05 2.89e-05 6.16e-06 
46 1 1.53829e-06 9.29e-05 3.84e-05 6.72e-06 
26 1 1.73986e-06 7.26e-05 3.8e-05 1.38e-05 
18 1 1.51708e-06 9.3e-05 1.65e-05 1.6e-05 
54 1 1.45581e-06 5.89631e-05 4.73765e-05 2.86162e-06 
22 1 1.79291e-06 7.54e-05 4.35e-05 2.72e-05 
1 1 1.7823e-06 7.99e-05 5.52e-06 2.89e-05 
50 1 1.46403e-06 6.3e-05 1.83e-05 3.08e-05 
13 1 1.48525e-06 7.49e-05 4e-06 3.19e-05 
4 1 1.47464e-06 9.23e-05 4.41e-05 3.27e-05 
41 1 1.6656e-06 9.3e-05 2.83e-05 3.41e-05 
33 1 1.90961e-06 5.25e-05 4.73e-05 3.79e-05 
21 1 1.47464e-06 6.77e-05 2.22e-05 4.35e-05 
31 1 1.63377e-06 8.3e-05 3.16e-05 4.63e-05 
11 1 1.67621e-06 7.53e-05 8.99e-05 6.26e-06 
49 1 1.70804e-06 8.58e-05 7.74e-05 9.78e-06 
27 1 1.88839e-06 5.3e-05 7.65e-05 1.17e-05 
7 1 1.80352e-06 7.36e-05 6.06e-05 1.7e-05 
6 1 1.68682e-06 6.99e-05 7.93e-05 2.4e-05 
40 1 1.79291e-06 7.84e-05 8.89e-05 2.54e-05 
36 1 1.66286e-06 7.00421e-05 7.05264e-05 2.78667e-05 
23 1 1.64438e-06 5.86e-05 8.32e-05 3.23e-05 
38 1 1.86717e-06 6.56e-05 8.4e-05 3.93e-05 
37 1 1.77169e-06 8.41e-05 7.26e-05 4.11e-05 
55 1 1.45581e-06 6.99631e-05 6.89765e-05 2.77416e-05 
ITEM: TIMESTEP
1000
ITEM: NUMBER OF ATOMS
56
ITEM: BOX BOUNDS ff ff ff
0.0000000000000000e+00 1.0000000000000000e-04
0.0000000000000000e+00 1.0000000000000000e-04
0.0000000000000000e+00 5.0000000000000002e-05
ITEM: ATOMS id type diameter x y z 
52 1 1.64265e-06 4.66599e-05 1.0977e-05 5.12496e-06 
16 1 1.55902e-06 4.67381e-05 1.04368e-05 6.63654e-06 
47 1 1.463e-06 1.38e-05 4.16e-05 8.64e-06 
30 1 1.94355e-06 2.04e-05 4.66e-05 1.03e-05 
51 1 1.49691e-06 1.1462e-05 3.45555e-05 1.81399e-05 
32 1 1.70981e-06 1.15432e-05 3.61476e-05 1.82684e-05 
20 1 1.75133e-06 4.23e-05 2.93e-05 2.17e-05 
29 1 1.74065e-06 3.54e-05 8.28e-06 2.37e-05 
3 1 1.89015e-06 2.12e-05 4.17e-05 2.66e-05 
45 1 1.70861e-06 4.95e-05 2.09e-05 2.74e-05 
56 1 1.45752e-06 2.39631e-05 4.36757e-05 2.80416e-05 
28 1 1.66482e-06 2.40422e-05 4.52273e-05 2.81668e-05 
25 1 1.62318e-06 4.21e-05 3.56e-05 3.78e-05 
42 1 1.9649e-06 1.93e-05 4.66e-05 3.78e-05 
19 1 1.68725e-06 3.39e-05 3.89e-05 4.34e-05 
35 1 1.78336e-06 4.81e-05 3.86e-05 4.36e-05 
24 1 1.52707e-06 1.07e-05 8.62e-05 5.13e-06 
2 1 1.65522e-06 1.86e-05 7e-05 6.25e-06 
17 1 1.48436e-06 2.72e-05 8.15e-05 6.31e-06 
34 1 1.65522e-06 3.34e-05 8.44e-05 6.04e-06 
43 1 1.59115e-06 4.03e-05 9.77e-05 1.16e-05 
53 1 1.48904e-06 4.23199e-06 7.75545e-05 1.36398e-05 
12 1 1.70081e-06 4.31327e-06 7.91486e-05 1.37685e-05 
5 1 1.62318e-06 4.36e-05 8e-05 1.4e-05 
9 1 1.85812e-06 4.6e-05 8.29e-05 1.36e-05 
44 1 1.51639e-06 3.17e-05 6.92e-05 1.53e-05 
48 1 1.79404e-06 4.17e-05 9.75e-05 1.51e-05 
10 1 1.86879e-06 2.48e-05 8.43e-05 3.52e-05 
14 1 1.68725e-06 1.17e-05 5.23e-05 3.74e-05 
54 1 1.4654e-06 5.89631e-05 4.73765e-05 2.86162e-06 
8 1 1.67382e-06 5.90421e-05 4.89264e-05 2.98668e-06 
15 1 1.85812e-06 9.11e-05 2.08e-05 4.28e-06 
39 1 1.78336e-06 8.34e-05 2.89e-05 6.16e-06 
46 1 1.54843e-06 9.29e-05 3.84e-05 6.72e-06 
26 1 1.75133e-06 7.26e-05 3.8e-05 1.38e-05 
18 1 1.52707e-06 9.3e-05 1.65e-05 1.6e-05 
22 1 1.80472e-06 7.54e-05 4.35e-05 2.72e-05 
1 1 1.79404e-06 7.99e-05 5.52e-06 2.89e-05 
50 1 1.47368e-06 6.3e-05 1.83e-05 3.08e-05 
13 1 1.49504e-06 7.49e-05 4e-06 3.19e-05 
4 1 1.48436e-06 9.23e-05 4.41e-05 3.27e-05 
41 1 1.67658e-06 9.3e-05 2.83e-05 3.41e-05 
33 1 1.92219e-06 5.25e-05 4.73e-05 3.79e-05 
21 1 1.48436e-06 6.77e-05 2.22e-05 4.35e-05 
31 1 1.64454e-06 8.3e-05 3.16e-05 4.63e-05 
11 1 1.68725e-06 7.53e-05 8.99e-05 6.26e-06 
49 1 1.71929e-06 8.58e-05 7.74e-05 9.78e-06 
27 1 1.90083e-06 5.3e-05 7.65e-05 1.17e-05 
7 1 1.8154e-06 7.36e-05 6.06e-05 1.7e-05 
6 1 1.69793e-06 6.99e-05 7.93e-05 2.4e-05 
40 1 1.80472e-06 7.84e-05 8.89e-05 2.54e-05 
55 1 1.4654e-06 6.99631e-05 6.89765e-05 2.77416e-05 
36 1 1.67382e-06 7.00421e-05 7.05264e-05 2.78667e-05 
23 1 1.65522e-06 5.86e-05 8.32e-05 3.23e-05 
38 1 1.87947e-06 6.56e-05 8.4e-05 3.93e-05 
37 1 1.78336e-06 8.41e-05 7.26e-05 4.11e-05 
ITEM: TIMESTEP
1100
ITEM: NUMBER OF ATOMS
57
ITEM: BOX BOUNDS ff ff ff
0.0000000000000000e+00 1.0000000000000000e-04
0.0000000000000000e+00 1.0000000000000000e-04
0.0000000000000000e+00 5.0000000000000002e-05
ITEM: ATOMS id type diameter x y z 
52 1 1.65347e-06 4.66599e-05 1.0977e-05 5.12496e-06 
16 1 1.56929e-06 4.67381e-05 1.04368e-05 6.63654e-06 
47 1 1.47264e-06 1.38e-05 4.16e-05 8.64e-06 
30 1 1.95635e-06 2.04e-05 4.66e-05 1.03e-05 
51 1 1.50678e-06 1.1462e-05 3.45555e-05 1.81399e-05 
32 1 1.72108e-06 1.15432e-05 3.61476e-05 1.82684e-05 
20 1 1.76287e-06 4.23e-05 2.93e-05 2.17e-05 
29 1 1.75212e-06 3.54e-05 8.28e-06 2.37e-05 
3 1 1.90261e-06 2.12e-05 4.17e-05 2.66e-05 
45 1 1.71987e-06 4.95e-05 2.09e-05 2.74e-05 
56 1 1.46713e-06 2.39631e-05 4.36757e-05 2.80416e-05 
28 1 1.67579e-06 2.40422e-05 4.52273e-05 2.81668e-05 
25 1 1.63388e-06 4.21e-05 3.56e-05 3.78e-05 
42 1 1.52777e-06 1.93371e-05 4.63436e-05 3.85173e-05 
19 1 1.69837e-06 3.39e-05 3.89e-05 4.34e-05 
35 1 1.79512e-06 4.81e-05 3.86e-05 4.36e-05 
57 1 1.60973e-06 1.92609e-05 4.68701e-05 3.70442e-05 
24 1 1.53713e-06 1.07e-05 8.62e-05 5.13e-06 
2 1 1.66613e-06 1.86e-05 7e-05 6.25e-06 
17 1 1.49414e-06 2.72e-05 8.15e-05 6.31e-06 
34 1 1.66613e-06 3.34e-05 8.44e-05 6.04e-06 
43 1 1.60163e-06 4.03e-05 9.77e-05 1.16e-05 
53 1 1.49885e-06 4.23199e-06 7.75545e-05 1.36398e-05 
12 1 1.71202e-06 4.31327e-06 7.91486e-05 1.37685e-05 
5 1 1.63388e-06 4.36e-05 8e-05 1.4e-05 
9 1 1.87036e-06 4.6e-05 8.29e-05 1.36e-05 
44 1 1.52639e-06 3.17e-05 6.92e-05 1.53e-05 
48 1 1.80586e-06 4.17e-05 9.75e-05 1.51e-05 
10 1 1.88111e-06 2.48e-05 8.43e-05 3.52e-05 
14 1 1.69837e-06 1.17e-05 5.23e-05 3.74e-05 
54 1 1.47506e-06 5.89631e-05 4.73765e-05 2.86162e-06 
8 1 1.68485e-06 5.90421e-05 4.89264e-05 2.98668e-06 
15 1 1.87036e-06 9.11e-05 2.08e-05 4.28e-06 
39 1 1.79512e-06 8.34e-05 2.89e-05 6.16e-06 
46 1 1.55863e-06 9.29e-05 3.84e-05 6.72e-06 
26 1 1.76287e-06 7.26e-05 3.8e-05 1.38e-05 
18 1 1.53713e-06 9.3e-05 1.65e-05 1.6e-05 