ITEM: TIMESTEP
0
ITEM: NUMBER OF ATOMS
50
ITEM: BOX BOUNDS ff ff ff
0.0000000000000000e+00 1.0000000000000000e-04
0.0000000000000000e+00 1.0000000000000000e-04
0.0000000000000000e+00 5.0000000000000002e-05
ITEM: ATOMS id type diameter x y z 
50 1 1.51e-06 3.02e-05 2.04e-05 5.64e-06 
19 1 1.6e-06 4.16e-06 3.17e-05 1.1e-05 
38 1 1.56e-06 1.56e-05 4.65e-05 1.22e-05 
27 1 1.74e-06 2.55e-05 7.95e-06 1.27e-05 
47 1 1.58e-06 2.47e-05 2.55e-05 1.38e-05 
32 1 1.74e-06 4.56e-05 3.38e-05 2.51e-05 
37 1 1.77e-06 3.42e-05 4.65e-05 2.52e-05 
9 1 1.48e-06 4.75e-05 4.98e-05 2.71e-05 
44 1 1.73e-06 4.06e-05 1.76e-06 3.05e-05 
12 1 1.43e-06 3.19e-05 4.97e-05 3.54e-05 
18 1 1.77e-06 2.29e-05 2.64e-05 3.63e-05 
31 1 1.64e-06 8.82e-06 4.45e-05 4.21e-05 
48 1 1.9e-06 1.89e-05 1.95e-05 4.29e-05 
35 1 1.5e-06 4.31e-05 2.4e-05 4.72e-05 
43 1 1.62e-06 1.53e-05 9.22e-05 2.13e-06 
49 1 1.84e-06 1.14e-05 9.04e-05 3.48e-06 
40 1 1.46e-06 9.37e-06 9.01e-05 1.67e-05 
41 1 1.42e-06 3.35e-05 5.08e-05 2.08e-05 
8 1 1.83e-06 2.78e-06 8.88e-05 2.1e-05 
45 1 1.56e-06 3.73e-05 9.41e-05 2.12e-05 
14 1 1.74e-06 4.41e-05 8.81e-05 2.18e-05 
2 1 1.71e-06 3.68e-05 5.64e-05 2.86e-05 
1 1 1.75e-06 2.42e-05 6.41e-05 3.14e-05 
16 1 1.37e-06 8.48e-06 7.57e-05 4.01e-05 
22 1 1.49e-06 5.96e-06 8.36e-05 4.11e-05 
28 1 1.48e-06 2.84e-05 8.86e-05 4.31e-05 
46 1 1.66e-06 4.57e-06 8.1e-05 4.46e-05 
26 1 1.7e-06 9.61e-05 8.6e-06 1.95e-06 
3 1 1.55e-06 9.77e-05 3.41e-05 2.09e-06 
24 1 1.81e-06 9.62e-05 2.49e-05 4.39e-06 
42 1 1.48e-06 5.24e-05 1.79e-05 5.91e-06 
5 1 1.46e-06 6.33e-05 3.4e-05 7.78e-06 
30 1 1.76e-06 6.26e-05 3.7e-05 1.52e-05 
15 1 1.68e-06 8.66e-05 3.49e-05 1.98e-05 
29 1 1.71e-06 9.16e-05 5.62e-06 2.09e-05 
34 1 1.4e-06 6.55e-05 6.49e-06 2.16e-05 
33 1 1.39e-06 7.61e-05 3.04e-05 2.47e-05 
11 1 1.71e-06 6.62e-05 4.36e-05 3.18e-05 
39 1 1.94e-06 7.59e-05 4.84e-05 3.42e-05 
23 1 1.42e-06 8.79e-05 3.54e-06 4.54e-05 
7 1 1.72e-06 6.66e-05 9.64e-05 4.73e-06 
17 1 1.71e-06 8.88e-05 6.91e-05 7.51e-06 
13 1 1.75e-06 5.36e-05 5.01e-05 1.03e-05 
36 1 1.83e-06 7.89e-05 8.77e-05 1.71e-05 
4 1 1.87e-06 6.56e-05 6.95e-05 2.34e-05 
21 1 1.93e-06 7.76e-05 9.2e-05 2.68e-05 
20 1 1.92e-06 6.46e-05 9.48e-05 2.71e-05 
10 1 1.9e-06 5.51e-05 9.66e-05 3.06e-05 
6 1 1.71e-06 9.55e-05 9.45e-05 4.12e-05 
25 1 1.71e-06 8.2e-05 9.13e-05 4.69e-05 
ITEM: TIMESTEP
100
ITEM: NUMBER OF ATOMS
50
ITEM: BOX BOUNDS ff ff ff
0.0000000000000000e+00 1.0000000000000000e-04
0.0000000000000000e+00 1.0000000000000000e-04
0.0000000000000000e+00 5.0000000000000002e-05
ITEM: ATOMS id type diameter x y z 
50 1 1.51995e-06 3.02e-05 2.04e-05 5.64e-06 
19 1 1.61054e-06 4.16e-06 3.17e-05 1.1e-05 
38 1 1.57028e-06 1.56e-05 4.65e-05 1.22e-05 
27 1 1.75147e-06 2.55e-05 7.95e-06 1.27e-05 
47 1 1.59041e-06 2.47e-05 2.55e-05 1.38e-05 
32 1 1.75147e-06 4.56e-05 3.38e-05 2.51e-05 
37 1 1.78166e-06 3.42e-05 4.65e-05 2.52e-05 
9 1 1.48975e-06 4.75e-05 4.98e-05 2.71e-05 
44 1 1.7414e-06 4.06e-05 1.76e-06 3.05e-05 
12 1 1.43942e-06 3.19e-05 4.97e-05 3.54e-05 
18 1 1.78166e-06 2.29e-05 2.64e-05 3.63e-05 
31 1 1.65081e-06 8.82e-06 4.45e-05 4.21e-05 
48 1 1.91252e-06 1.89e-05 1.95e-05 4.29e-05 
35 1 1.50988e-06 4.31e-05 2.4e-05 4.72e-05 
43 1 1.63067e-06 1.53e-05 9.22e-05 2.13e-06 
49 1 1.85212e-06 1.14e-05 9.04e-05 3.48e-06 
40 1 1.46962e-06 9.37e-06 9.01e-05 1.67e-05 
41 1 1.42936e-06 3.35e-05 5.08e-05 2.08e-05 
8 1 1.84206e-06 2.78e-06 8.88e-05 2.1e-05 
45 1 1.57028e-06 3.73e-05 9.41e-05 2.12e-05 
14 1 1.75147e-06 4.41e-05 8.81e-05 2.18e-05 
2 1 1.72127e-06 3.68e-05 5.64e-05 2.86e-05 
1 1 1.76153e-06 2.42e-05 6.41e-05 3.14e-05 
16 1 1.37903e-06 8.48e-06 7.57e-05 4.01e-05 
22 1 1.49982e-06 5.96e-06 8.36e-05 4.11e-05 
28 1 1.48975e-06 2.84e-05 8.86e-05 4.31e-05 
46 1 1.67094e-06 4.57e-06 8.1e-05 4.46e-05 
26 1 1.7112e-06 9.61e-05 8.6e-06 1.95e-06 
3 1 1.56021e-06 9.77e-05 3.41e-05 2.09e-06 
24 1 1.82193e-06 9.62e-05 2.49e-05 4.39e-06 
42 1 1.48975e-06 5.24e-05 1.79e-05 5.91e-06 
5 1 1.46962e-06 6.33e-05 3.4e-05 7.78e-06 
30 1 1.7716e-06 6.26e-05 3.7e-05 1.52e-05 
15 1 1.69107e-06 8.66e-05 3.49e-05 1.98e-05 
29 1 1.72127e-06 9.16e-05 5.62e-06 2.09e-05 
34 1 1.40923e-06 6.55e-05 6.49e-06 2.16e-05 
33 1 1.39916e-06 7.61e-05 3.04e-05 2.47e-05 
11 1 1.72127e-06 6.62e-05 4.36e-05 3.18e-05 
39 1 1.95278e-06 7.59e-05 4.84e-05 3.42e-05 
23 1 1.42936e-06 8.79e-05 3.54e-06 4.54e-05 
7 1 1.73133e-06 6.66e-05 9.64e-05 4.73e-06 
17 1 1.72127e-06 8.88e-05 6.91e-05 7.51e-06 
13 1 1.76153e-06 5.36e-05 5.01e-05 1.03e-05 
36 1 1.84206e-06 7.89e-05 8.77e-05 1.71e-05 
4 1 1.88232e-06 6.56e-05 6.95e-05 2.34e-05 
21 1 1.94272e-06 7.76e-05 9.2e-05 2.68e-05 
20 1 1.93265e-06 6.46e-05 9.48e-05 2.71e-05 
10 1 1.91252e-06 5.51e-05 9.66e-05 3.06e-05 
6 1 1.72127e-06 9.55e-05 9.45e-05 4.12e-05 
25 1 1.72127e-06 8.2e-05 9.13e-05 4.69e-05 
ITEM: TIMESTEP
200
ITEM: NUMBER OF ATOMS
50
ITEM: BOX BOUNDS ff ff ff
0.0000000000000000e+00 1.0000000000000000e-04
0.0000000000000000e+00 1.0000000000000000e-04
0.0000000000000000e+00 5.0000000000000002e-05
ITEM: ATOMS id type diameter x y z 
50 1 1.52997e-06 3.02e-05 2.04e-05 5.64e-06 
19 1 1.62116e-06 4.16e-06 3.17e-05 1.1e-05 
38 1 1.58063e-06 1.56e-05 4.65e-05 1.22e-05 
27 1 1.76301e-06 2.55e-05 7.95e-06 1.27e-05 
47 1 1.60089e-06 2.47e-05 2.55e-05 1.38e-05 
32 1 1.76301e-06 4.56e-05 3.38e-05 2.51e-05 
37 1 1.7934e-06 3.42e-05 4.65e-05 2.52e-05 
9 1 1.49957e-06 4.75e-05 4.98e-05 2.71e-05 
44 1 1.75287e-06 4.06e-05 1.76e-06 3.05e-05 
12 1 1.44891e-06 3.19e-05 4.97e-05 3.54e-05 
18 1 1.7934e-06 2.29e-05 2.64e-05 3.63e-05 
31 1 1.66168e-06 8.82e-06 4.45e-05 4.21e-05 
48 1 1.92512e-06 1.89e-05 1.95e-05 4.29e-05 
35 1 1.51983e-06 4.31e-05 2.4e-05 4.72e-05 
43 1 1.64142e-06 1.53e-05 9.22e-05 2.13e-06 
49 1 1.86433e-06 1.14e-05 9.04e-05 3.48e-06 
40 1 1.4793e-06 9.37e-06 9.01e-05 1.67e-05 
41 1 1.43878e-06 3.35e-05 5.08e-05 2.08e-05 
8 1 1.8542e-06 2.78e-06 8.88e-05 2.1e-05 
45 1 1.58063e-06 3.73e-05 9.41e-05 2.12e-05 
14 1 1.76301e-06 4.41e-05 8.81e-05 2.18e-05 
2 1 1.73261e-06 3.68e-05 5.64e-05 2.86e-05 
1 1 1.77314e-06 2.42e-05 6.41e-05 3.14e-05 
16 1 1.38811e-06 8.48e-06 7.57e-05 4.01e-05 
22 1 1.5097e-06 5.96e-06 8.36e-05 4.11e-05 
28 1 1.49957e-06 2.84e-05 8.86e-05 4.31e-05 
46 1 1.68195e-06 4.57e-06 8.1e-05 4.46e-05 
26 1 1.72248e-06 9.61e-05 8.6e-06 1.95e-06 
3 1 1.57049e-06 9.77e-05 3.41e-05 2.09e-06 
24 1 1.83393e-06 9.62e-05 2.49e-05 4.39e-06 
42 1 1.49957e-06 5.24e-05 1.79e-05 5.91e-06 
5 1 1.4793e-06 6.33e-05 3.4e-05 7.78e-06 
30 1 1.78327e-06 6.26e-05 3.7e-05 1.52e-05 
15 1 1.70221e-06 8.66e-05 3.49e-05 1.98e-05 
29 1 1.73261e-06 9.16e-05 5.62e-06 2.09e-05 
34 1 1.41851e-06 6.55e-05 6.49e-06 2.16e-05 
33 1 1.40838e-06 7.61e-05 3.04e-05 2.47e-05 
11 1 1.73261e-06 6.62e-05 4.36e-05 3.18e-05 
39 1 1.96565e-06 7.59e-05 4.84e-05 3.42e-05 
23 1 1.43878e-06 8.79e-05 3.54e-06 4.54e-05 
7 1 1.74274e-06 6.66e-05 9.64e-05 4.73e-06 
17 1 1.73261e-06 8.88e-05 6.91e-05 7.51e-06 
13 1 1.77314e-06 5.36e-05 5.01e-05 1.03e-05 
36 1 1.8542e-06 7.89e-05 8.77e-05 1.71e-05 
4 1 1.89473e-06 6.56e-05 6.95e-05 2.34e-05 
21 1 1.95552e-06 7.76e-05 9.2e-05 2.68e-05 
20 1 1.94539e-06 6.46e-05 9.48e-05 2.71e-05 
10 1 1.92512e-06 5.51e-05 9.66e-05 3.06e-05 
6 1 1.73261e-06 9.55e-05 9.45e-05 4.12e-05 
25 1 1.73261e-06 8.2e-05 9.13e-05 4.69e-05 
ITEM: TIMESTEP
300
ITEM: NUMBER OF ATOMS
51
ITEM: BOX BOUNDS ff ff ff
0.0000000000000000e+00 1.0000000000000000e-04
0.0000000000000000e+00 1.0000000000000000e-04
0.0000000000000000e+00 5.0000000000000002e-05
ITEM: ATOMS id type diameter x y z 
50 1 1.54005e-06 3.02e-05 2.04e-05 5.64e-06 
19 1 1.63184e-06 4.16e-06 3.17e-05 1.1e-05 
38 1 1.59104e-06 1.56e-05 4.65e-05 1.22e-05 
27 1 1.77462e-06 2.55e-05 7.95e-06 1.27e-05 
47 1 1.61144e-06 2.47e-05 2.55e-05 1.38e-05 
32 1 1.77462e-06 4.56e-05 3.38e-05 2.51e-05 
37 1 1.80522e-06 3.42e-05 4.65e-05 2.52e-05 
9 1 1.50945e-06 4.75e-05 4.98e-05 2.71e-05 
44 1 1.76442e-06 4.06e-05 1.76e-06 3.05e-05 
12 1 1.45846e-06 3.19e-05 4.97e-05 3.54e-05 
18 1 1.80522e-06 2.29e-05 2.64e-05 3.63e-05 
31 1 1.67263e-06 8.82e-06 4.45e-05 4.21e-05 
48 1 1.93781e-06 1.89e-05 1.95e-05 4.29e-05 
35 1 1.52985e-06 4.31e-05 2.4e-05 4.72e-05 
43 1 1.65224e-06 1.53e-05 9.22e-05 2.13e-06 
49 1 1.87661e-06 1.14e-05 9.04e-05 3.48e-06 
40 1 1.48905e-06 9.37e-06 9.01e-05 1.67e-05 
41 1 1.44826e-06 3.35e-05 5.08e-05 2.08e-05 
8 1 1.86641e-06 2.78e-06 8.88e-05 2.1e-05 
45 1 1.59104e-06 3.73e-05 9.41e-05 2.12e-05 
14 1 1.77462e-06 4.41e-05 8.81e-05 2.18e-05 
2 1 1.74403e-06 3.68e-05 5.64e-05 2.86e-05 
1 1 1.78482e-06 2.42e-05 6.41e-05 3.14e-05 
16 1 1.39726e-06 8.48e-06 7.57e-05 4.01e-05 
22 1 1.51965e-06 5.96e-06 8.36e-05 4.11e-05 
28 1 1.50945e-06 2.84e-05 8.86e-05 4.31e-05 
46 1 1.69303e-06 4.57e-06 8.1e-05 4.46e-05 
26 1 1.73383e-06 9.61e-05 8.6e-06 1.95e-06 
3 1 1.58084e-06 9.77e-05 3.41e-05 2.09e-06 
24 1 1.84602e-06 9.62e-05 2.49e-05 4.39e-06 
42 1 1.50945e-06 5.24e-05 1.79e-05 5.91e-06 
5 1 1.48905e-06 6.33e-05 3.4e-05 7.78e-06 
30 1 1.79502e-06 6.26e-05 3.7e-05 1.52e-05 
15 1 1.71343e-06 8.66e-05 3.49e-05 1.98e-05 
29 1 1.74403e-06 9.16e-05 5.62e-06 2.09e-05 
34 1 1.42786e-06 6.55e-05 6.49e-06 2.16e-05 
33 1 1.41766e-06 7.61e-05 3.04e-05 2.47e-05 
11 1 1.74403e-06 6.62e-05 4.36e-05 3.18e-05 
39 1 1.55592e-06 7.58191e-05 4.80571e-05 3.48923e-05 
23 1 1.44826e-06 8.79e-05 3.54e-06 4.54e-05 
51 1 1.58465e-06 7.59824e-05 4.87492e-05 3.3495e-05 
7 1 1.75423e-06 6.66e-05 9.64e-05 4.73e-06 
17 1 1.74403e-06 8.88e-05 6.91e-05 7.51e-06 
13 1 1.78482e-06 5.36e-05 5.01e-05 1.03e-05 
36 1 1.86641e-06 7.89e-05 8.77e-05 1.71e-05 
4 1 1.90721e-06 6.56e-05 6.95e-05 2.34e-05 
21 1 1.9684e-06 7.76e-05 9.2e-05 2.68e-05 
20 1 1.95821e-06 6.46e-05 9.48e-05 2.71e-05 
10 1 1.93781e-06 5.51e-05 9.66e-05 3.06e-05 
6 1 1.74403e-06 9.55e-05 9.45e-05 4.12e-05 
25 1 1.74403e-06 8.2e-05 9.13e-05 4.69e-05 
ITEM: TIMESTEP
400
ITEM: NUMBER OF ATOMS
52
ITEM: BOX BOUNDS ff ff ff
0.0000000000000000e+00 1.0000000000000000e-04
0.0000000000000000e+00 1.0000000000000000e-04
0.0000000000000000e+00 5.0000000000000002e-05
ITEM: ATOMS id type diameter x y z 
50 1 1.5502e-06 3.02e-05 2.04e-05 5.64e-06 
19 1 1.64259e-06 4.16e-06 3.17e-05 1.1e-05 
38 1 1.60153e-06 1.56e-05 4.65e-05 1.22e-05 
27 1 1.78632e-06 2.55e-05 7.95e-06 1.27e-05 
47 1 1.62206e-06 2.47e-05 2.55e-05 1.38e-05 
32 1 1.78632e-06 4.56e-05 3.38e-05 2.51e-05 
37 1 1.81712e-06 3.42e-05 4.65e-05 2.52e-05 
9 1 1.5194e-06 4.75e-05 4.98e-05 2.71e-05 
44 1 1.77605e-06 4.06e-05 1.76e-06 3.05e-05 
12 1 1.46807e-06 3.19e-05 4.97e-05 3.54e-05 
18 1 1.81712e-06 2.29e-05 2.64e-05 3.63e-05 
31 1 1.68366e-06 8.82e-06 4.45e-05 4.21e-05 
48 1 1.95058e-06 1.89e-05 1.95e-05 4.29e-05 
35 1 1.53993e-06 4.31e-05 2.4e-05 4.72e-05 
43 1 1.66312e-06 1.53e-05 9.22e-05 2.13e-06 
49 1 1.88898e-06 1.14e-05 9.04e-05 3.48e-06 
40 1 1.49886e-06 9.37e-06 9.01e-05 1.67e-05 
41 1 1.4578e-06 3.35e-05 5.08e-05 2.08e-05 
8 1 1.87871e-06 2.78e-06 8.88e-05 2.1e-05 
45 1 1.60153e-06 3.73e-05 9.41e-05 2.12e-05 
14 1 1.78632e-06 4.41e-05 8.81e-05 2.18e-05 
2 1 1.75552e-06 3.68e-05 5.64e-05 2.86e-05 
1 1 1.79658e-06 2.42e-05 6.41e-05 3.14e-05 
16 1 1.40647e-06 8.48e-06 7.57e-05 4.01e-05 
22 1 1.52966e-06 5.96e-06 8.36e-05 4.11e-05 
28 1 1.5194e-06 2.84e-05 8.86e-05 4.31e-05 
46 1 1.70419e-06 4.57e-06 8.1e-05 4.46e-05 
26 1 1.74525e-06 9.61e-05 8.6e-06 1.95e-06 
3 1 1.59126e-06 9.77e-05 3.41e-05 2.09e-06 
24 1 1.85818e-06 9.62e-05 2.49e-05 4.39e-06 
42 1 1.5194e-06 5.24e-05 1.79e-05 5.91e-06 
5 1 1.49886e-06 6.33e-05 3.4e-05 7.78e-06 
30 1 1.80685e-06 6.26e-05 3.7e-05 1.52e-05 
15 1 1.72472e-06 8.66e-05 3.49e-05 1.98e-05 
29 1 1.75552e-06 9.16e-05 5.62e-06 2.09e-05 
34 1 1.43727e-06 6.55e-05 6.49e-06 2.16e-05 
33 1 1.427e-06 7.61e-05 3.04e-05 2.47e-05 
11 1 1.75552e-06 6.62e-05 4.36e-05 3.18e-05 
39 1 1.56618e-06 7.58191e-05 4.80571e-05 3.48923e-05 
23 1 1.4578e-06 8.79e-05 3.54e-06 4.54e-05 
51 1 1.59509e-06 7.59824e-05 4.87492e-05 3.3495e-05 
7 1 1.76579e-06 6.66e-05 9.64e-05 4.73e-06 
17 1 1.75552e-06 8.88e-05 6.91e-05 7.51e-06 
13 1 1.79658e-06 5.36e-05 5.01e-05 1.03e-05 
36 1 1.87871e-06 7.89e-05 8.77e-05 1.71e-05 
4 1 1.91978e-06 6.56e-05 6.95e-05 2.34e-05 
21 1 1.5581e-06 7.75189e-05 9.16567e-05 2.74932e-05 
20 1 1.97111e-06 6.46e-05 9.48e-05 2.71e-05 
10 1 1.95058e-06 5.51e-05 9.66e-05 3.06e-05 
6 1 1.75552e-06 9.55e-05 9.45e-05 4.12e-05 
25 1 1.75552e-06 8.2e-05 9.13e-05 4.69e-05 
52 1 1.58687e-06 7.76825e-05 9.23497e-05 2.6094e-05 
ITEM: TIMESTEP
500
ITEM: NUMBER OF ATOMS
53
ITEM: BOX BOUNDS ff ff ff
0.0000000000000000e+00 1.0000000000000000e-04
0.0000000000000000e+00 1.0000000000000000e-04
0.0000000000000000e+00 5.0000000000000002e-05
ITEM: ATOMS id type diameter x y z 
50 1 1.56041e-06 3.02e-05 2.04e-05 5.64e-06 
19 1 1.65341e-06 4.16e-06 3.17e-05 1.1e-05 
38 1 1.61208e-06 1.56e-05 4.65e-05 1.22e-05 
27 1 1.79809e-06 2.55e-05 7.95e-06 1.27e-05 
47 1 1.63275e-06 2.47e-05 2.55e-05 1.38e-05 
32 1 1.79809e-06 4.56e-05 3.38e-05 2.51e-05 
37 1 1.82909e-06 3.42e-05 4.65e-05 2.52e-05 
9 1 1.52941e-06 4.75e-05 4.98e-05 2.71e-05 
44 1 1.78775e-06 4.06e-05 1.76e-06 3.05e-05 
12 1 1.47774e-06 3.19e-05 4.97e-05 3.54e-05 
18 1 1.82909e-06 2.29e-05 2.64e-05 3.63e-05 
31 1 1.69475e-06 8.82e-06 4.45e-05 4.21e-05 
48 1 1.96343e-06 1.89e-05 1.95e-05 4.29e-05 
35 1 1.55008e-06 4.31e-05 2.4e-05 4.72e-05 
43 1 1.67408e-06 1.53e-05 9.22e-05 2.13e-06 
49 1 1.90143e-06 1.14e-05 9.04e-05 3.48e-06 
40 1 1.50874e-06 9.37e-06 9.01e-05 1.67e-05 
41 1 1.46741e-06 3.35e-05 5.08e-05 2.08e-05 
8 1 1.89109e-06 2.78e-06 8.88e-05 2.1e-05 
45 1 1.61208e-06 3.73e-05 9.41e-05 2.12e-05 
14 1 1.79809e-06 4.41e-05 8.81e-05 2.18e-05 
2 1 1.76709e-06 3.68e-05 5.64e-05 2.86e-05 
1 1 1.80842e-06 2.42e-05 6.41e-05 3.14e-05 
16 1 1.41574e-06 8.48e-06 7.57e-05 4.01e-05 
22 1 1.53974e-06 5.96e-06 8.36e-05 4.11e-05 
28 1 1.52941e-06 2.84e-05 8.86e-05 4.31e-05 
46 1 1.71542e-06 4.57e-06 8.1e-05 4.46e-05 
26 1 1.75675e-06 9.61e-05 8.6e-06 1.95e-06 
3 1 1.60175e-06 9.77e-05 3.41e-05 2.09e-06 
24 1 1.87043e-06 9.62e-05 2.49e-05 4.39e-06 
42 1 1.52941e-06 5.24e-05 1.79e-05 5.91e-06 
5 1 1.50874e-06 6.33e-05 3.4e-05 7.78e-06 
30 1 1.81876e-06 6.26e-05 3.7e-05 1.52e-05 
15 1 1.73609e-06 8.66e-05 3.49e-05 1.98e-05 
29 1 1.76709e-06 9.16e-05 5.62e-06 2.09e-05 
34 1 1.44674e-06 6.55e-05 6.49e-06 2.16e-05 
33 1 1.4364e-06 7.61e-05 3.04e-05 2.47e-05 
11 1 1.76709e-06 6.62e-05 4.36e-05 3.18e-05 
39 1 1.5765e-06 7.58191e-05 4.80571e-05 3.48923e-05 
23 1 1.46741e-06 8.79e-05 3.54e-06 4.54e-05 
51 1 1.6056e-06 7.59824e-05 4.87492e-05 3.3495e-05 
7 1 1.77742e-06 6.66e-05 9.64e-05 4.73e-06 
17 1 1.76709e-06 8.88e-05 6.91e-05 7.51e-06 
13 1 1.80842e-06 5.36e-05 5.01e-05 1.03e-05 
36 1 1.89109e-06 7.89e-05 8.77e-05 1.71e-05 
4 1 1.93243e-06 6.56e-05 6.95e-05 2.34e-05 
21 1 1.56837e-06 7.75189e-05 9.16567e-05 2.74932e-05 
20 1 1.5487e-06 6.45635e-05 9.51888e-05 2.64327e-05 
10 1 1.96343e-06 5.51e-05 9.66e-05 3.06e-05 
6 1 1.76709e-06 9.55e-05 9.45e-05 4.12e-05 
25 1 1.76709e-06 8.2e-05 9.13e-05 4.69e-05 
52 1 1.59733e-06 7.76825e-05 9.23497e-05 2.6094e-05 
53 1 1.60002e-06 6.46377e-05 9.43983e-05 2.77894e-05 
ITEM: TIMESTEP
600
ITEM: NUMBER OF ATOMS
55
ITEM: BOX BOUNDS ff ff ff
0.0000000000000000e+00 1.0000000000000000e-04
0.0000000000000000e+00 1.0000000000000000e-04
0.0000000000000000e+00 5.0000000000000002e-05
ITEM: ATOMS id type diameter x y z 
50 1 1.57069e-06 3.02e-05 2.04e-05 5.64e-06 
19 1 1.66431e-06 4.16e-06 3.17e-05 1.1e-05 
38 1 1.6227e-06 1.56e-05 4.65e-05 1.22e-05 
27 1 1.80994e-06 2.55e-05 7.95e-06 1.27e-05 
47 1 1.64351e-06 2.47e-05 2.55e-05 1.38e-05 
32 1 1.80994e-06 4.56e-05 3.38e-05 2.51e-05 
37 1 1.84114e-06 3.42e-05 4.65e-05 2.52e-05 
9 1 1.53949e-06 4.75e-05 4.98e-05 2.71e-05 
44 1 1.79953e-06 4.06e-05 1.76e-06 3.05e-05 
12 1 1.48748e-06 3.19e-05 4.97e-05 3.54e-05 
18 1 1.84114e-06 2.29e-05 2.64e-05 3.63e-05 
31 1 1.70592e-06 8.82e-06 4.45e-05 4.21e-05 
48 1 1.55417e-06 1.88192e-05 1.91575e-05 4.35915e-05 
35 1 1.56029e-06 4.31e-05 2.4e-05 4.72e-05 
54 1 1.58286e-06 1.89823e-05 1.98488e-05 4.21958e-05 
43 1 1.68511e-06 1.53e-05 9.22e-05 2.13e-06 
49 1 1.91396e-06 1.14e-05 9.04e-05 3.48e-06 
40 1 1.51868e-06 9.37e-06 9.01e-05 1.67e-05 
41 1 1.47707e-06 3.35e-05 5.08e-05 2.08e-05 
8 1 1.90355e-06 2.78e-06 8.88e-05 2.1e-05 
45 1 1.6227e-06 3.73e-05 9.41e-05 2.12e-05 
14 1 1.80994e-06 4.41e-05 8.81e-05 2.18e-05 
2 1 1.77873e-06 3.68e-05 5.64e-05 2.86e-05 
1 1 1.82034e-06 2.42e-05 6.41e-05 3.14e-05 
16 1 1.42507e-06 8.48e-06 7.57e-05 4.01e-05 
22 1 1.54989e-06 5.96e-06 8.36e-05 4.11e-05 
28 1 1.53949e-06 2.84e-05 8.86e-05 4.31e-05 
46 1 1.72672e-06 4.57e-06 8.1e-05 4.46e-05 
26 1 1.76833e-06 9.61e-05 8.6e-06 1.95e-06 
3 1 1.6123e-06 9.77e-05 3.41e-05 2.09e-06 
24 1 1.88275e-06 9.62e-05 2.49e-05 4.39e-06 
42 1 1.53949e-06 5.24e-05 1.79e-05 5.91e-06 
5 1 1.51868e-06 6.33e-05 3.4e-05 7.78e-06 
30 1 1.83074e-06 6.26e-05 3.7e-05 1.52e-05 
15 1 1.74753e-06 8.66e-05 3.49e-05 1.98e-05 
29 1 1.77873e-06 9.16e-05 5.62e-06 2.09e-05 
34 1 1.45627e-06 6.55e-05 6.49e-06 2.16e-05 
33 1 1.44587e-06 7.61e-05 3.04e-05 2.47e-05 
11 1 1.77873e-06 6.62e-05 4.36e-05 3.18e-05 
39 1 1.58688e-06 7.5817e-05 4.80483e-05 3.49101e-05 
23 1 1.47707e-06 8.79e-05 3.54e-06 4.54e-05 
51 1 1.61618e-06 7.59845e-05 4.8758e-05 3.34771e-05 
7 1 1.78913e-06 6.66e-05 9.64e-05 4.73e-06 
17 1 1.77873e-06 8.88e-05 6.91e-05 7.51e-06 
13 1 1.82034e-06 5.36e-05 5.01e-05 1.03e-05 
36 1 1.90355e-06 7.89e-05 8.77e-05 1.71e-05 
4 1 1.94516e-06 6.56e-05 6.95e-05 2.34e-05 
21 1 1.5787e-06 7.75189e-05 9.16567e-05 2.74932e-05 
20 1 1.5589e-06 6.45635e-05 9.51888e-05 2.64327e-05 
10 1 1.5265e-06 5.52129e-05 9.72524e-05 3.09773e-05 
6 1 1.77873e-06 9.55e-05 9.45e-05 4.12e-05 
25 1 1.77873e-06 8.2e-05 9.13e-05 4.69e-05 
52 1 1.60785e-06 7.76825e-05 9.23497e-05 2.6094e-05 
53 1 1.61057e-06 6.46377e-05 9.43983e-05 2.77894e-05 
55 1 1.60864e-06 5.4981e-05 9.59125e-05 3.02024e-05 
ITEM: TIMESTEP
700
ITEM: NUMBER OF ATOMS
55
ITEM: BOX BOUNDS ff ff ff
0.0000000000000000e+00 1.0000000000000000e-04
0.0000000000000000e+00 1.0000000000000000e-04
0.0000000000000000e+00 5.0000000000000002e-05
ITEM: ATOMS id type diameter x y z 
50 1 1.58104e-06 3.02e-05 2.04e-05 5.64e-06 
19 1 1.67528e-06 4.16e-06 3.17e-05 1.1e-05 
38 1 1.63339e-06 1.56e-05 4.65e-05 1.22e-05 
27 1 1.82186e-06 2.55e-05 7.95e-06 1.27e-05 
47 1 1.65434e-06 2.47e-05 2.55e-05 1.38e-05 
32 1 1.82186e-06 4.56e-05 3.38e-05 2.51e-05 
37 1 1.85327e-06 3.42e-05 4.65e-05 2.52e-05 
9 1 1.54963e-06 4.75e-05 4.98e-05 2.71e-05 
44 1 1.81139e-06 4.06e-05 1.76e-06 3.05e-05 
12 1 1.49728e-06 3.19e-05 4.97e-05 3.54e-05 
18 1 1.85327e-06 2.29e-05 2.64e-05 3.63e-05 
31 1 1.71716e-06 8.82e-06 4.45e-05 4.21e-05 
48 1 1.56441e-06 1.88192e-05 1.91575e-05 4.35915e-05 
35 1 1.57057e-06 4.31e-05 2.4e-05 4.72e-05 
54 1 1.59329e-06 1.89823e-05 1.98488e-05 4.21958e-05 
43 1 1.69622e-06 1.53e-05 9.22e-05 2.13e-06 
49 1 1.92657e-06 1.14e-05 9.04e-05 3.48e-06 
40 1 1.52869e-06 9.37e-06 9.01e-05 1.67e-05 
41 1 1.48681e-06 3.35e-05 5.08e-05 2.08e-05 
8 1 1.9161e-06 2.78e-06 8.88e-05 2.1e-05 
45 1 1.63339e-06 3.73e-05 9.41e-05 2.12e-05 
14 1 1.82186e-06 4.41e-05 8.81e-05 2.18e-05 
2 1 1.79045e-06 3.68e-05 5.64e-05 2.86e-05 
1 1 1.83233e-06 2.42e-05 6.41e-05 3.14e-05 
16 1 1.43446e-06 8.48e-06 7.57e-05 4.01e-05 
22 1 1.5601e-06 5.96e-06 8.36e-05 4.11e-05 
28 1 1.54963e-06 2.84e-05 8.86e-05 4.31e-05 
46 1 1.7381e-06 4.57e-06 8.1e-05 4.46e-05 
26 1 1.77998e-06 9.61e-05 8.6e-06 1.95e-06 
3 1 1.62292e-06 9.77e-05 3.41e-05 2.09e-06 
24 1 1.89516e-06 9.62e-05 2.49e-05 4.39e-06 
42 1 1.54963e-06 5.24e-05 1.79e-05 5.91e-06 
5 1 1.52869e-06 6.33e-05 3.4e-05 7.78e-06 
30 1 1.8428e-06 6.26e-05 3.7e-05 1.52e-05 
15 1 1.75904e-06 8.66e-05 3.49e-05 1.98e-05 
29 1 1.79045e-06 9.16e-05 5.62e-06 2.09e-05 
34 1 1.46587e-06 6.55e-05 6.49e-06 2.16e-05 
33 1 1.4554e-06 7.61e-05 3.04e-05 2.47e-05 
11 1 1.79045e-06 6.62e-05 4.36e-05 3.18e-05 
39 1 1.59734e-06 7.5817e-05 4.80483e-05 3.49101e-05 
23 1 1.48681e-06 8.79e-05 3.54e-06 4.54e-05 
51 1 1.62683e-06 7.59845e-05 4.8758e-05 3.34771e-05 
7 1 1.80092e-06 6.66e-05 9.64e-05 4.73e-06 
17 1 1.79045e-06 8.88e-05 6.91e-05 7.51e-06 
13 1 1.83233e-06 5.36e-05 5.01e-05 1.03e-05 
36 1 1.9161e-06 7.89e-05 8.77e-05 1.71e-05 
4 1 1.95798e-06 6.56e-05 6.95e-05 2.34e-05 
21 1 1.58911e-06 7.75169e-05 9.16478e-05 2.7511e-05 
20 1 1.56918e-06 6.45635e-05 9.51888e-05 2.64327e-05 
10 1 1.53656e-06 5.52129e-05 9.72524e-05 3.09773e-05 
6 1 1.79045e-06 9.55e-05 9.45e-05 4.12e-05 
25 1 1.79045e-06 8.2e-05 9.13e-05 4.69e-05 
52 1 1.61845e-06 7.76846e-05 9.23585e-05 2.60762e-05 
53 1 1.62118e-06 6.46377e-05 9.43983e-05 2.77894e-05 
55 1 1.61924e-06 5.4981e-05 9.59125e-05 3.02024e-05 
ITEM: TIMESTEP
800
ITEM: NUMBER OF ATOMS
55
ITEM: BOX BOUNDS ff ff ff
0.0000000000000000e+00 1.0000000000000000e-04
0.0000000000000000e+00 1.0000000000000000e-04
0.0000000000000000e+00 5.0000000000000002e-05
ITEM: ATOMS id type diameter x y z 
50 1 1.59146e-06 3.02e-05 2.04e-05 5.64e-06 
19 1 1.68632e-06 4.16e-06 3.17e-05 1.1e-05 
38 1 1.64416e-06 1.56e-05 4.65e-05 1.22e-05 
27 1 1.83387e-06 2.55e-05 7.95e-06 1.27e-05 
47 1 1.66524e-06 2.47e-05 2.55e-05 1.38e-05 
32 1 1.83387e-06 4.56e-05 3.38e-05 2.51e-05 
37 1 1.86549e-06 3.42e-05 4.65e-05 2.52e-05 
9 1 1.55984e-06 4.75e-05 4.98e-05 2.71e-05 
44 1 1.82333e-06 4.06e-05 1.76e-06 3.05e-05 
12 1 1.50714e-06 3.19e-05 4.97e-05 3.54e-05 
18 1 1.86549e-06 2.29e-05 2.64e-05 3.63e-05 
31 1 1.72847e-06 8.82e-06 4.45e-05 4.21e-05 
48 1 1.57471e-06 1.88192e-05 1.91575e-05 4.35915e-05 
35 1 1.58092e-06 4.31e-05 2.4e-05 4.72e-05 
54 1 1.60379e-06 1.89823e-05 1.98488e-05 4.21958e-05 
43 1 1.70739e-06 1.53e-05 9.22e-05 2.13e-06 
49 1 1.93926e-06 1.14e-05 9.04e-05 3.48e-06 
40 1 1.53876e-06 9.37e-06 9.01e-05 1.67e-05 
41 1 1.49661e-06 3.35e-05 5.08e-05 2.08e-05 
8 1 1.92872e-06 2.78e-06 8.88e-05 2.1e-05 
45 1 1.64416e-06 3.73e-05 9.41e-05 2.12e-05 
14 1 1.83387e-06 4.41e-05 8.81e-05 2.18e-05 
2 1 1.80225e-06 3.68e-05 5.64e-05 2.86e-05 
1 1 1.84441e-06 2.42e-05 6.41e-05 3.14e-05 
16 1 1.44391e-06 8.48e-06 7.57e-05 4.01e-05 
22 1 1.57038e-06 5.96e-06 8.36e-05 4.11e-05 
28 1 1.55984e-06 2.84e-05 8.86e-05 4.31e-05 
46 1 1.74955e-06 4.57e-06 8.1e-05 4.46e-05 
26 1 1.79171e-06 9.61e-05 8.6e-06 1.95e-06 
3 1 1.63362e-06 9.77e-05 3.41e-05 2.09e-06 
24 1 1.90764e-06 9.62e-05 2.49e-05 4.39e-06 
42 1 1.55984e-06 5.24e-05 1.79e-05 5.91e-06 
5 1 1.53876e-06 6.33e-05 3.4e-05 7.78e-06 
30 1 1.85495e-06 6.26e-05 3.7e-05 1.52e-05 
15 1 1.77063e-06 8.66e-05 3.49e-05 1.98e-05 
29 1 1.80225e-06 9.16e-05 5.62e-06 2.09e-05 
34 1 1.47553e-06 6.55e-05 6.49e-06 2.16e-05 
33 1 1.46499e-06 7.61e-05 3.04e-05 2.47e-05 
11 1 1.80225e-06 6.62e-05 4.36e-05 3.18e-05 
39 1 1.60787e-06 7.5817e-05 4.80483e-05 3.49101e-05 
23 1 1.49661e-06 8.79e-05 3.54e-06 4.54e-05 
51 1 1.63755e-06 7.59845e-05 4.8758e-05 3.34771e-05 
7 1 1.81279e-06 6.66e-05 9.64e-05 4.73e-06 
17 1 1.80225e-06 8.88e-05 6.91e-05 7.51e-06 
13 1 1.84441e-06 5.36e-05 5.01e-05 1.03e-05 
36 1 1.92872e-06 7.89e-05 8.77e-05 1.71e-05 
4 1 1.97088e-06 6.56e-05 6.95e-05 2.34e-05 
21 1 1.59958e-06 7.75169e-05 9.16478e-05 2.7511e-05 
20 1 1.57952e-06 6.45626e-05 9.51989e-05 2.64155e-05 
10 1 1.54669e-06 5.52129e-05 9.72524e-05 3.09773e-05 
6 1 1.80225e-06 9.55e-05 9.45e-05 4.12e-05 
25 1 1.80225e-06 8.2e-05 9.13e-05 4.69e-05 
52 1 1.62911e-06 7.76846e-05 9.23585e-05 2.60762e-05 
53 1 1.63186e-06 6.46386e-05 9.43883e-05 2.78066e-05 
55 1 1.62991e-06 5.4981e-05 9.59125e-05 3.02024e-05 
ITEM: TIMESTEP
900
ITEM: NUMBER OF ATOMS
56
ITEM: BOX BOUNDS ff ff ff
0.0000000000000000e+00 1.0000000000000000e-04
0.0000000000000000e+00 1.0000000000000000e-04
0.0000000000000000e+00 5.0000000000000002e-05
ITEM: ATOMS id type diameter x y z 
50 1 1.60195e-06 3.02e-05 2.04e-05 5.64e-06 
19 1 1.69743e-06 4.16e-06 3.17e-05 1.1e-05 
38 1 1.65499e-06 1.56e-05 4.65e-05 1.22e-05 
27 1 1.84595e-06 2.55e-05 7.95e-06 1.27e-05 
47 1 1.67621e-06 2.47e-05 2.55e-05 1.38e-05 
32 1 1.84595e-06 4.56e-05 3.38e-05 2.51e-05 
37 1 1.87778e-06 3.42e-05 4.65e-05 2.52e-05 
9 1 1.57012e-06 4.75e-05 4.98e-05 2.71e-05 
44 1 1.83534e-06 4.06e-05 1.76e-06 3.05e-05 
12 1 1.51708e-06 3.19e-05 4.97e-05 3.54e-05 
18 1 1.87778e-06 2.29e-05 2.64e-05 3.63e-05 
31 1 1.73986e-06 8.82e-06 4.45e-05 4.21e-05 
48 1 1.58509e-06 1.88171e-05 1.91487e-05 4.36093e-05 
35 1 1.59134e-06 4.31e-05 2.4e-05 4.72e-05 
54 1 1.61436e-06 1.89844e-05 1.98576e-05 4.21779e-05 
43 1 1.71865e-06 1.53e-05 9.22e-05 2.13e-06 
49 1 1.95204e-06 1.14e-05 9.04e-05 3.48e-06 
40 1 1.5489e-06 9.37e-06 9.01e-05 1.67e-05 
41 1 1.50647e-06 3.35e-05 5.08e-05 2.08e-05 
8 1 1.94143e-06 2.78e-06 8.88e-05 2.1e-05 
45 1 1.65499e-06 3.73e-05 9.41e-05 2.12e-05 
14 1 1.84595e-06 4.41e-05 8.81e-05 2.18e-05 
2 1 1.81413e-06 3.68e-05 5.64e-05 2.86e-05 
1 1 1.85656e-06 2.42e-05 6.41e-05 3.14e-05 
16 1 1.45342e-06 8.48e-06 7.57e-05 4.01e-05 
22 1 1.58073e-06 5.96e-06 8.36e-05 4.11e-05 
28 1 1.57012e-06 2.84e-05 8.86e-05 4.31e-05 
46 1 1.76108e-06 4.57e-06 8.1e-05 4.46e-05 
26 1 1.80352e-06 9.61e-05 8.6e-06 1.95e-06 
3 1 1.64438e-06 9.77e-05 3.41e-05 2.09e-06 
24 1 1.92021e-06 9.62e-05 2.49e-05 4.39e-06 
42 1 1.57012e-06 5.24e-05 1.79e-05 5.91e-06 
5 1 1.5489e-06 6.33e-05 3.4e-05 7.78e-06 
30 1 1.86717e-06 6.26e-05 3.7e-05 1.52e-05 
15 1 1.7823e-06 8.66e-05 3.49e-05 1.98e-05 
29 1 1.81413e-06 9.16e-05 5.62e-06 2.09e-05 
34 1 1.48525e-06 6.55e-05 6.49e-06 2.16e-05 
33 1 1.47464e-06 7.61e-05 3.04e-05 2.47e-05 
11 1 1.81413e-06 6.62e-05 4.36e-05 3.18e-05 
39 1 1.61846e-06 7.5817e-05 4.80483e-05 3.49101e-05 
23 1 1.50647e-06 8.79e-05 3.54e-06 4.54e-05 
51 1 1.64834e-06 7.59845e-05 4.8758e-05 3.34771e-05 
7 1 1.82473e-06 6.66e-05 9.64e-05 4.73e-06 
17 1 1.81413e-06 8.88e-05 6.91e-05 7.51e-06 
13 1 1.85656e-06 5.36e-05 5.01e-05 1.03e-05 
36 1 1.94143e-06 7.89e-05 8.77e-05 1.71e-05 
4 1 1.48741e-06 6.57945e-05 7.02007e-05 2.32497e-05 
21 1 1.61012e-06 7.75169e-05 9.16478e-05 2.7511e-05 
20 1 1.58992e-06 6.45626e-05 9.51989e-05 2.64155e-05 
10 1 1.55688e-06 5.52159e-05 9.72695e-05 3.09872e-05 
6 1 1.81413e-06 9.55e-05 9.45e-05 4.12e-05 
25 1 1.81413e-06 8.2e-05 9.13e-05 4.69e-05 
52 1 1.63985e-06 7.76846e-05 9.23585e-05 2.60762e-05 
53 1 1.64262e-06 6.46386e-05 9.43883e-05 2.78066e-05 
55 1 1.64065e-06 5.49781e-05 9.58954e-05 3.01924e-05 
56 1 1.65307e-06 6.53839e-05 6.87213e-05 2.35671e-05 
ITEM: TIMESTEP
1000
ITEM: NUMBER OF ATOMS
56
ITEM: BOX BOUNDS ff ff ff
0.0000000000000000e+00 1.0000000000000000e-04
0.0000000000000000e+00 1.0000000000000000e-04
0.0000000000000000e+00 5.0000000000000002e-05
ITEM: ATOMS id type diameter x y z 
50 1 1.6125e-06 3.02e-05 2.04e-05 5.64e-06 
19 1 1.70861e-06 4.16e-06 3.17e-05 1.1e-05 
38 1 1.6659e-06 1.56e-05 4.65e-05 1.22e-05 
27 1 1.85812e-06 2.55e-05 7.95e-06 1.27e-05 
47 1 1.68725e-06 2.47e-05 2.55e-05 1.38e-05 
32 1 1.85812e-06 4.56e-05 3.38e-05 2.51e-05 
37 1 1.89015e-06 3.42e-05 4.65e-05 2.52e-05 
9 1 1.58047e-06 4.75e-05 4.98e-05 2.71e-05 
44 1 1.84744e-06 4.06e-05 1.76e-06 3.05e-05 
12 1 1.52707e-06 3.19e-05 4.97e-05 3.54e-05 
18 1 1.89015e-06 2.29e-05 2.64e-05 3.63e-05 
54 1 1.625e-06 1.89844e-05 1.98576e-05 4.21779e-05 
31 1 1.75133e-06 8.82e-06 4.45e-05 4.21e-05 
48 1 1.59554e-06 1.88171e-05 1.91487e-05 4.36093e-05 
35 1 1.60182e-06 4.31e-05 2.4e-05 4.72e-05 
43 1 1.72997e-06 1.53e-05 9.22e-05 2.13e-06 
49 1 1.9649e-06 1.14e-05 9.04e-05 3.48e-06 
40 1 1.55911e-06 9.37e-06 9.01e-05 1.67e-05 
41 1 1.51639e-06 3.35e-05 5.08e-05 2.08e-05 
8 1 1.95423e-06 2.78e-06 8.88e-05 2.1e-05 
45 1 1.6659e-06 3.73e-05 9.41e-05 2.12e-05 
14 1 1.85812e-06 4.41e-05 8.81e-05 2.18e-05 
2 1 1.82608e-06 3.68e-05 5.64e-05 2.86e-05 
1 1 1.86879e-06 2.42e-05 6.41e-05 3.14e-05 
16 1 1.463e-06 8.48e-06 7.57e-05 4.01e-05 
22 1 1.59115e-06 5.96e-06 8.36e-05 4.11e-05 
28 1 1.58047e-06 2.84e-05 8.86e-05 4.31e-05 
46 1 1.77269e-06 4.57e-06 8.1e-05 4.46e-05 
26 1 1.8154e-06 9.61e-05 8.6e-06 1.95e-06 
3 1 1.65522e-06 9.77e-05 3.41e-05 2.09e-06 
24 1 1.93287e-06 9.62e-05 2.49e-05 4.39e-06 
42 1 1.58047e-06 5.24e-05 1.79e-05 5.91e-06 
5 1 1.55911e-06 6.33e-05 3.4e-05 7.78e-06 
30 1 1.87947e-06 6.26e-05 3.7e-05 1.52e-05 
15 1 1.79404e-06 8.66e-05 3.49e-05 1.98e-05 
29 1 1.82608e-06 9.16e-05 5.62e-06 2.09e-05 
34 1 1.49504e-06 6.55e-05 6.49e-06 2.16e-05 
33 1 1.48436e-06 7.61e-05 3.04e-05 2.47e-05 
11 1 1.82608e-06 6.62e-05 4.36e-05 3.18e-05 
51 1 1.65921e-06 7.59866e-05 4.87668e-05 3.34593e-05 
39 1 1.62913e-06 7.58149e-05 4.80395e-05 3.49279e-05 
23 1 1.51639e-06 8.79e-05 3.54e-06 4.54e-05 
7 1 1.83676e-06 6.66e-05 9.64e-05 4.73e-06 
17 1 1.82608e-06 8.88e-05 6.91e-05 7.51e-06 
13 1 1.86879e-06 5.36e-05 5.01e-05 1.03e-05 
36 1 1.95423e-06 7.89e-05 8.77e-05 1.71e-05 
4 1 1.49721e-06 6.57945e-05 7.02007e-05 2.32497e-05 
56 1 1.66396e-06 6.53839e-05 6.87213e-05 2.35671e-05 
52 1 1.65065e-06 7.76846e-05 9.23585e-05 2.60762e-05 
20 1 1.6004e-06 6.45626e-05 9.51989e-05 2.64155e-05 
21 1 1.62073e-06 7.75169e-05 9.16478e-05 2.7511e-05 
53 1 1.65344e-06 6.46386e-05 9.43883e-05 2.78066e-05 
55 1 1.65146e-06 5.49781e-05 9.58954e-05 3.01924e-05 
10 1 1.56714e-06 5.52159e-05 9.72695e-05 3.09872e-05 
6 1 1.82608e-06 9.55e-05 9.45e-05 4.12e-05 
25 1 1.82608e-06 8.2e-05 9.13e-05 4.69e-05 
ITEM: TIMESTEP
1100
ITEM: NUMBER OF ATOMS
57
ITEM: BOX BOUNDS ff ff ff
0.0000000000000000e+00 1.0000000000000000e-04
0.0000000000000000e+00 1.0000000000000000e-04
0.0000000000000000e+00 5.0000000000000002e-05
ITEM: ATOMS id type diameter x y z 
50 1 1.62313e-06 3.02e-05 2.04e-05 5.64e-06 
19 1 1.71987e-06 4.16e-06 3.17e-05 1.1e-05 
38 1 1.67687e-06 1.56e-05 4.65e-05 1.22e-05 
27 1 1.87036e-06 2.55e-05 7.95e-06 1.27e-05 
47 1 1.69837e-06 2.47e-05 2.55e-05 1.38e-05 
32 1 1.87036e-06 4.56e-05 3.38e-05 2.51e-05 
37 1 1.90261e-06 3.42e-05 4.65e-05 2.52e-05 
9 1 1.59088e-06 4.75e-05 4.98e-05 2.71e-05 
44 1 1.85961e-06 4.06e-05 1.76e-06 3.05e-05 
12 1 1.53713e-06 3.19e-05 4.97e-05 3.54e-05 
18 1 1.90261e-06 2.29e-05 2.64e-05 3.63e-05 
54 1 1.6357e-06 1.89844e-05 1.98576e-05 4.21779e-05 
31 1 1.76287e-06 8.82e-06 4.45e-05 4.21e-05 
48 1 1.60605e-06 1.88171e-05 1.91487e-05 4.36093e-05 