 NUFEB Simulation

     50 atoms 
     2 atom types 
     4 nutrients 

  0.0e-4   1.00e-04  xlo xhi 
  0.0e-4   1.00e-04  ylo yhi 
  0.0e-4   5.00e-05  zlo zhi 

 Atoms 

     1 1 1.69e-06  370 8.36e-05 6.00e-05 3.96e-05 1.69e-06 
     2 1 1.58e-06  370 6.88e-05 6.22e-05 4.74e-05 1.58e-06 
     3 1 1.56e-06  370 1.72e-05 3.48e-05 2.38e-05 1.56e-06 
     4 1 1.55e-06  370 4.79e-05 7.24e-05 4.44e-05 1.55e-06 
     5 1 1.45e-06  370 7.63e-06 4.70e-06 9.01e-06 1.45e-06 
     6 1 1.61e-06  370 2.25e-05 9.06e-05 4.77e-05 1.61e-06 
     7 1 1.42e-06  370 5.88e-05 5.07e-05 4.16e-05 1.42e-06 
     8 1 1.42e-06  370 4.49e-05 5.45e-05 4.29e-05 1.42e-06 
     9 1 1.76e-06  370 2.54e-05 6.21e-05 1.92e-06 1.76e-06 
     10 1 1.45e-06  370 9.26e-05 9.03e-05 4.38e-05 1.45e-06 
     11 1 1.75e-06  370 7.25e-06 8.82e-06 2.30e-05 1.75e-06 
     12 1 1.49e-06  370 9.43e-05 8.38e-05 1.92e-05 1.49e-06 
     13 1 1.62e-06  370 2.51e-05 4.25e-05 4.36e-05 1.62e-06 
     14 1 1.67e-06  370 1.52e-05 7.06e-05 2.43e-05 1.67e-06 
     15 1 1.77e-06  370 4.15e-05 2.62e-06 1.24e-05 1.77e-06 
     16 1 1.66e-06  370 4.64e-05 4.06e-05 1.87e-05 1.66e-06 
     17 1 1.89e-06  370 5.54e-05 7.00e-06 3.66e-05 1.89e-06 
     18 1 1.80e-06  370 1.40e-05 3.75e-05 4.42e-05 1.80e-06 
     19 1 1.61e-06  370 1.35e-05 3.38e-05 3.86e-05 1.61e-06 
     20 1 1.40e-06  370 9.65e-05 5.61e-05 4.13e-05 1.40e-06 
     21 1 1.55e-06  370 3.48e-06 7.24e-05 1.82e-05 1.55e-06 
     22 1 1.46e-06  370 9.83e-05 7.40e-06 2.58e-05 1.46e-06 
     23 1 1.42e-06  370 4.29e-05 3.69e-05 8.18e-06 1.42e-06 
     24 1 1.78e-06  370 2.08e-05 5.31e-06 1.33e-05 1.78e-06 
     25 1 1.46e-06  370 3.24e-05 2.14e-05 1.94e-05 1.46e-06 
     26 1 1.90e-06  370 6.94e-05 5.66e-05 1.22e-05 1.90e-06 
     27 1 1.49e-06  370 1.36e-05 7.87e-06 4.20e-05 1.49e-06 
     28 1 1.55e-06  370 2.27e-05 9.34e-05 5.75e-06 1.55e-06 
     29 1 1.87e-06  370 7.04e-05 4.70e-05 2.83e-05 1.87e-06 
     30 1 1.45e-06  370 7.22e-05 6.37e-06 2.76e-05 1.45e-06 
     31 1 1.45e-06  370 1.79e-05 2.62e-06 1.10e-05 1.45e-06 
     32 1 1.58e-06  370 5.15e-05 5.48e-05 4.36e-05 1.58e-06 
     33 1 1.87e-06  370 2.03e-05 2.13e-05 4.37e-06 1.87e-06 
     34 1 1.79e-06  370 2.53e-05 8.86e-05 4.78e-05 1.79e-06 
     35 1 1.65e-06  370 5.80e-05 1.01e-05 3.88e-05 1.65e-06 
     36 1 1.63e-06  370 7.07e-05 6.73e-05 4.58e-05 1.63e-06 
     37 1 1.67e-06  370 8.76e-05 7.65e-06 3.74e-05 1.67e-06 
     38 1 1.78e-06  370 9.81e-05 8.59e-05 1.86e-05 1.78e-06 
     39 1 1.62e-06  370 5.80e-05 4.91e-05 9.08e-06 1.62e-06 
     40 1 1.63e-06  370 7.82e-05 8.81e-05 1.94e-05 1.63e-06 
     41 1 1.52e-06  370 9.24e-05 6.12e-05 1.01e-05 1.52e-06 
     42 1 1.75e-06  370 7.09e-05 4.10e-05 3.80e-05 1.75e-06 
     43 1 1.78e-06  370 4.59e-05 8.16e-06 3.72e-05 1.78e-06 
     44 1 1.47e-06  370 1.64e-05 4.60e-05 9.31e-06 1.47e-06 
     45 1 1.62e-06  370 8.82e-05 2.61e-05 4.43e-05 1.62e-06 
     46 1 1.74e-06  370 4.86e-05 3.12e-05 3.36e-05 1.74e-06 
     47 1 1.51e-06  370 2.37e-05 7.54e-06 3.06e-05 1.51e-06 
     48 1 1.84e-06  370 1.44e-05 3.72e-05 3.59e-05 1.84e-06 
     49 1 1.52e-06  370 2.21e-05 4.62e-05 1.73e-05 1.52e-06 
     50 1 1.68e-06  370 2.17e-05 1.16e-05 3.78e-05 1.68e-06 

 Nutrients 

     1 sub g nn nn nn 1.00e-01 1.00e-01 
     2 o2 l nn nn nd 9.00e-03 9.00e-03 
     3 suc l nn nn nn 3.42e-20 3.42e-20 
     4 co2 l nn nn nd 2.99e-02 2.99e-02 

 Type Name 

     1 cyano  
     2 ecw  

 Diffusion Coeffs 

     sub 0 
     o2 2.3e-09 
     suc 5.2e-10 
     co2 1.9e-09 

 Growth Rate 

     cyano 2.047e-05 
     ecw 6.71e-05 

 Ks 

     cyano 0.00035 0.0002 0.01 0.000138 
     ecw 0 0.001 3.6 0.05 

 Yield 

     cyano 0.55 
     ecw 0.43 

 Maintenance 

     cyano 0 
     ecw 9.5e-07 

 Decay 

     cyano 0 
     ecw 0 



