LAMMPS (20 Nov 2019)
Reading data file ...
  orthogonal box = (0 0 0) to (0.0001 0.0001 5e-05)
  2 by 2 by 2 MPI processor grid
  reading atoms ...
  50 atoms
  4 nutrients
Lattice spacing in x,y,z = 100 100 100
50 atoms in group CYANO
0 atoms in group ECW
Model is defined as a closed system. 
Neighbor list info ...
  update every 1 steps, delay 0 steps, check yes
  max neighbors/atom: 5000, page size: 100000
  master list distance cutoff = 2.4e-06
  ghost atom cutoff = 2.4e-06
  binsize = 1.2e-06, bins = 84 84 42
  1 neighbor lists, perpetual/occasional/extra = 1 0 0
  (1) pair gran/hooke/history, perpetual
      attributes: half, newton off, size, history
      pair build: half/size/bin/newtoff
      stencil: half/bin/3d/newtoff
      bin: standard
Setting up Verlet run ...
  Unit style    : lj
  Current step  : 0
  Time step     : 10
Per MPI rank memory allocation (min/avg/max) = 6.981 | 10.29 | 12.36 Mbytes
Step CPU Atoms c_myNtypes[1] c_myNtypes[2] c_myMass[1] c_myMass[2] c_myCon[1] c_myCon[2] c_myCon[3] c_myCon[4] 
       0            0       50           50            0 4.2421256e-14            0          0.1        0.009     3.42e-20       0.0299 
number of iterations: 326419 
     100    5.0593498       50           50            0 4.3196479e-14            0          0.1 0.0090023343 0.0042030407  0.029896114 
number of iterations: 22730 
     200    5.6277535       50           50            0 4.3985868e-14            0          0.1  0.009002377 0.0083495453  0.029896043 
number of iterations: 22825 
     300    6.2112628       50           50            0 4.4789682e-14            0          0.1 0.0090024204  0.012571244   0.02989597 
number of iterations: 22920 
     400     6.802636       50           50            0 4.5608186e-14            0          0.1 0.0090024647  0.016869903  0.029895897 
number of iterations: 23015 
     500    7.3976511       50           50            0 4.6441648e-14            0          0.1 0.0090025097  0.021246989  0.029895822 
number of iterations: 23110 
     600    7.9655709       50           50            0 4.7290341e-14            0          0.1 0.0090025556  0.025703966  0.029895745 
number of iterations: 23206 
     700    8.5583831       51           51            0 4.8154542e-14            0          0.1 0.0090026023  0.030242318  0.029895668 
number of iterations: 23301 
     800     9.208882       52           52            0 4.9034537e-14            0          0.1 0.0090026499  0.034863548  0.029895588 
number of iterations: 23397 
     900    9.8088715       54           54            0 4.9930613e-14            0          0.1 0.0090026983   0.03956918  0.029895508 
number of iterations: 23492 
    1000    10.413762       54           54            0 5.0843064e-14            0          0.1 0.0090027476  0.044360762  0.029895426 
number of iterations: 23588 
    1100    11.003618       54           54            0 5.177219e-14            0          0.1 0.0090027978  0.049239871  0.029895342 
number of iterations: 23683 
    1200    11.588135       55           55            0 5.2718295e-14            0          0.1 0.0090028489   0.05420811  0.029895257 
number of iterations: 23779 
    1300    12.237543       55           55            0 5.3681689e-14            0          0.1  0.009002901   0.05926711   0.02989517 
number of iterations: 23874 
    1400    12.857674       55           55            0 5.4662689e-14            0          0.1  0.009002954  0.064418533  0.029895082 
number of iterations: 23970 
    1500    13.427647       55           55            0 5.5661616e-14            0          0.1  0.009003008  0.069664071  0.029894992 
number of iterations: 24066 
    1600    14.028522       56           56            0 5.6678797e-14            0          0.1  0.009003063  0.075005444    0.0298949 
number of iterations: 24161 
    1700    14.612665       60           60            0 5.7714567e-14            0          0.1  0.009003119  0.080444405  0.029894807 
number of iterations: 24257 
    1800    15.219759       61           61            0 5.8769265e-14            0          0.1  0.009003176  0.085982741  0.029894712 
number of iterations: 24353 
    1900    15.908867       62           62            0 5.9843237e-14            0          0.1  0.009003234  0.091622267  0.029894616 
number of iterations: 24449 
    2000     16.52082       64           64            0 6.0936835e-14            0          0.1 0.0090032931  0.097364834  0.029894517 
number of iterations: 24545 
    2100    17.146795       65           65            0 6.2050418e-14            0          0.1 0.0090033533   0.10321233  0.029894417 
number of iterations: 24640 
    2200    17.732889       65           65            0 6.3184351e-14            0          0.1 0.0090034146   0.10916666  0.029894315 
number of iterations: 24736 
    2300    18.340868       65           65            0 6.4339006e-14            0          0.1  0.009003477    0.1152298  0.029894211 
number of iterations: 24832 
    2400    18.931149       65           65            0 6.5514761e-14            0          0.1 0.0090035405   0.12140372  0.029894105 
number of iterations: 24928 
    2500    19.527927       65           65            0 6.6712003e-14            0          0.1 0.0090036053   0.12769046  0.029893998 
number of iterations: 23356 
    2600    20.090122       66           66            0 6.7931123e-14            0          0.1 0.0090036529   0.13409206  0.029893918 
number of iterations: 25094 
    2700    20.703633       67           67            0 6.9172522e-14            0          0.1 0.0090037196   0.14061063  0.029893807 
number of iterations: 25190 
    2800    21.312522       69           69            0 7.0436607e-14            0          0.1 0.0090037876   0.14724832  0.029893694 
number of iterations: 25286 
    2900    21.960502       70           70            0 7.1723792e-14            0          0.1 0.0090038568   0.15400729  0.029893579 
number of iterations: 25387 
    3000    22.572499       71           71            0  7.30345e-14            0          0.1 0.0090039273   0.16088983  0.029893461 
number of iterations: 25478 
    3100    23.195175       71           71            0 7.436916e-14            0          0.1 0.0090039991   0.16789812  0.029893342 
number of iterations: 24427 
    3200    23.807908       73           73            0 7.572821e-14            0          0.1 0.0090040601   0.17503448   0.02989324 
number of iterations: 25652 
    3300    24.425444       76           76            0 7.7112096e-14            0          0.1 0.0090041343   0.18230124  0.029893117 
number of iterations: 25748 
    3400    25.045058       78           78            0 7.8521271e-14            0          0.1 0.0090042099   0.18970079  0.029892991 
number of iterations: 25844 
    3500    25.642028       78           78            0 7.9956198e-14            0          0.1 0.0090042868   0.19723555  0.029892863 
number of iterations: 25941 
    3600     26.27586       78           78            0 8.1417347e-14            0          0.1 0.0090043652   0.20490799  0.029892732 
number of iterations: 26037 
    3700    26.923344       80           80            0 8.2905199e-14            0          0.1 0.0090044449   0.21272063  0.029892599 
number of iterations: 26133 
    3800    27.549603       80           80            0 8.4420239e-14            0          0.1 0.0090045262   0.22067604  0.029892464 
number of iterations: 26219 
    3900    28.213205       82           82            0 8.5962966e-14            0          0.1 0.0090046089   0.22877681  0.029892326 
number of iterations: 26326 
    4000    28.853006       86           86            0 8.7533885e-14            0          0.1 0.0090046931    0.2370256  0.029892186 
number of iterations: 26422 
    4100    29.495163       86           86            0 8.9133512e-14            0          0.1 0.0090047789   0.24542513  0.029892043 
number of iterations: 26518 
    4200    30.189556       87           87            0 9.0762371e-14            0          0.1 0.0090048662   0.25397815  0.029891898 
number of iterations: 26615 
    4300    30.825962       87           87            0 9.2420996e-14            0          0.1 0.0090049552   0.26268746   0.02989175 
number of iterations: 27048 
    4400    31.485648       91           91            0 9.4109931e-14            0          0.1 0.0090050503   0.27155591  0.029891591 
number of iterations: 27587 
    4500    32.195624       92           92            0 9.5829731e-14            0          0.1 0.0090051551   0.28058642  0.029891417 
number of iterations: 26925 
    4600    32.861262       92           92            0 9.7580959e-14            0          0.1 0.0090052493   0.28978195   0.02989126 
number of iterations: 27022 
    4700    33.528056       95           95            0 9.9364189e-14            0          0.1 0.0090053452   0.29914551    0.0298911 
number of iterations: 27118 
    4800    34.186177       96           96            0 1.0118001e-13            0          0.1 0.0090054429   0.30868018  0.029890938 
number of iterations: 27215 
    4900     34.86186       98           98            0 1.0302901e-13            0          0.1 0.0090055424   0.31838908  0.029890772 
number of iterations: 26446 
    5000    35.585086      102          102            0 1.049118e-13            0          0.1 0.0090056315    0.3282754  0.029890624 
number of iterations: 27405 
    5100    36.288208      106          106            0 1.0682899e-13            0          0.1 0.0090057344   0.33834238  0.029890452 
number of iterations: 27490 
    5200    37.011386      112          112            0 1.0878123e-13            0          0.1 0.0090058392   0.34859333  0.029890278 
number of iterations: 26585 
    5300    37.687155      113          113            0 1.1076913e-13            0          0.1 0.0090059296   0.35903159  0.029890127 
number of iterations: 27667 
    5400    38.419528      114          114            0 1.1279337e-13            0          0.1 0.0090060379   0.36966059  0.029889947 
number of iterations: 27763 
    5500    39.094313      117          117            0 1.148546e-13            0          0.1 0.0090061483   0.38048383  0.029889763 
number of iterations: 27860 
    5600    39.873694      117          117            0 1.1695349e-13            0          0.1 0.0090062606   0.39150484  0.029889576 
number of iterations: 27957 
    5700    40.520359      119          119            0 1.1909074e-13            0          0.1 0.0090063751   0.40272726  0.029889386 
number of iterations: 28059 
    5800    41.250763      122          122            0 1.2126705e-13            0          0.1 0.0090064916   0.41415474  0.029889192 
number of iterations: 28150 
    5900    41.980508      123          123            0 1.2348313e-13            0          0.1 0.0090066102   0.42579105  0.029888994 
number of iterations: 27553 
    6000    42.670994      126          126            0 1.257397e-13            0          0.1 0.0090067187   0.43764001  0.029888813 
number of iterations: 28332 
    6100    43.347364      127          127            0 1.2803751e-13            0          0.1 0.0090068415   0.44970549  0.029888609 
number of iterations: 28132 
    6200    44.056011      131          131            0 1.3037732e-13            0          0.1 0.0090069579   0.46199138  0.029888415 
number of iterations: 28520 
    6300    44.802206      131          131            0 1.3275988e-13            0          0.1 0.0090070851   0.47450178  0.029888203 
number of iterations: 28617 
    6400    45.656599      134          134            0 1.3518598e-13            0          0.1 0.0090072146   0.48724079  0.029887988 
number of iterations: 28714 
    6500     46.53032      137          137            0 1.3765642e-13            0          0.1 0.0090073464    0.5002126  0.029887768 
number of iterations: 28365 
    6600    47.245564      140          140            0  1.40172e-13            0          0.1 0.0090074724   0.51342147  0.029887558 
number of iterations: 28900 
    6700    47.928948      144          144            0 1.4273355e-13            0          0.1 0.0090076089   0.52687171  0.029887331 
number of iterations: 28997 
    6800    48.629855      146          146            0 1.4534192e-13            0          0.1  0.009007748   0.54056775  0.029887099 
number of iterations: 29093 
    6900    49.304389      147          147            0 1.4799795e-13            0          0.1 0.0090078896   0.55451406  0.029886864 
number of iterations: 29190 
    7000    50.008274      149          149            0 1.5070251e-13            0          0.1 0.0090080337   0.56871523  0.029886624 
number of iterations: 29958 
    7100    50.743128      151          151            0 1.534565e-13            0          0.1 0.0090082005   0.58317592  0.029886346 
number of iterations: 29397 
    7200    51.455342      152          152            0 1.5626082e-13            0          0.1 0.0090083504   0.59790087  0.029886096 
number of iterations: 29494 
    7300    52.190738      154          154            0 1.5911639e-13            0          0.1  0.009008503    0.6128949  0.029885842 
number of iterations: 29586 
    7400    52.890483      157          157            0 1.6202413e-13            0          0.1 0.0090086584   0.62816294  0.029885584 
number of iterations: 29687 
    7500    53.589598      160          160            0 1.6498502e-13            0          0.1 0.0090088166   0.64370999   0.02988532 
number of iterations: 30004 
    7600    54.331963      162          162            0 1.6800001e-13            0          0.1  0.009008983   0.65954114  0.029885043 
number of iterations: 29885 
    7700     55.04712      163          163            0 1.710701e-13            0          0.1 0.0090091471   0.67566159   0.02988477 
number of iterations: 30157 
    7800    55.771429      167          167            0 1.741963e-13            0          0.1 0.0090093186   0.69207662  0.029884484 
number of iterations: 30498 
    7900    56.489827      173          173            0 1.7737962e-13            0          0.1 0.0090094999    0.7087916  0.029884182 
number of iterations: 30187 
    8000     57.26869      178          178            0 1.8062112e-13            0          0.1 0.0090096735   0.72581204  0.029883893 
number of iterations: 30284 
    8100    58.002254      180          180            0 1.8392185e-13            0          0.1 0.0090098503   0.74314351  0.029883599 
number of iterations: 30381 
    8200    58.715336      181          181            0 1.872829e-13            0          0.1 0.0090100303    0.7607917  0.029883299 
number of iterations: 30478 
    8300    59.453881      186          186            0 1.9070537e-13            0          0.1 0.0090102136   0.77876238  0.029882994 
number of iterations: 30575 
    8400    60.185539      189          189            0 1.9419038e-13            0          0.1 0.0090104003   0.79706147  0.029882683 
number of iterations: 30673 
    8500    60.897431      190          190            0 1.9773908e-13            0          0.1 0.0090105903   0.81569495  0.029882367 
number of iterations: 30771 
    8600    61.645858      193          193            0 2.0135264e-13            0          0.1 0.0090107839   0.83466894  0.029882044 
number of iterations: 30866 
    8700      62.4206      199          199            0 2.0503222e-13            0          0.1 0.0090109809   0.85398966  0.029881716 
number of iterations: 29537 
    8800    63.108913      203          203            0 2.0877905e-13            0          0.1 0.0090111378   0.87366342  0.029881455 
number of iterations: 30924 
    8900     63.86636      212          212            0 2.1259435e-13            0          0.1 0.0090113343   0.89369669  0.029881128 
number of iterations: 30751 
    9000    64.645584      217          217            0 2.1647937e-13            0          0.1 0.0090115304   0.91409609  0.029880801 
number of iterations: 31501 
    9100    65.559859      222          222            0 2.2043538e-13            0          0.1 0.0090117496   0.93486824  0.029880436 
number of iterations: 31326 
    9200    66.382088      227          227            0 2.2446369e-13            0          0.1 0.0090119643   0.95601998  0.029880079 
number of iterations: 31094 
    9300    67.503877      231          231            0 2.2856561e-13            0          0.1 0.0090121723   0.97755826  0.029879733 
number of iterations: 31515 
    9400    68.345699      233          233            0 2.327425e-13            0          0.1 0.0090123947   0.99949013  0.029879362 
number of iterations: 31134 
    9500    69.140809      237          237            0 2.3699571e-13            0          0.1 0.0090126043    1.0218228  0.029879013 
number of iterations: 32140 
    9600    69.971564      238          238            0 2.4132664e-13            0          0.1 0.0090128519    1.0445635  0.029878601 
number of iterations: 32008 
    9700    70.707664      239          239            0 2.4573673e-13            0          0.1 0.0090130937    1.0677198  0.029878198 
number of iterations: 31907 
    9800    71.460262      246          246            0 2.502274e-13            0          0.1  0.009013333    1.0912993    0.0298778 
number of iterations: 31883 
    9900    72.238254      249          249            0 2.5480013e-13            0          0.1 0.0090135724    1.1153097  0.029877401 
number of iterations: 32384 
   10000    73.043171      255          255            0 2.5945643e-13            0          0.1 0.0090138314    1.1397588   0.02987697 
Loop time of 73.0432 on 8 procs for 10000 steps with 255 atoms

Performance: 118286135.933 tau/day, 136.905 timesteps/s
88.1% CPU use with 8 MPI tasks x no OpenMP threads

MPI task timing breakdown:
Section |  min time  |  avg time  |  max time  |%varavg| %total
---------------------------------------------------------------
Pair    | 0.0079499  | 0.010802   | 0.013964   |   1.8 |  0.01
Neigh   | 0.0074477  | 0.0090499  | 0.010524   |   1.3 |  0.01
Comm    | 0.030354   | 0.047764   | 0.065395   |   5.6 |  0.07
Output  | 13.088     | 13.089     | 13.091     |   0.0 | 17.92
Modify  | 59.813     | 59.815     | 59.819     |   0.0 | 81.89
Other   |            | 0.07168    |            |       |  0.10

Nlocal:    31.875 ave 64 max 5 min
Histogram: 1 1 0 2 1 0 1 1 0 1
Nghost:    6.75 ave 14 max 1 min
Histogram: 2 0 1 0 1 1 2 0 0 1
Neighs:    35.125 ave 71 max 4 min
Histogram: 1 1 0 2 1 0 0 2 0 1

Total # of neighbors = 281
Ave neighs/atom = 1.10196
Neighbor list builds = 115
Dangerous builds = 0
Total wall time: 0:01:13
