ITEM: TIMESTEP
0
ITEM: NUMBER OF ATOMS
50
ITEM: BOX BOUNDS ff ff ff
0.0000000000000000e+00 1.0000000000000000e-04
0.0000000000000000e+00 1.0000000000000000e-04
0.0000000000000000e+00 5.0000000000000002e-05
ITEM: ATOMS id type diameter x y z 
33 1 1.87e-06 2.03e-05 2.13e-05 4.37e-06 
23 1 1.42e-06 4.29e-05 3.69e-05 8.18e-06 
5 1 1.45e-06 7.63e-06 4.7e-06 9.01e-06 
44 1 1.47e-06 1.64e-05 4.6e-05 9.31e-06 
31 1 1.45e-06 1.79e-05 2.62e-06 1.1e-05 
15 1 1.77e-06 4.15e-05 2.62e-06 1.24e-05 
24 1 1.78e-06 2.08e-05 5.31e-06 1.33e-05 
49 1 1.52e-06 2.21e-05 4.62e-05 1.73e-05 
16 1 1.66e-06 4.64e-05 4.06e-05 1.87e-05 
25 1 1.46e-06 3.24e-05 2.14e-05 1.94e-05 
11 1 1.75e-06 7.25e-06 8.82e-06 2.3e-05 
3 1 1.56e-06 1.72e-05 3.48e-05 2.38e-05 
47 1 1.51e-06 2.37e-05 7.54e-06 3.06e-05 
46 1 1.74e-06 4.86e-05 3.12e-05 3.36e-05 
48 1 1.84e-06 1.44e-05 3.72e-05 3.59e-05 
43 1 1.78e-06 4.59e-05 8.16e-06 3.72e-05 
50 1 1.68e-06 2.17e-05 1.16e-05 3.78e-05 
19 1 1.61e-06 1.35e-05 3.38e-05 3.86e-05 
27 1 1.49e-06 1.36e-05 7.87e-06 4.2e-05 
13 1 1.62e-06 2.51e-05 4.25e-05 4.36e-05 
18 1 1.8e-06 1.4e-05 3.75e-05 4.42e-05 
9 1 1.76e-06 2.54e-05 6.21e-05 1.92e-06 
28 1 1.55e-06 2.27e-05 9.34e-05 5.75e-06 
21 1 1.55e-06 3.48e-06 7.24e-05 1.82e-05 
14 1 1.67e-06 1.52e-05 7.06e-05 2.43e-05 
8 1 1.42e-06 4.49e-05 5.45e-05 4.29e-05 
4 1 1.55e-06 4.79e-05 7.24e-05 4.44e-05 
34 1 1.79e-06 2.53e-05 8.86e-05 4.78e-05 
6 1 1.61e-06 2.25e-05 9.06e-05 4.77e-05 
39 1 1.62e-06 5.8e-05 4.91e-05 9.08e-06 
22 1 1.46e-06 9.83e-05 7.4e-06 2.58e-05 
30 1 1.45e-06 7.22e-05 6.37e-06 2.76e-05 
29 1 1.87e-06 7.04e-05 4.7e-05 2.83e-05 
17 1 1.89e-06 5.54e-05 7e-06 3.66e-05 
37 1 1.67e-06 8.76e-05 7.65e-06 3.74e-05 
42 1 1.75e-06 7.09e-05 4.1e-05 3.8e-05 
35 1 1.65e-06 5.8e-05 1.01e-05 3.88e-05 
45 1 1.62e-06 8.82e-05 2.61e-05 4.43e-05 
41 1 1.52e-06 9.24e-05 6.12e-05 1.01e-05 
26 1 1.9e-06 6.94e-05 5.66e-05 1.22e-05 
38 1 1.78e-06 9.81e-05 8.59e-05 1.86e-05 
12 1 1.49e-06 9.43e-05 8.38e-05 1.92e-05 
40 1 1.63e-06 7.82e-05 8.81e-05 1.94e-05 
1 1 1.69e-06 8.36e-05 6e-05 3.96e-05 
20 1 1.4e-06 9.65e-05 5.61e-05 4.13e-05 
7 1 1.42e-06 5.88e-05 5.07e-05 4.16e-05 
32 1 1.58e-06 5.15e-05 5.48e-05 4.36e-05 
10 1 1.45e-06 9.26e-05 9.03e-05 4.38e-05 
36 1 1.63e-06 7.07e-05 6.73e-05 4.58e-05 
2 1 1.58e-06 6.88e-05 6.22e-05 4.74e-05 
ITEM: TIMESTEP
100
ITEM: NUMBER OF ATOMS
50
ITEM: BOX BOUNDS ff ff ff
0.0000000000000000e+00 1.0000000000000000e-04
0.0000000000000000e+00 1.0000000000000000e-04
0.0000000000000000e+00 5.0000000000000002e-05
ITEM: ATOMS id type diameter x y z 
33 1 1.88132e-06 2.03e-05 2.13e-05 4.37e-06 
23 1 1.4286e-06 4.29e-05 3.69e-05 8.18e-06 
5 1 1.45878e-06 7.63e-06 4.7e-06 9.01e-06 
44 1 1.4789e-06 1.64e-05 4.6e-05 9.31e-06 
31 1 1.45878e-06 1.79e-05 2.62e-06 1.1e-05 
15 1 1.78072e-06 4.15e-05 2.62e-06 1.24e-05 
24 1 1.79078e-06 2.08e-05 5.31e-06 1.33e-05 
49 1 1.5292e-06 2.21e-05 4.62e-05 1.73e-05 
16 1 1.67005e-06 4.64e-05 4.06e-05 1.87e-05 
25 1 1.46884e-06 3.24e-05 2.14e-05 1.94e-05 
11 1 1.7606e-06 7.25e-06 8.82e-06 2.3e-05 
3 1 1.56945e-06 1.72e-05 3.48e-05 2.38e-05 
47 1 1.51914e-06 2.37e-05 7.54e-06 3.06e-05 
46 1 1.75054e-06 4.86e-05 3.12e-05 3.36e-05 
48 1 1.85114e-06 1.44e-05 3.72e-05 3.59e-05 
43 1 1.79078e-06 4.59e-05 8.16e-06 3.72e-05 
50 1 1.69017e-06 2.17e-05 1.16e-05 3.78e-05 
19 1 1.61975e-06 1.35e-05 3.38e-05 3.86e-05 
27 1 1.49902e-06 1.36e-05 7.87e-06 4.2e-05 
13 1 1.62981e-06 2.51e-05 4.25e-05 4.36e-05 
18 1 1.8109e-06 1.4e-05 3.75e-05 4.42e-05 
9 1 1.77066e-06 2.54e-05 6.21e-05 1.92e-06 
28 1 1.55938e-06 2.27e-05 9.34e-05 5.75e-06 
21 1 1.55938e-06 3.48e-06 7.24e-05 1.82e-05 
14 1 1.68011e-06 1.52e-05 7.06e-05 2.43e-05 
8 1 1.4286e-06 4.49e-05 5.45e-05 4.29e-05 
4 1 1.55938e-06 4.79e-05 7.24e-05 4.44e-05 
34 1 1.80084e-06 2.53e-05 8.86e-05 4.78e-05 
6 1 1.61975e-06 2.25e-05 9.06e-05 4.77e-05 
39 1 1.62981e-06 5.8e-05 4.91e-05 9.08e-06 
22 1 1.46884e-06 9.83e-05 7.4e-06 2.58e-05 
30 1 1.45878e-06 7.22e-05 6.37e-06 2.76e-05 
29 1 1.88132e-06 7.04e-05 4.7e-05 2.83e-05 
17 1 1.90144e-06 5.54e-05 7e-06 3.66e-05 
37 1 1.68011e-06 8.76e-05 7.65e-06 3.74e-05 
42 1 1.7606e-06 7.09e-05 4.1e-05 3.8e-05 
35 1 1.65999e-06 5.8e-05 1.01e-05 3.88e-05 
45 1 1.62981e-06 8.82e-05 2.61e-05 4.43e-05 
41 1 1.5292e-06 9.24e-05 6.12e-05 1.01e-05 
26 1 1.9115e-06 6.94e-05 5.66e-05 1.22e-05 
38 1 1.79078e-06 9.81e-05 8.59e-05 1.86e-05 
12 1 1.49902e-06 9.43e-05 8.38e-05 1.92e-05 
40 1 1.63987e-06 7.82e-05 8.81e-05 1.94e-05 
1 1 1.70023e-06 8.36e-05 6e-05 3.96e-05 
20 1 1.40848e-06 9.65e-05 5.61e-05 4.13e-05 
7 1 1.4286e-06 5.88e-05 5.07e-05 4.16e-05 
32 1 1.58957e-06 5.15e-05 5.48e-05 4.36e-05 
10 1 1.45878e-06 9.26e-05 9.03e-05 4.38e-05 
36 1 1.63987e-06 7.07e-05 6.73e-05 4.58e-05 
2 1 1.58957e-06 6.88e-05 6.22e-05 4.74e-05 
ITEM: TIMESTEP
200
ITEM: NUMBER OF ATOMS
50
ITEM: BOX BOUNDS ff ff ff
0.0000000000000000e+00 1.0000000000000000e-04
0.0000000000000000e+00 1.0000000000000000e-04
0.0000000000000000e+00 5.0000000000000002e-05
ITEM: ATOMS id type diameter x y z 
33 1 1.89271e-06 2.03e-05 2.13e-05 4.37e-06 
23 1 1.43725e-06 4.29e-05 3.69e-05 8.18e-06 
5 1 1.46761e-06 7.63e-06 4.7e-06 9.01e-06 
44 1 1.48785e-06 1.64e-05 4.6e-05 9.31e-06 
31 1 1.46761e-06 1.79e-05 2.62e-06 1.1e-05 
15 1 1.7915e-06 4.15e-05 2.62e-06 1.24e-05 
24 1 1.80162e-06 2.08e-05 5.31e-06 1.33e-05 
49 1 1.53846e-06 2.21e-05 4.62e-05 1.73e-05 
16 1 1.68016e-06 4.64e-05 4.06e-05 1.87e-05 
25 1 1.47773e-06 3.24e-05 2.14e-05 1.94e-05 
11 1 1.77126e-06 7.25e-06 8.82e-06 2.3e-05 
3 1 1.57895e-06 1.72e-05 3.48e-05 2.38e-05 
47 1 1.52834e-06 2.37e-05 7.54e-06 3.06e-05 
46 1 1.76113e-06 4.86e-05 3.12e-05 3.36e-05 
48 1 1.86235e-06 1.44e-05 3.72e-05 3.59e-05 
43 1 1.80162e-06 4.59e-05 8.16e-06 3.72e-05 
50 1 1.70041e-06 2.17e-05 1.16e-05 3.78e-05 
19 1 1.62956e-06 1.35e-05 3.38e-05 3.86e-05 
27 1 1.5081e-06 1.36e-05 7.87e-06 4.2e-05 
13 1 1.63968e-06 2.51e-05 4.25e-05 4.36e-05 
18 1 1.82186e-06 1.4e-05 3.75e-05 4.42e-05 
9 1 1.78138e-06 2.54e-05 6.21e-05 1.92e-06 
28 1 1.56883e-06 2.27e-05 9.34e-05 5.75e-06 
21 1 1.56883e-06 3.48e-06 7.24e-05 1.82e-05 
14 1 1.69028e-06 1.52e-05 7.06e-05 2.43e-05 
8 1 1.43725e-06 4.49e-05 5.45e-05 4.29e-05 
4 1 1.56883e-06 4.79e-05 7.24e-05 4.44e-05 
34 1 1.81174e-06 2.53e-05 8.86e-05 4.78e-05 
6 1 1.62956e-06 2.25e-05 9.06e-05 4.77e-05 
39 1 1.63968e-06 5.8e-05 4.91e-05 9.08e-06 
22 1 1.47773e-06 9.83e-05 7.4e-06 2.58e-05 
30 1 1.46761e-06 7.22e-05 6.37e-06 2.76e-05 
29 1 1.89271e-06 7.04e-05 4.7e-05 2.83e-05 
17 1 1.91296e-06 5.54e-05 7e-06 3.66e-05 
37 1 1.69028e-06 8.76e-05 7.65e-06 3.74e-05 
42 1 1.77126e-06 7.09e-05 4.1e-05 3.8e-05 
35 1 1.67004e-06 5.8e-05 1.01e-05 3.88e-05 
45 1 1.63968e-06 8.82e-05 2.61e-05 4.43e-05 
41 1 1.53846e-06 9.24e-05 6.12e-05 1.01e-05 
26 1 1.92308e-06 6.94e-05 5.66e-05 1.22e-05 
38 1 1.80162e-06 9.81e-05 8.59e-05 1.86e-05 
12 1 1.5081e-06 9.43e-05 8.38e-05 1.92e-05 
40 1 1.6498e-06 7.82e-05 8.81e-05 1.94e-05 
1 1 1.71053e-06 8.36e-05 6e-05 3.96e-05 
20 1 1.417e-06 9.65e-05 5.61e-05 4.13e-05 
7 1 1.43725e-06 5.88e-05 5.07e-05 4.16e-05 
32 1 1.59919e-06 5.15e-05 5.48e-05 4.36e-05 
10 1 1.46761e-06 9.26e-05 9.03e-05 4.38e-05 
36 1 1.6498e-06 7.07e-05 6.73e-05 4.58e-05 
2 1 1.59919e-06 6.88e-05 6.22e-05 4.74e-05 
ITEM: TIMESTEP
300
ITEM: NUMBER OF ATOMS
50
ITEM: BOX BOUNDS ff ff ff
0.0000000000000000e+00 1.0000000000000000e-04
0.0000000000000000e+00 1.0000000000000000e-04
0.0000000000000000e+00 5.0000000000000002e-05
ITEM: ATOMS id type diameter x y z 
33 1 1.90417e-06 2.03e-05 2.13e-05 4.37e-06 
23 1 1.44595e-06 4.29e-05 3.69e-05 8.18e-06 
5 1 1.4765e-06 7.63e-06 4.7e-06 9.01e-06 
44 1 1.49686e-06 1.64e-05 4.6e-05 9.31e-06 
31 1 1.4765e-06 1.79e-05 2.62e-06 1.1e-05 
15 1 1.80235e-06 4.15e-05 2.62e-06 1.24e-05 
24 1 1.81253e-06 2.08e-05 5.31e-06 1.33e-05 
49 1 1.54778e-06 2.21e-05 4.62e-05 1.73e-05 
16 1 1.69034e-06 4.64e-05 4.06e-05 1.87e-05 
25 1 1.48668e-06 3.24e-05 2.14e-05 1.94e-05 
11 1 1.78198e-06 7.25e-06 8.82e-06 2.3e-05 
3 1 1.58851e-06 1.72e-05 3.48e-05 2.38e-05 
47 1 1.53759e-06 2.37e-05 7.54e-06 3.06e-05 
46 1 1.7718e-06 4.86e-05 3.12e-05 3.36e-05 
48 1 1.87362e-06 1.44e-05 3.72e-05 3.59e-05 
43 1 1.81253e-06 4.59e-05 8.16e-06 3.72e-05 
50 1 1.7107e-06 2.17e-05 1.16e-05 3.78e-05 
19 1 1.63942e-06 1.35e-05 3.38e-05 3.86e-05 
27 1 1.51723e-06 1.36e-05 7.87e-06 4.2e-05 
13 1 1.6496e-06 2.51e-05 4.25e-05 4.36e-05 
18 1 1.83289e-06 1.4e-05 3.75e-05 4.42e-05 
9 1 1.79216e-06 2.54e-05 6.21e-05 1.92e-06 
28 1 1.57833e-06 2.27e-05 9.34e-05 5.75e-06 
21 1 1.57833e-06 3.48e-06 7.24e-05 1.82e-05 
14 1 1.70052e-06 1.52e-05 7.06e-05 2.43e-05 
8 1 1.44595e-06 4.49e-05 5.45e-05 4.29e-05 
4 1 1.57833e-06 4.79e-05 7.24e-05 4.44e-05 
34 1 1.82271e-06 2.53e-05 8.86e-05 4.78e-05 
6 1 1.63942e-06 2.25e-05 9.06e-05 4.77e-05 
39 1 1.6496e-06 5.8e-05 4.91e-05 9.08e-06 
22 1 1.48668e-06 9.83e-05 7.4e-06 2.58e-05 
30 1 1.4765e-06 7.22e-05 6.37e-06 2.76e-05 
29 1 1.90417e-06 7.04e-05 4.7e-05 2.83e-05 
17 1 1.92454e-06 5.54e-05 7e-06 3.66e-05 
37 1 1.70052e-06 8.76e-05 7.65e-06 3.74e-05 
42 1 1.78198e-06 7.09e-05 4.1e-05 3.8e-05 
35 1 1.68015e-06 5.8e-05 1.01e-05 3.88e-05 
45 1 1.6496e-06 8.82e-05 2.61e-05 4.43e-05 
41 1 1.54778e-06 9.24e-05 6.12e-05 1.01e-05 
26 1 1.93472e-06 6.94e-05 5.66e-05 1.22e-05 
38 1 1.81253e-06 9.81e-05 8.59e-05 1.86e-05 
12 1 1.51723e-06 9.43e-05 8.38e-05 1.92e-05 
40 1 1.65979e-06 7.82e-05 8.81e-05 1.94e-05 
1 1 1.72088e-06 8.36e-05 6e-05 3.96e-05 
20 1 1.42558e-06 9.65e-05 5.61e-05 4.13e-05 
7 1 1.44595e-06 5.88e-05 5.07e-05 4.16e-05 
32 1 1.60887e-06 5.15e-05 5.48e-05 4.36e-05 
10 1 1.4765e-06 9.26e-05 9.03e-05 4.38e-05 
36 1 1.65979e-06 7.07e-05 6.73e-05 4.58e-05 
2 1 1.60887e-06 6.88e-05 6.22e-05 4.74e-05 
ITEM: TIMESTEP
400
ITEM: NUMBER OF ATOMS
50
ITEM: BOX BOUNDS ff ff ff
0.0000000000000000e+00 1.0000000000000000e-04
0.0000000000000000e+00 1.0000000000000000e-04
0.0000000000000000e+00 5.0000000000000002e-05
ITEM: ATOMS id type diameter x y z 
33 1 1.9157e-06 2.03e-05 2.13e-05 4.37e-06 
23 1 1.4547e-06 4.29e-05 3.69e-05 8.18e-06 
5 1 1.48544e-06 7.63e-06 4.7e-06 9.01e-06 
44 1 1.50593e-06 1.64e-05 4.6e-05 9.31e-06 
31 1 1.48544e-06 1.79e-05 2.62e-06 1.1e-05 
15 1 1.81326e-06 4.15e-05 2.62e-06 1.24e-05 
24 1 1.8235e-06 2.08e-05 5.31e-06 1.33e-05 
49 1 1.55715e-06 2.21e-05 4.62e-05 1.73e-05 
16 1 1.70057e-06 4.64e-05 4.06e-05 1.87e-05 
25 1 1.49568e-06 3.24e-05 2.14e-05 1.94e-05 
11 1 1.79277e-06 7.25e-06 8.82e-06 2.3e-05 
3 1 1.59813e-06 1.72e-05 3.48e-05 2.38e-05 
47 1 1.5469e-06 2.37e-05 7.54e-06 3.06e-05 
46 1 1.78253e-06 4.86e-05 3.12e-05 3.36e-05 
48 1 1.88497e-06 1.44e-05 3.72e-05 3.59e-05 
43 1 1.8235e-06 4.59e-05 8.16e-06 3.72e-05 
50 1 1.72106e-06 2.17e-05 1.16e-05 3.78e-05 
19 1 1.64935e-06 1.35e-05 3.38e-05 3.86e-05 
27 1 1.52642e-06 1.36e-05 7.87e-06 4.2e-05 
13 1 1.65959e-06 2.51e-05 4.25e-05 4.36e-05 
18 1 1.84399e-06 1.4e-05 3.75e-05 4.42e-05 
9 1 1.80301e-06 2.54e-05 6.21e-05 1.92e-06 
28 1 1.58788e-06 2.27e-05 9.34e-05 5.75e-06 
21 1 1.58788e-06 3.48e-06 7.24e-05 1.82e-05 
14 1 1.71081e-06 1.52e-05 7.06e-05 2.43e-05 
8 1 1.4547e-06 4.49e-05 5.45e-05 4.29e-05 
4 1 1.58788e-06 4.79e-05 7.24e-05 4.44e-05 
34 1 1.83375e-06 2.53e-05 8.86e-05 4.78e-05 
6 1 1.64935e-06 2.25e-05 9.06e-05 4.77e-05 
39 1 1.65959e-06 5.8e-05 4.91e-05 9.08e-06 
22 1 1.49568e-06 9.83e-05 7.4e-06 2.58e-05 
30 1 1.48544e-06 7.22e-05 6.37e-06 2.76e-05 
29 1 1.9157e-06 7.04e-05 4.7e-05 2.83e-05 
17 1 1.93619e-06 5.54e-05 7e-06 3.66e-05 
37 1 1.71081e-06 8.76e-05 7.65e-06 3.74e-05 
42 1 1.79277e-06 7.09e-05 4.1e-05 3.8e-05 
35 1 1.69033e-06 5.8e-05 1.01e-05 3.88e-05 
45 1 1.65959e-06 8.82e-05 2.61e-05 4.43e-05 
41 1 1.55715e-06 9.24e-05 6.12e-05 1.01e-05 
26 1 1.94644e-06 6.94e-05 5.66e-05 1.22e-05 
38 1 1.8235e-06 9.81e-05 8.59e-05 1.86e-05 
12 1 1.52642e-06 9.43e-05 8.38e-05 1.92e-05 
40 1 1.66984e-06 7.82e-05 8.81e-05 1.94e-05 
1 1 1.7313e-06 8.36e-05 6e-05 3.96e-05 
20 1 1.43422e-06 9.65e-05 5.61e-05 4.13e-05 
7 1 1.4547e-06 5.88e-05 5.07e-05 4.16e-05 
32 1 1.61861e-06 5.15e-05 5.48e-05 4.36e-05 
10 1 1.48544e-06 9.26e-05 9.03e-05 4.38e-05 
36 1 1.66984e-06 7.07e-05 6.73e-05 4.58e-05 
2 1 1.61861e-06 6.88e-05 6.22e-05 4.74e-05 
ITEM: TIMESTEP
500
ITEM: NUMBER OF ATOMS
50
ITEM: BOX BOUNDS ff ff ff
0.0000000000000000e+00 1.0000000000000000e-04
0.0000000000000000e+00 1.0000000000000000e-04
0.0000000000000000e+00 5.0000000000000002e-05
ITEM: ATOMS id type diameter x y z 
33 1 1.9273e-06 2.03e-05 2.13e-05 4.37e-06 
23 1 1.46351e-06 4.29e-05 3.69e-05 8.18e-06 
5 1 1.49443e-06 7.63e-06 4.7e-06 9.01e-06 
44 1 1.51504e-06 1.64e-05 4.6e-05 9.31e-06 
31 1 1.49443e-06 1.79e-05 2.62e-06 1.1e-05 
15 1 1.82424e-06 4.15e-05 2.62e-06 1.24e-05 
24 1 1.83454e-06 2.08e-05 5.31e-06 1.33e-05 
49 1 1.56658e-06 2.21e-05 4.62e-05 1.73e-05 
16 1 1.71087e-06 4.64e-05 4.06e-05 1.87e-05 
25 1 1.50474e-06 3.24e-05 2.14e-05 1.94e-05 
11 1 1.80362e-06 7.25e-06 8.82e-06 2.3e-05 
3 1 1.6078e-06 1.72e-05 3.48e-05 2.38e-05 
47 1 1.55627e-06 2.37e-05 7.54e-06 3.06e-05 
46 1 1.79332e-06 4.86e-05 3.12e-05 3.36e-05 
48 1 1.89638e-06 1.44e-05 3.72e-05 3.59e-05 
43 1 1.83454e-06 4.59e-05 8.16e-06 3.72e-05 
50 1 1.73148e-06 2.17e-05 1.16e-05 3.78e-05 
19 1 1.65933e-06 1.35e-05 3.38e-05 3.86e-05 
27 1 1.53566e-06 1.36e-05 7.87e-06 4.2e-05 
13 1 1.66964e-06 2.51e-05 4.25e-05 4.36e-05 
18 1 1.85516e-06 1.4e-05 3.75e-05 4.42e-05 
9 1 1.81393e-06 2.54e-05 6.21e-05 1.92e-06 
28 1 1.5975e-06 2.27e-05 9.34e-05 5.75e-06 
21 1 1.5975e-06 3.48e-06 7.24e-05 1.82e-05 
14 1 1.72117e-06 1.52e-05 7.06e-05 2.43e-05 
8 1 1.46351e-06 4.49e-05 5.45e-05 4.29e-05 
4 1 1.5975e-06 4.79e-05 7.24e-05 4.44e-05 
34 1 1.84485e-06 2.53e-05 8.86e-05 4.78e-05 
6 1 1.65933e-06 2.25e-05 9.06e-05 4.77e-05 
39 1 1.66964e-06 5.8e-05 4.91e-05 9.08e-06 
22 1 1.50474e-06 9.83e-05 7.4e-06 2.58e-05 
30 1 1.49443e-06 7.22e-05 6.37e-06 2.76e-05 
29 1 1.9273e-06 7.04e-05 4.7e-05 2.83e-05 
17 1 1.94791e-06 5.54e-05 7e-06 3.66e-05 
37 1 1.72117e-06 8.76e-05 7.65e-06 3.74e-05 
42 1 1.80362e-06 7.09e-05 4.1e-05 3.8e-05 
35 1 1.70056e-06 5.8e-05 1.01e-05 3.88e-05 
45 1 1.66964e-06 8.82e-05 2.61e-05 4.43e-05 
41 1 1.56658e-06 9.24e-05 6.12e-05 1.01e-05 
26 1 1.95822e-06 6.94e-05 5.66e-05 1.22e-05 
38 1 1.83454e-06 9.81e-05 8.59e-05 1.86e-05 
12 1 1.53566e-06 9.43e-05 8.38e-05 1.92e-05 
40 1 1.67995e-06 7.82e-05 8.81e-05 1.94e-05 
1 1 1.74179e-06 8.36e-05 6e-05 3.96e-05 
20 1 1.4429e-06 9.65e-05 5.61e-05 4.13e-05 
7 1 1.46351e-06 5.88e-05 5.07e-05 4.16e-05 
32 1 1.62842e-06 5.15e-05 5.48e-05 4.36e-05 
10 1 1.49443e-06 9.26e-05 9.03e-05 4.38e-05 
36 1 1.67995e-06 7.07e-05 6.73e-05 4.58e-05 
2 1 1.62842e-06 6.88e-05 6.22e-05 4.74e-05 
ITEM: TIMESTEP
600
ITEM: NUMBER OF ATOMS
50
ITEM: BOX BOUNDS ff ff ff
0.0000000000000000e+00 1.0000000000000000e-04
0.0000000000000000e+00 1.0000000000000000e-04
0.0000000000000000e+00 5.0000000000000002e-05
ITEM: ATOMS id type diameter x y z 
33 1 1.93897e-06 2.03e-05 2.13e-05 4.37e-06 
23 1 1.47237e-06 4.29e-05 3.69e-05 8.18e-06 
5 1 1.50348e-06 7.63e-06 4.7e-06 9.01e-06 
44 1 1.52422e-06 1.64e-05 4.6e-05 9.31e-06 
31 1 1.50348e-06 1.79e-05 2.62e-06 1.1e-05 
15 1 1.83528e-06 4.15e-05 2.62e-06 1.24e-05 
24 1 1.84565e-06 2.08e-05 5.31e-06 1.33e-05 
49 1 1.57606e-06 2.21e-05 4.62e-05 1.73e-05 
16 1 1.72123e-06 4.64e-05 4.06e-05 1.87e-05 
25 1 1.51385e-06 3.24e-05 2.14e-05 1.94e-05 
11 1 1.81454e-06 7.25e-06 8.82e-06 2.3e-05 
3 1 1.61754e-06 1.72e-05 3.48e-05 2.38e-05 
47 1 1.56569e-06 2.37e-05 7.54e-06 3.06e-05 
46 1 1.80418e-06 4.86e-05 3.12e-05 3.36e-05 
48 1 1.90786e-06 1.44e-05 3.72e-05 3.59e-05 
43 1 1.84565e-06 4.59e-05 8.16e-06 3.72e-05 
50 1 1.74196e-06 2.17e-05 1.16e-05 3.78e-05 
19 1 1.66938e-06 1.35e-05 3.38e-05 3.86e-05 
27 1 1.54496e-06 1.36e-05 7.87e-06 4.2e-05 
13 1 1.67975e-06 2.51e-05 4.25e-05 4.36e-05 
18 1 1.86639e-06 1.4e-05 3.75e-05 4.42e-05 
9 1 1.82491e-06 2.54e-05 6.21e-05 1.92e-06 
28 1 1.60717e-06 2.27e-05 9.34e-05 5.75e-06 
21 1 1.60717e-06 3.48e-06 7.24e-05 1.82e-05 
14 1 1.73159e-06 1.52e-05 7.06e-05 2.43e-05 
8 1 1.47237e-06 4.49e-05 5.45e-05 4.29e-05 
4 1 1.60717e-06 4.79e-05 7.24e-05 4.44e-05 
34 1 1.85602e-06 2.53e-05 8.86e-05 4.78e-05 
6 1 1.66938e-06 2.25e-05 9.06e-05 4.77e-05 
39 1 1.67975e-06 5.8e-05 4.91e-05 9.08e-06 
22 1 1.51385e-06 9.83e-05 7.4e-06 2.58e-05 
30 1 1.50348e-06 7.22e-05 6.37e-06 2.76e-05 
29 1 1.93897e-06 7.04e-05 4.7e-05 2.83e-05 
17 1 1.95971e-06 5.54e-05 7e-06 3.66e-05 
37 1 1.73159e-06 8.76e-05 7.65e-06 3.74e-05 
42 1 1.81454e-06 7.09e-05 4.1e-05 3.8e-05 
35 1 1.71086e-06 5.8e-05 1.01e-05 3.88e-05 
45 1 1.67975e-06 8.82e-05 2.61e-05 4.43e-05 
41 1 1.57606e-06 9.24e-05 6.12e-05 1.01e-05 
26 1 1.97008e-06 6.94e-05 5.66e-05 1.22e-05 
38 1 1.84565e-06 9.81e-05 8.59e-05 1.86e-05 
12 1 1.54496e-06 9.43e-05 8.38e-05 1.92e-05 
40 1 1.69012e-06 7.82e-05 8.81e-05 1.94e-05 
1 1 1.75233e-06 8.36e-05 6e-05 3.96e-05 
20 1 1.45164e-06 9.65e-05 5.61e-05 4.13e-05 
7 1 1.47237e-06 5.88e-05 5.07e-05 4.16e-05 
32 1 1.63827e-06 5.15e-05 5.48e-05 4.36e-05 
10 1 1.50348e-06 9.26e-05 9.03e-05 4.38e-05 
36 1 1.69012e-06 7.07e-05 6.73e-05 4.58e-05 
2 1 1.63827e-06 6.88e-05 6.22e-05 4.74e-05 
ITEM: TIMESTEP
700
ITEM: NUMBER OF ATOMS
51
ITEM: BOX BOUNDS ff ff ff
0.0000000000000000e+00 1.0000000000000000e-04
0.0000000000000000e+00 1.0000000000000000e-04
0.0000000000000000e+00 5.0000000000000002e-05
ITEM: ATOMS id type diameter x y z 
33 1 1.95071e-06 2.03e-05 2.13e-05 4.37e-06 
23 1 1.48129e-06 4.29e-05 3.69e-05 8.18e-06 
5 1 1.51258e-06 7.63e-06 4.7e-06 9.01e-06 
44 1 1.53345e-06 1.64e-05 4.6e-05 9.31e-06 
31 1 1.51258e-06 1.79e-05 2.62e-06 1.1e-05 
15 1 1.84639e-06 4.15e-05 2.62e-06 1.24e-05 
24 1 1.85683e-06 2.08e-05 5.31e-06 1.33e-05 
49 1 1.5856e-06 2.21e-05 4.62e-05 1.73e-05 
16 1 1.73165e-06 4.64e-05 4.06e-05 1.87e-05 
25 1 1.52301e-06 3.24e-05 2.14e-05 1.94e-05 
11 1 1.82553e-06 7.25e-06 8.82e-06 2.3e-05 
3 1 1.62733e-06 1.72e-05 3.48e-05 2.38e-05 
47 1 1.57517e-06 2.37e-05 7.54e-06 3.06e-05 
46 1 1.8151e-06 4.86e-05 3.12e-05 3.36e-05 
48 1 1.91942e-06 1.44e-05 3.72e-05 3.59e-05 
43 1 1.85683e-06 4.59e-05 8.16e-06 3.72e-05 
50 1 1.75251e-06 2.17e-05 1.16e-05 3.78e-05 
19 1 1.67949e-06 1.35e-05 3.38e-05 3.86e-05 
27 1 1.55431e-06 1.36e-05 7.87e-06 4.2e-05 
13 1 1.68992e-06 2.51e-05 4.25e-05 4.36e-05 
18 1 1.87769e-06 1.4e-05 3.75e-05 4.42e-05 
9 1 1.83596e-06 2.54e-05 6.21e-05 1.92e-06 
28 1 1.6169e-06 2.27e-05 9.34e-05 5.75e-06 
21 1 1.6169e-06 3.48e-06 7.24e-05 1.82e-05 
14 1 1.74208e-06 1.52e-05 7.06e-05 2.43e-05 
8 1 1.48129e-06 4.49e-05 5.45e-05 4.29e-05 
4 1 1.6169e-06 4.79e-05 7.24e-05 4.44e-05 
34 1 1.86726e-06 2.53e-05 8.86e-05 4.78e-05 
6 1 1.67949e-06 2.25e-05 9.06e-05 4.77e-05 
39 1 1.68992e-06 5.8e-05 4.91e-05 9.08e-06 
22 1 1.52301e-06 9.83e-05 7.4e-06 2.58e-05 
30 1 1.51258e-06 7.22e-05 6.37e-06 2.76e-05 
29 1 1.95071e-06 7.04e-05 4.7e-05 2.83e-05 
17 1 1.97157e-06 5.54e-05 7e-06 3.66e-05 
37 1 1.74208e-06 8.76e-05 7.65e-06 3.74e-05 
42 1 1.82553e-06 7.09e-05 4.1e-05 3.8e-05 
35 1 1.72122e-06 5.8e-05 1.01e-05 3.88e-05 
45 1 1.68992e-06 8.82e-05 2.61e-05 4.43e-05 
41 1 1.5856e-06 9.24e-05 6.12e-05 1.01e-05 
26 1 1.62992e-06 6.94524e-05 5.66241e-05 1.13879e-05 
38 1 1.85683e-06 9.81e-05 8.59e-05 1.86e-05 
12 1 1.55431e-06 9.43e-05 8.38e-05 1.92e-05 
40 1 1.70035e-06 7.82e-05 8.81e-05 1.94e-05 
51 1 1.51189e-06 6.93514e-05 5.65776e-05 1.29533e-05 
1 1 1.76294e-06 8.36e-05 6e-05 3.96e-05 
20 1 1.46043e-06 9.65e-05 5.61e-05 4.13e-05 
7 1 1.48129e-06 5.88e-05 5.07e-05 4.16e-05 
32 1 1.64819e-06 5.15e-05 5.48e-05 4.36e-05 
10 1 1.51258e-06 9.26e-05 9.03e-05 4.38e-05 
36 1 1.70035e-06 7.07e-05 6.73e-05 4.58e-05 
2 1 1.64819e-06 6.88e-05 6.22e-05 4.74e-05 
ITEM: TIMESTEP
800
ITEM: NUMBER OF ATOMS
52
ITEM: BOX BOUNDS ff ff ff
0.0000000000000000e+00 1.0000000000000000e-04
0.0000000000000000e+00 1.0000000000000000e-04
0.0000000000000000e+00 5.0000000000000002e-05
ITEM: ATOMS id type diameter x y z 
33 1 1.96252e-06 2.03e-05 2.13e-05 4.37e-06 
23 1 1.49026e-06 4.29e-05 3.69e-05 8.18e-06 
5 1 1.52174e-06 7.63e-06 4.7e-06 9.01e-06 
44 1 1.54273e-06 1.64e-05 4.6e-05 9.31e-06 
31 1 1.52174e-06 1.79e-05 2.62e-06 1.1e-05 
15 1 1.85757e-06 4.15e-05 2.62e-06 1.24e-05 
24 1 1.86807e-06 2.08e-05 5.31e-06 1.33e-05 
49 1 1.5952e-06 2.21e-05 4.62e-05 1.73e-05 
16 1 1.74213e-06 4.64e-05 4.06e-05 1.87e-05 
25 1 1.53224e-06 3.24e-05 2.14e-05 1.94e-05 
11 1 1.83658e-06 7.25e-06 8.82e-06 2.3e-05 
3 1 1.63718e-06 1.72e-05 3.48e-05 2.38e-05 
47 1 1.58471e-06 2.37e-05 7.54e-06 3.06e-05 
46 1 1.82609e-06 4.86e-05 3.12e-05 3.36e-05 
48 1 1.93104e-06 1.44e-05 3.72e-05 3.59e-05 
43 1 1.86807e-06 4.59e-05 8.16e-06 3.72e-05 
50 1 1.76312e-06 2.17e-05 1.16e-05 3.78e-05 
19 1 1.68966e-06 1.35e-05 3.38e-05 3.86e-05 
27 1 1.56372e-06 1.36e-05 7.87e-06 4.2e-05 
13 1 1.70015e-06 2.51e-05 4.25e-05 4.36e-05 
18 1 1.88906e-06 1.4e-05 3.75e-05 4.42e-05 
9 1 1.84708e-06 2.54e-05 6.21e-05 1.92e-06 
28 1 1.62669e-06 2.27e-05 9.34e-05 5.75e-06 
21 1 1.62669e-06 3.48e-06 7.24e-05 1.82e-05 
14 1 1.75263e-06 1.52e-05 7.06e-05 2.43e-05 
8 1 1.49026e-06 4.49e-05 5.45e-05 4.29e-05 
4 1 1.62669e-06 4.79e-05 7.24e-05 4.44e-05 
34 1 1.87856e-06 2.53e-05 8.86e-05 4.78e-05 
6 1 1.68966e-06 2.25e-05 9.06e-05 4.77e-05 
39 1 1.70015e-06 5.8e-05 4.91e-05 9.08e-06 
22 1 1.53224e-06 9.83e-05 7.4e-06 2.58e-05 
30 1 1.52174e-06 7.22e-05 6.37e-06 2.76e-05 
29 1 1.96252e-06 7.04e-05 4.7e-05 2.83e-05 
17 1 1.63116e-06 5.54524e-05 7.02413e-06 3.57873e-05 
37 1 1.75263e-06 8.76e-05 7.65e-06 3.74e-05 
42 1 1.83658e-06 7.09e-05 4.1e-05 3.8e-05 
35 1 1.73164e-06 5.8e-05 1.01e-05 3.88e-05 
45 1 1.70015e-06 8.82e-05 2.61e-05 4.43e-05 
52 1 1.51304e-06 5.53514e-05 6.97761e-06 3.73538e-05 
41 1 1.5952e-06 9.24e-05 6.12e-05 1.01e-05 
26 1 1.63979e-06 6.94524e-05 5.66241e-05 1.13879e-05 
38 1 1.86807e-06 9.81e-05 8.59e-05 1.86e-05 
12 1 1.56372e-06 9.43e-05 8.38e-05 1.92e-05 
40 1 1.71065e-06 7.82e-05 8.81e-05 1.94e-05 
51 1 1.52105e-06 6.93514e-05 5.65776e-05 1.29533e-05 
1 1 1.77362e-06 8.36e-05 6e-05 3.96e-05 
20 1 1.46927e-06 9.65e-05 5.61e-05 4.13e-05 
7 1 1.49026e-06 5.88e-05 5.07e-05 4.16e-05 
32 1 1.65817e-06 5.15e-05 5.48e-05 4.36e-05 
10 1 1.52174e-06 9.26e-05 9.03e-05 4.38e-05 
36 1 1.71065e-06 7.07e-05 6.73e-05 4.58e-05 
2 1 1.65817e-06 6.88e-05 6.22e-05 4.74e-05 
ITEM: TIMESTEP
900
ITEM: NUMBER OF ATOMS
54
ITEM: BOX BOUNDS ff ff ff
0.0000000000000000e+00 1.0000000000000000e-04
0.0000000000000000e+00 1.0000000000000000e-04
0.0000000000000000e+00 5.0000000000000002e-05
ITEM: ATOMS id type diameter x y z 
33 1 1.62367e-06 2.03522e-05 2.1324e-05 3.56106e-06 
23 1 1.49928e-06 4.29e-05 3.69e-05 8.18e-06 
5 1 1.53096e-06 7.63e-06 4.7e-06 9.01e-06 
44 1 1.55207e-06 1.64e-05 4.6e-05 9.31e-06 
31 1 1.53096e-06 1.79e-05 2.62e-06 1.1e-05 
15 1 1.86882e-06 4.15e-05 2.62e-06 1.24e-05 
24 1 1.87938e-06 2.08e-05 5.31e-06 1.33e-05 
49 1 1.60486e-06 2.21e-05 4.62e-05 1.73e-05 
16 1 1.75268e-06 4.64e-05 4.06e-05 1.87e-05 
25 1 1.54151e-06 3.24e-05 2.14e-05 1.94e-05 
53 1 1.50609e-06 2.02516e-05 2.12777e-05 5.12037e-06 
11 1 1.8477e-06 7.25e-06 8.82e-06 2.3e-05 
3 1 1.6471e-06 1.72e-05 3.48e-05 2.38e-05 
47 1 1.5943e-06 2.37e-05 7.54e-06 3.06e-05 
46 1 1.83715e-06 4.86e-05 3.12e-05 3.36e-05 
48 1 1.94273e-06 1.44e-05 3.72e-05 3.59e-05 
43 1 1.87938e-06 4.59e-05 8.16e-06 3.72e-05 
50 1 1.7738e-06 2.17e-05 1.16e-05 3.78e-05 
19 1 1.69989e-06 1.35e-05 3.38e-05 3.86e-05 
27 1 1.57319e-06 1.36e-05 7.87e-06 4.2e-05 
13 1 1.71045e-06 2.51e-05 4.25e-05 4.36e-05 
18 1 1.9005e-06 1.4e-05 3.75e-05 4.42e-05 
9 1 1.85826e-06 2.54e-05 6.21e-05 1.92e-06 
28 1 1.63654e-06 2.27e-05 9.34e-05 5.75e-06 
21 1 1.63654e-06 3.48e-06 7.24e-05 1.82e-05 
14 1 1.76324e-06 1.52e-05 7.06e-05 2.43e-05 
8 1 1.49928e-06 4.49e-05 5.45e-05 4.29e-05 
4 1 1.63654e-06 4.79e-05 7.24e-05 4.44e-05 
34 1 1.88994e-06 2.53e-05 8.86e-05 4.78e-05 
6 1 1.69989e-06 2.25e-05 9.06e-05 4.77e-05 
39 1 1.71045e-06 5.8e-05 4.91e-05 9.08e-06 
22 1 1.54151e-06 9.83e-05 7.4e-06 2.58e-05 
30 1 1.53096e-06 7.22e-05 6.37e-06 2.76e-05 
29 1 1.60406e-06 7.02872e-05 4.67937e-05 2.75341e-05 
17 1 1.64103e-06 5.54524e-05 7.02413e-06 3.57873e-05 
37 1 1.76324e-06 8.76e-05 7.65e-06 3.74e-05 
42 1 1.8477e-06 7.09e-05 4.1e-05 3.8e-05 
35 1 1.74212e-06 5.8e-05 1.01e-05 3.88e-05 
45 1 1.71045e-06 8.82e-05 2.61e-05 4.43e-05 
52 1 1.5222e-06 5.53514e-05 6.97761e-06 3.73538e-05 
54 1 1.52827e-06 7.05074e-05 4.71965e-05 2.90297e-05 
41 1 1.60486e-06 9.24e-05 6.12e-05 1.01e-05 
26 1 1.64972e-06 6.94524e-05 5.66241e-05 1.13879e-05 
38 1 1.87938e-06 9.81e-05 8.59e-05 1.86e-05 
12 1 1.57319e-06 9.43e-05 8.38e-05 1.92e-05 
40 1 1.721e-06 7.82e-05 8.81e-05 1.94e-05 
51 1 1.53026e-06 6.93514e-05 5.65776e-05 1.29533e-05 
1 1 1.78435e-06 8.36e-05 6e-05 3.96e-05 
20 1 1.47816e-06 9.65e-05 5.61e-05 4.13e-05 
7 1 1.49928e-06 5.88e-05 5.07e-05 4.16e-05 
32 1 1.66821e-06 5.15e-05 5.48e-05 4.36e-05 
10 1 1.53096e-06 9.26e-05 9.03e-05 4.38e-05 
36 1 1.721e-06 7.07e-05 6.73e-05 4.58e-05 
2 1 1.66821e-06 6.88e-05 6.22e-05 4.74e-05 
ITEM: TIMESTEP
1000
ITEM: NUMBER OF ATOMS
54
ITEM: BOX BOUNDS ff ff ff
0.0000000000000000e+00 1.0000000000000000e-04
0.0000000000000000e+00 1.0000000000000000e-04
0.0000000000000000e+00 5.0000000000000002e-05
ITEM: ATOMS id type diameter x y z 
33 1 1.6335e-06 2.03522e-05 2.1324e-05 3.56106e-06 
53 1 1.51521e-06 2.02516e-05 2.12777e-05 5.12037e-06 
23 1 1.50836e-06 4.29e-05 3.69e-05 8.18e-06 
5 1 1.54022e-06 7.63e-06 4.7e-06 9.01e-06 
44 1 1.56147e-06 1.64e-05 4.6e-05 9.31e-06 
31 1 1.54022e-06 1.79e-05 2.62e-06 1.1e-05 
15 1 1.88014e-06 4.15e-05 2.62e-06 1.24e-05 
24 1 1.89076e-06 2.08e-05 5.31e-06 1.33e-05 
49 1 1.61458e-06 2.21e-05 4.62e-05 1.73e-05 
16 1 1.76329e-06 4.64e-05 4.06e-05 1.87e-05 
25 1 1.55085e-06 3.24e-05 2.14e-05 1.94e-05 
11 1 1.85889e-06 7.25e-06 8.82e-06 2.3e-05 
3 1 1.65707e-06 1.72e-05 3.48e-05 2.38e-05 
47 1 1.60396e-06 2.37e-05 7.54e-06 3.06e-05 
46 1 1.84827e-06 4.86e-05 3.12e-05 3.36e-05 
48 1 1.95449e-06 1.44e-05 3.72e-05 3.59e-05 
43 1 1.89076e-06 4.59e-05 8.16e-06 3.72e-05 
50 1 1.78454e-06 2.17e-05 1.16e-05 3.78e-05 
19 1 1.71018e-06 1.35e-05 3.38e-05 3.86e-05 
27 1 1.58271e-06 1.36e-05 7.87e-06 4.2e-05 
13 1 1.7208e-06 2.51e-05 4.25e-05 4.36e-05 
18 1 1.912e-06 1.4e-05 3.75e-05 4.42e-05 
9 1 1.86951e-06 2.54e-05 6.21e-05 1.92e-06 
28 1 1.64645e-06 2.27e-05 9.34e-05 5.75e-06 
21 1 1.64645e-06 3.48e-06 7.24e-05 1.82e-05 
14 1 1.77391e-06 1.52e-05 7.06e-05 2.43e-05 
8 1 1.50836e-06 4.49e-05 5.45e-05 4.29e-05 
4 1 1.64645e-06 4.79e-05 7.24e-05 4.44e-05 
34 1 1.90138e-06 2.53e-05 8.86e-05 4.78e-05 
6 1 1.71018e-06 2.25e-05 9.06e-05 4.77e-05 
39 1 1.7208e-06 5.8e-05 4.91e-05 9.08e-06 
22 1 1.55085e-06 9.83e-05 7.4e-06 2.58e-05 
30 1 1.54022e-06 7.22e-05 6.37e-06 2.76e-05 
29 1 1.61378e-06 7.02872e-05 4.67937e-05 2.75341e-05 
54 1 1.53753e-06 7.05074e-05 4.71965e-05 2.90297e-05 
17 1 1.65097e-06 5.54524e-05 7.02413e-06 3.57873e-05 
52 1 1.53142e-06 5.53514e-05 6.97761e-06 3.73538e-05 
37 1 1.77391e-06 8.76e-05 7.65e-06 3.74e-05 
42 1 1.85889e-06 7.09e-05 4.1e-05 3.8e-05 
35 1 1.75267e-06 5.8e-05 1.01e-05 3.88e-05 
45 1 1.7208e-06 8.82e-05 2.61e-05 4.43e-05 
41 1 1.61458e-06 9.24e-05 6.12e-05 1.01e-05 
26 1 1.6597e-06 6.94537e-05 5.66247e-05 1.1368e-05 
51 1 1.53952e-06 6.93501e-05 5.6577e-05 1.29732e-05 
38 1 1.89076e-06 9.81e-05 8.59e-05 1.86e-05 
12 1 1.58271e-06 9.43e-05 8.38e-05 1.92e-05 
40 1 1.73142e-06 7.82e-05 8.81e-05 1.94e-05 
1 1 1.79516e-06 8.36e-05 6e-05 3.96e-05 
20 1 1.48711e-06 9.65e-05 5.61e-05 4.13e-05 
7 1 1.50836e-06 5.88e-05 5.07e-05 4.16e-05 
32 1 1.67831e-06 5.15e-05 5.48e-05 4.36e-05 
10 1 1.54022e-06 9.26e-05 9.03e-05 4.38e-05 
36 1 1.73142e-06 7.07e-05 6.73e-05 4.58e-05 
2 1 1.67831e-06 6.88e-05 6.22e-05 4.74e-05 
ITEM: TIMESTEP
1100
ITEM: NUMBER OF ATOMS
54
ITEM: BOX BOUNDS ff ff ff
0.0000000000000000e+00 1.0000000000000000e-04
0.0000000000000000e+00 1.0000000000000000e-04
0.0000000000000000e+00 5.0000000000000002e-05
ITEM: ATOMS id type diameter x y z 
33 1 1.64339e-06 2.03522e-05 2.1324e-05 3.56106e-06 
53 1 1.52439e-06 2.02516e-05 2.12777e-05 5.12037e-06 
23 1 1.51749e-06 4.29e-05 3.69e-05 8.18e-06 
5 1 1.54955e-06 7.63e-06 4.7e-06 9.01e-06 
44 1 1.57092e-06 1.64e-05 4.6e-05 9.31e-06 
31 1 1.54955e-06 1.79e-05 2.62e-06 1.1e-05 
15 1 1.89152e-06 4.15e-05 2.62e-06 1.24e-05 
24 1 1.90221e-06 2.08e-05 5.31e-06 1.33e-05 
49 1 1.62436e-06 2.21e-05 4.62e-05 1.73e-05 
16 1 1.77397e-06 4.64e-05 4.06e-05 1.87e-05 
25 1 1.56024e-06 3.24e-05 2.14e-05 1.94e-05 
11 1 1.87015e-06 7.25e-06 8.82e-06 2.3e-05 
3 1 1.6671e-06 1.72e-05 3.48e-05 2.38e-05 
47 1 1.61367e-06 2.37e-05 7.54e-06 3.06e-05 
46 1 1.85946e-06 4.86e-05 3.12e-05 3.36e-05 
48 1 1.96633e-06 1.44e-05 3.72e-05 3.59e-05 
43 1 1.90221e-06 4.59e-05 8.16e-06 3.72e-05 
50 1 1.79534e-06 2.17e-05 1.16e-05 3.78e-05 
19 1 1.72054e-06 1.35e-05 3.38e-05 3.86e-05 
27 1 1.5923e-06 1.36e-05 7.87e-06 4.2e-05 
13 1 1.73122e-06 2.51e-05 4.25e-05 4.36e-05 
18 1 1.92358e-06 1.4e-05 3.75e-05 4.42e-05 
9 1 1.88083e-06 2.54e-05 6.21e-05 1.92e-06 
28 1 1.65642e-06 2.27e-05 9.34e-05 5.75e-06 
21 1 1.65642e-06 3.48e-06 7.24e-05 1.82e-05 
14 1 1.78465e-06 1.52e-05 7.06e-05 2.43e-05 
8 1 1.51749e-06 4.49e-05 5.45e-05 4.29e-05 
4 1 1.65642e-06 4.79e-05 7.24e-05 4.44e-05 
34 1 1.91289e-06 2.53e-05 8.86e-05 4.78e-05 
6 1 1.72054e-06 2.25e-05 9.06e-05 4.77e-05 
39 1 1.73122e-06 5.8e-05 4.91e-05 9.08e-06 
22 1 1.56024e-06 9.83e-05 7.4e-06 2.58e-05 
30 1 1.54955e-06 7.22e-05 6.37e-06 2.76e-05 
29 1 1.62355e-06 7.02872e-05 4.67937e-05 2.75341e-05 
54 1 1.54684e-06 7.05074e-05 4.71965e-05 2.90297e-05 
17 1 1.66096e-06 5.54537e-05 7.02473e-06 3.57674e-05 
52 1 1.54069e-06 5.53501e-05 6.97702e-06 3.73738e-05 
37 1 1.78465e-06 8.76e-05 7.65e-06 3.74e-05 
42 1 1.87015e-06 7.09e-05 4.1e-05 3.8e-05 
35 1 1.76328e-06 5.8e-05 1.01e-05 3.88e-05 
45 1 1.73122e-06 8.82e-05 2.61e-05 4.43e-05 
41 1 1.62436e-06 9.24e-05 6.12e-05 1.01e-05 
26 1 1.66975e-06 6.94537e-05 5.66247e-05 1.1368e-05 
51 1 1.54884e-06 6.93501e-05 5.6577e-05 1.29732e-05 
38 1 1.90221e-06 9.81e-05 8.59e-05 1.86e-05 
12 1 1.5923e-06 9.43e-05 8.38e-05 1.92e-05 