LAMMPS (20 Nov 2019)
Reading data file ...
  orthogonal box = (0 0 0) to (0.0001 0.0001 5e-05)
  2 by 2 by 2 MPI processor grid
  reading atoms ...
  50 atoms
  4 nutrients
Lattice spacing in x,y,z = 100 100 100
50 atoms in group CYANO
0 atoms in group ECW
Model is defined as a closed system. 
Neighbor list info ...
  update every 1 steps, delay 0 steps, check yes
  max neighbors/atom: 5000, page size: 100000
  master list distance cutoff = 2.43e-06
  ghost atom cutoff = 2.43e-06
  binsize = 1.215e-06, bins = 83 83 42
  1 neighbor lists, perpetual/occasional/extra = 1 0 0
  (1) pair gran/hooke/history, perpetual
      attributes: half, newton off, size, history
      pair build: half/size/bin/newtoff
      stencil: half/bin/3d/newtoff
      bin: standard
Setting up Verlet run ...
  Unit style    : lj
  Current step  : 0
  Time step     : 10
Per MPI rank memory allocation (min/avg/max) = 6.973 | 10.33 | 12.35 Mbytes
Step CPU Atoms c_myNtypes[1] c_myNtypes[2] c_myMass[1] c_myMass[2] c_myCon[1] c_myCon[2] c_myCon[3] c_myCon[4] 
       0            0       50           50            0 4.6274526e-14            0          0.1        0.009     3.42e-20       0.0299 
number of iterations: 323375 
     100    4.7325108       50           50            0 4.7063788e-14            0          0.1 0.0090034744 0.0073335429  0.029894215 
number of iterations: 24428 
     200    5.2752921       50           50            0 4.7866512e-14            0          0.1 0.0090035336  0.014562511  0.029894117 
number of iterations: 24518 
     300    5.8386494       50           50            0 4.8682927e-14            0          0.1 0.0090035939  0.021913715  0.029894016 
number of iterations: 24608 
     400    6.4034123       51           51            0 4.9513268e-14            0          0.1 0.0090036552  0.029389885  0.029893914 
number of iterations: 24698 
     500     6.956841       52           52            0 5.035777e-14            0          0.1 0.0090037176  0.036993295  0.029893811 
number of iterations: 24788 
     600    7.5326247       52           52            0 5.1216677e-14            0          0.1  0.009003781  0.044726187  0.029893705 
number of iterations: 24877 
     700    8.0922324       52           52            0 5.2090233e-14            0          0.1 0.0090038455  0.052590811  0.029893598 
number of iterations: 24968 
     800    8.6455895       52           52            0 5.2978688e-14            0          0.1 0.0090039111  0.060589445  0.029893488 
number of iterations: 25058 
     900    9.2119467       54           54            0 5.3882297e-14            0          0.1 0.0090039778  0.068724396  0.029893377 
number of iterations: 25177 
    1000    9.7798702       57           57            0 5.4801318e-14            0          0.1 0.0090040456  0.076997997  0.029893264 
number of iterations: 25237 
    1100    10.353184       57           57            0 5.5736014e-14            0          0.1 0.0090041146  0.085412629  0.029893149 
number of iterations: 25327 
    1200    10.925832       58           58            0 5.6686653e-14            0          0.1 0.0090041848  0.093970707  0.029893032 
number of iterations: 25417 
    1300    11.517687       59           59            0 5.7653505e-14            0          0.1 0.0090042562   0.10267468  0.029892914 
number of iterations: 25507 
    1400    12.107164       60           60            0 5.8636848e-14            0          0.1 0.0090043288   0.11152706  0.029892793 
number of iterations: 25597 
    1500    12.719083       60           60            0 5.9636963e-14            0          0.1 0.0090044026   0.12053036   0.02989267 
number of iterations: 25687 
    1600    13.303945       60           60            0 6.0654136e-14            0          0.1 0.0090044777   0.12968717  0.029892545 
number of iterations: 27557 
    1700     13.91251       62           62            0 6.1688658e-14            0          0.1  0.009004584   0.13900012  0.029892368 
number of iterations: 25901 
    1800    14.511993       62           62            0 6.2740824e-14            0          0.1 0.0090046622   0.14847188  0.029892238 
number of iterations: 25992 
    1900    15.106842       62           62            0 6.3810937e-14            0          0.1 0.0090047417   0.15810514  0.029892105 
number of iterations: 26088 
    2000    15.673775       65           65            0 6.4899302e-14            0          0.1 0.0090048226   0.16790252  0.029891971 
number of iterations: 26172 
    2100    16.271115       66           66            0 6.6006229e-14            0          0.1 0.0090049048   0.17786697  0.029891834 
number of iterations: 26262 
    2200    16.843746       66           66            0 6.7132037e-14            0          0.1 0.0090049885   0.18800134  0.029891694 
number of iterations: 27669 
    2300    17.492193       67           67            0 6.8277046e-14            0          0.1 0.0090050943   0.19830853  0.029891518 
number of iterations: 26467 
    2400    18.102568       67           67            0 6.9441585e-14            0          0.1 0.0090051812   0.20879149  0.029891373 
number of iterations: 26570 
    2500    18.743411       72           72            0 7.0625986e-14            0          0.1 0.0090052696   0.21945323  0.029891226 
number of iterations: 26647 
    2600    19.380119       73           73            0 7.1830589e-14            0          0.1 0.0090053594   0.23029679  0.029891077 
number of iterations: 26738 
    2700    20.004689       73           73            0 7.3055737e-14            0          0.1 0.0090054509   0.24132527  0.029890924 
number of iterations: 26828 
    2800    20.616069       73           73            0 7.4301781e-14            0          0.1 0.0090055438   0.25254183   0.02989077 
number of iterations: 27688 
    2900    21.210476       75           75            0 7.5569078e-14            0          0.1 0.0090056502   0.26394966  0.029890592 
number of iterations: 27023 
    3000    21.806707       76           76            0 7.685799e-14            0          0.1 0.0090057466   0.27555204  0.029890432 
number of iterations: 27110 
    3100    22.447118       77           77            0 7.8168886e-14            0          0.1 0.0090058446   0.28735227  0.029890269 
number of iterations: 28492 
    3200    23.090903       79           79            0 7.950214e-14            0          0.1 0.0090059681   0.29935375  0.029890063 
number of iterations: 27317 
    3300    23.699118       79           79            0 8.0858134e-14            0          0.1 0.0090060699    0.3115599  0.029889894 
number of iterations: 27408 
    3400    24.321513       80           80            0 8.2237257e-14            0          0.1 0.0090061735   0.32397423  0.029889721 
number of iterations: 27510 
    3500    24.946414       83           83            0 8.3639901e-14            0          0.1 0.0090062787   0.33660028  0.029889546 
number of iterations: 27589 
    3600    25.564743       85           85            0 8.506647e-14            0          0.1 0.0090063858   0.34944165  0.029889368 
number of iterations: 27694 
    3700    26.182529       85           85            0 8.651737e-14            0          0.1 0.0090064948   0.36250203  0.029889186 
number of iterations: 27770 
    3800    26.799237       85           85            0 8.7993016e-14            0          0.1 0.0090066055   0.37578514  0.029889002 
number of iterations: 27861 
    3900    27.453182       86           86            0 8.9493831e-14            0          0.1 0.0090067182   0.38929479  0.029888814 
number of iterations: 27951 
    4000     28.08772       86           86            0 9.1020244e-14            0          0.1 0.0090068328   0.40303484  0.029888623 
number of iterations: 28042 
    4100    28.715388       86           86            0 9.2572692e-14            0          0.1 0.0090069493   0.41700923  0.029888429 
number of iterations: 28132 
    4200    29.384462       87           87            0 9.4151618e-14            0          0.1 0.0090070679   0.43122195  0.029888232 
number of iterations: 28224 
    4300    30.002817       90           90            0 9.5757475e-14            0          0.1 0.0090071884   0.44567704  0.029888031 
number of iterations: 28979 
    4400    30.654407       94           94            0 9.7390721e-14            0          0.1 0.0090073241   0.46037865  0.029887805 
number of iterations: 28420 
    4500    31.249574       95           95            0 9.9051824e-14            0          0.1  0.009007449   0.47533097  0.029887597 
number of iterations: 28506 
    4600    31.892047       95           95            0 1.0074126e-13            0          0.1 0.0090075761   0.49053831  0.029887386 
number of iterations: 28597 
    4700    32.565447       96           96            0 1.0245951e-13            0          0.1 0.0090077053   0.50600501  0.029887171 
number of iterations: 28690 
    4800    33.200997      100          100            0 1.0420706e-13            0          0.1 0.0090078367    0.5217355  0.029886952 
number of iterations: 29180 
    4900    33.820854      103          103            0 1.0598443e-13            0          0.1 0.0090079783   0.53773422  0.029886716 
number of iterations: 28876 
    5000    34.465132      105          105            0 1.077921e-13            0          0.1 0.0090081144    0.5540058  0.029886489 
number of iterations: 28968 
    5100    35.123097      106          106            0 1.0963061e-13            0          0.1 0.0090082528   0.57055492  0.029886259 
number of iterations: 29131 
    5200    35.759852      109          109            0 1.1150048e-13            0          0.1 0.0090083955   0.58738628  0.029886021 
number of iterations: 29149 
    5300    36.416378      113          113            0 1.1340224e-13            0          0.1 0.0090085387   0.60450471  0.029885783 
number of iterations: 29239 
    5400    37.079802      113          113            0 1.1533643e-13            0          0.1 0.0090086843   0.62191509   0.02988554 
number of iterations: 29331 
    5500    37.751677      116          116            0 1.1730362e-13            0          0.1 0.0090088324   0.63962241  0.029885294 
number of iterations: 28242 
    5600    38.370022      121          121            0 1.1930436e-13            0          0.1 0.0090089526   0.65763172  0.029885094 
number of iterations: 29844 
    5700    39.035101      123          123            0 1.2133922e-13            0          0.1 0.0090091178   0.67594818  0.029884819 
number of iterations: 29589 
    5800    39.678773      124          124            0 1.2340879e-13            0          0.1 0.0090092733   0.69457703   0.02988456 
number of iterations: 29680 
    5900    40.340385      127          127            0 1.2551365e-13            0          0.1 0.0090094315    0.7135236  0.029884296 
number of iterations: 29772 
    6000    41.011497      131          131            0 1.2765442e-13            0          0.1 0.0090095923   0.73279331  0.029884028 
number of iterations: 30621 
    6100    41.693852      133          133            0 1.298317e-13            0          0.1 0.0090097778   0.75239168   0.02988372 
number of iterations: 29971 
    6200    42.377043      136          136            0 1.3204612e-13            0          0.1 0.0090099446    0.7723243  0.029883442 
number of iterations: 30057 
    6300    43.073087      140          140            0 1.3429831e-13            0          0.1 0.0090101142   0.79259683  0.029883159 
number of iterations: 30155 
    6400    43.717937      140          140            0 1.3658891e-13            0          0.1 0.0090102867   0.81321512  0.029882872 
number of iterations: 31037 
    6500    44.400651      142          142            0 1.3891857e-13            0          0.1 0.0090104869   0.83418508  0.029882539 
number of iterations: 30343 
    6600    45.127597      143          143            0 1.4128798e-13            0          0.1 0.0090106658   0.85551268  0.029882241 
number of iterations: 28860 
    6700    45.809215      147          147            0 1.4369779e-13            0          0.1 0.0090108063   0.87720403  0.029882007 
number of iterations: 30502 
    6800    46.493338      147          147            0 1.4614871e-13            0          0.1 0.0090109906   0.89926533    0.0298817 
number of iterations: 30592 
    6900    47.178656      148          148            0 1.4864143e-13            0          0.1  0.009011178    0.9217029  0.029881388 
number of iterations: 30683 
    7000    47.897212      149          149            0 1.5117666e-13            0          0.1 0.0090113687   0.94452316  0.029881071 
number of iterations: 30774 
    7100    48.581875      150          150            0 1.5375514e-13            0          0.1 0.0090115626   0.96773263  0.029880748 
number of iterations: 30100 
    7200    49.251363      153          153            0 1.5637759e-13            0          0.1 0.0090117334   0.99133793  0.029880463 
number of iterations: 31473 
    7300     49.95374      156          156            0 1.5904478e-13            0          0.1 0.0090119502    1.0153458  0.029880102 
number of iterations: 31044 
    7400    50.638683      157          157            0 1.6175745e-13            0          0.1  0.009012154    1.0397632  0.029879763 
number of iterations: 31135 
    7500    51.316817      158          158            0 1.6451639e-13            0          0.1 0.0090123613     1.064597  0.029879418 
number of iterations: 31226 
    7600    52.008907      158          158            0 1.6732239e-13            0          0.1 0.0090125722    1.0898544  0.029879067 
number of iterations: 31316 
    7700    52.717048      159          159            0 1.7017625e-13            0          0.1 0.0090127866    1.1155425   0.02987871 
number of iterations: 31408 
    7800    53.460492      163          163            0 1.7307878e-13            0          0.1 0.0090130047    1.1416688  0.029878346 
number of iterations: 31765 
    7900    54.176769      167          167            0 1.7603082e-13            0          0.1 0.0090132352    1.1682406  0.029877963 
number of iterations: 31594 
    8000    54.879524      173          173            0 1.7903321e-13            0          0.1  0.009013461    1.1952657  0.029877587 
number of iterations: 31685 
    8100    55.576615      175          175            0 1.820868e-13            0          0.1 0.0090136906    1.2227517  0.029877204 
number of iterations: 31427 
    8200    56.268888      179          179            0 1.8519248e-13            0          0.1 0.0090139122    1.2507065  0.029876835 
number of iterations: 31268 
    8300    56.979955      185          185            0 1.8835113e-13            0          0.1 0.0090141245    1.2791381  0.029876482 
number of iterations: 31708 
    8400    57.708963      192          192            0 1.9156366e-13            0          0.1 0.0090143574    1.3080546  0.029876094 
number of iterations: 32029 
    8500    58.429474      193          193            0 1.9483097e-13            0          0.1 0.0090146023    1.3374642  0.029875686 
number of iterations: 32628 
    8600    59.145032      199          199            0 1.9815401e-13            0          0.1  0.009014876    1.3673756  0.029875231 
number of iterations: 32220 
    8700    59.861138      204          204            0 2.0153374e-13            0          0.1 0.0090151297     1.397797  0.029874808 
number of iterations: 33248 
    8800    60.580929      208          208            0 2.049711e-13            0          0.1 0.0090154276    1.4287373  0.029874312 
number of iterations: 32421 
    8900    61.278294      210          210            0 2.0846709e-13            0          0.1 0.0090156907    1.4602053  0.029873874 
number of iterations: 32510 
    9000    61.978238      211          211            0 2.1202271e-13            0          0.1 0.0090159584      1.49221  0.029873428 
number of iterations: 32601 
    9100    62.727287      216          216            0 2.1563898e-13            0          0.1 0.0090162305    1.5247605  0.029872975 
number of iterations: 32692 
    9200    63.517067      216          216            0 2.1931692e-13            0          0.1 0.0090165074    1.5578662  0.029872514 
number of iterations: 33089 
    9300    64.276886      220          220            0 2.2305759e-13            0          0.1 0.0090168085    1.5915367  0.029872013 
number of iterations: 32879 
    9400    65.025251      223          223            0 2.2686207e-13            0          0.1 0.0090170952    1.6257814  0.029871536 
number of iterations: 32969 
    9500    65.774201      226          226            0 2.3073143e-13            0          0.1 0.0090173867      1.66061   0.02987105 
number of iterations: 33061 
    9600    66.512552      229          229            0 2.3466679e-13            0          0.1 0.0090176833    1.6960327  0.029870556 
number of iterations: 33152 
    9700    67.237237      235          235            0 2.3866927e-13            0          0.1 0.0090179849    1.7320596  0.029870054 
number of iterations: 33246 
    9800    67.973023      241          241            0 2.4274002e-13            0          0.1 0.0090182916     1.768701  0.029869543 
number of iterations: 33334 
    9900    68.699933      242          242            0 2.4688019e-13            0          0.1 0.0090186036    1.8059672  0.029869024 
number of iterations: 33425 
   10000    69.433086      247          247            0 2.5109098e-13            0          0.1 0.0090189209    1.8438691  0.029868495 
Loop time of 69.4331 on 8 procs for 10000 steps with 247 atoms

Performance: 124436273.212 tau/day, 144.023 timesteps/s
88.7% CPU use with 8 MPI tasks x no OpenMP threads

MPI task timing breakdown:
Section |  min time  |  avg time  |  max time  |%varavg| %total
---------------------------------------------------------------
Pair    | 0.0078693  | 0.010195   | 0.012626   |   1.4 |  0.01
Neigh   | 0.0066421  | 0.0076517  | 0.0087623  |   1.0 |  0.01
Comm    | 0.022353   | 0.040852   | 0.047051   |   3.8 |  0.06
Output  | 10.648     | 10.648     | 10.65      |   0.0 | 15.34
Modify  | 58.663     | 58.665     | 58.667     |   0.0 | 84.49
Other   |            | 0.06162    |            |       |  0.09

Nlocal:    30.875 ave 55 max 14 min
Histogram: 1 2 2 0 0 1 0 0 1 1
Nghost:    5.375 ave 12 max 0 min
Histogram: 1 1 1 0 1 2 0 1 0 1
Neighs:    33.125 ave 62 max 15 min
Histogram: 2 1 2 0 0 1 0 0 1 1

Total # of neighbors = 265
Ave neighs/atom = 1.07287
Neighbor list builds = 111
Dangerous builds = 0
Total wall time: 0:01:09
