ITEM: TIMESTEP
0
ITEM: NUMBER OF ATOMS
50
ITEM: BOX BOUNDS ff ff ff
0.0000000000000000e+00 1.0000000000000000e-04
0.0000000000000000e+00 1.0000000000000000e-04
0.0000000000000000e+00 5.0000000000000002e-05
ITEM: ATOMS id type diameter x y z 
21 1 1.76e-06 1.12e-05 4.06e-05 4.2e-06 
25 1 1.53e-06 1.02e-05 4.1e-05 6.22e-06 
49 1 1.51e-06 1.57e-05 4.87e-05 1.08e-05 
29 1 1.93e-06 1.33e-05 9.23e-06 1.43e-05 
2 1 1.72e-06 1.99e-05 5.64e-06 1.69e-05 
46 1 1.68e-06 4.32e-06 2.9e-05 2.04e-05 
23 1 1.63e-06 1.09e-05 4.09e-05 3.07e-05 
5 1 1.55e-06 8.43e-06 1e-05 3.41e-05 
28 1 1.88e-06 3.12e-05 3.64e-05 3.86e-05 
9 1 1.77e-06 2.54e-05 1.73e-05 4.24e-05 
48 1 1.54e-06 1.27e-05 4.84e-05 4.36e-05 
7 1 1.72e-06 2.38e-06 2.18e-06 4.51e-05 
47 1 1.77e-06 4.69e-05 2.15e-05 4.51e-05 
27 1 1.59e-06 3.35e-05 3.25e-05 4.69e-05 
13 1 1.8e-06 3.26e-05 1.19e-05 4.77e-05 
39 1 1.39e-06 3e-05 5.53e-05 1.54e-06 
45 1 1.48e-06 3.9e-05 9.01e-05 4.08e-06 
34 1 1.54e-06 1.28e-05 6.23e-05 5.14e-06 
38 1 1.55e-06 3.58e-05 5.28e-05 1.15e-05 
30 1 1.45e-06 1.42e-05 6.43e-05 1.63e-05 
24 1 1.92e-06 1.84e-05 5.8e-05 2.11e-05 
4 1 1.72e-06 3.03e-05 7.83e-05 2.29e-05 
12 1 1.71e-06 6.2e-06 8.89e-05 2.53e-05 
22 1 1.87e-06 4.14e-05 9.63e-05 2.51e-05 
35 1 1.43e-06 4.26e-05 9.4e-05 2.96e-05 
31 1 1.61e-06 3.26e-05 7.94e-05 3.73e-05 
1 1 1.72e-06 6.67e-06 9.53e-05 3.93e-05 
3 1 1.67e-06 1.22e-05 5.73e-05 4.18e-05 
26 1 1.62e-06 4.03e-05 9.67e-05 4.28e-05 
20 1 1.85e-06 4.18e-05 8.2e-05 4.32e-05 
19 1 1.62e-06 1.57e-05 8.92e-05 4.78e-05 
11 1 1.54e-06 6.51e-05 2.88e-05 4.94e-06 
32 1 1.87e-06 9.26e-05 3.04e-05 8.07e-06 
36 1 1.87e-06 8.49e-05 2.55e-05 1.15e-05 
16 1 1.37e-06 7.36e-05 3.31e-05 1.52e-05 
50 1 1.68e-06 6.93e-05 3.47e-05 2.03e-05 
10 1 1.62e-06 7.01e-05 3.85e-05 2.06e-05 
14 1 1.66e-06 8.98e-05 4.37e-05 2.35e-05 
37 1 1.65e-06 8.51e-05 2.8e-05 3.05e-05 
6 1 1.39e-06 8.85e-05 8.85e-06 3.78e-05 
18 1 1.8e-06 8.65e-05 1.09e-05 4.03e-05 
43 1 1.84e-06 6.57e-05 3.34e-05 4.1e-05 
8 1 1.77e-06 8.3e-05 9e-05 4.97e-06 
17 1 1.65e-06 8.7e-05 9.31e-05 5.13e-06 
33 1 1.56e-06 7.44e-05 9.11e-05 5.86e-06 
44 1 1.74e-06 9.19e-05 7.1e-05 3.01e-05 
15 1 1.61e-06 7.79e-05 5.69e-05 3.2e-05 
42 1 1.72e-06 8.68e-05 5.02e-05 3.47e-05 
40 1 1.83e-06 5.67e-05 7.55e-05 3.65e-05 
41 1 1.88e-06 6.09e-05 6.02e-05 4.58e-05 
ITEM: TIMESTEP
100
ITEM: NUMBER OF ATOMS
50
ITEM: BOX BOUNDS ff ff ff
0.0000000000000000e+00 1.0000000000000000e-04
0.0000000000000000e+00 1.0000000000000000e-04
0.0000000000000000e+00 5.0000000000000002e-05
ITEM: ATOMS id type diameter x y z 
21 1 1.76995e-06 1.12e-05 4.06e-05 4.2e-06 
25 1 1.53865e-06 1.02e-05 4.1e-05 6.22e-06 
49 1 1.51854e-06 1.57e-05 4.87e-05 1.08e-05 
29 1 1.94091e-06 1.33e-05 9.23e-06 1.43e-05 
2 1 1.72972e-06 1.99e-05 5.64e-06 1.69e-05 
46 1 1.6895e-06 4.32e-06 2.9e-05 2.04e-05 
23 1 1.63921e-06 1.09e-05 4.09e-05 3.07e-05 
5 1 1.55876e-06 8.43e-06 1e-05 3.41e-05 
28 1 1.89063e-06 3.12e-05 3.64e-05 3.86e-05 
9 1 1.78001e-06 2.54e-05 1.73e-05 4.24e-05 
48 1 1.54871e-06 1.27e-05 4.84e-05 4.36e-05 
7 1 1.72972e-06 2.38e-06 2.18e-06 4.51e-05 
47 1 1.78001e-06 4.69e-05 2.15e-05 4.51e-05 
27 1 1.59899e-06 3.35e-05 3.25e-05 4.69e-05 
13 1 1.81018e-06 3.26e-05 1.19e-05 4.77e-05 
39 1 1.39786e-06 3e-05 5.53e-05 1.54e-06 
45 1 1.48837e-06 3.9e-05 9.01e-05 4.08e-06 
34 1 1.54871e-06 1.28e-05 6.23e-05 5.14e-06 
38 1 1.55876e-06 3.58e-05 5.28e-05 1.15e-05 
30 1 1.4582e-06 1.42e-05 6.43e-05 1.63e-05 
24 1 1.93085e-06 1.84e-05 5.8e-05 2.11e-05 
4 1 1.72972e-06 3.03e-05 7.83e-05 2.29e-05 
12 1 1.71967e-06 6.2e-06 8.89e-05 2.53e-05 
22 1 1.88057e-06 4.14e-05 9.63e-05 2.51e-05 
35 1 1.43808e-06 4.26e-05 9.4e-05 2.96e-05 
31 1 1.6191e-06 3.26e-05 7.94e-05 3.73e-05 
1 1 1.72972e-06 6.67e-06 9.53e-05 3.93e-05 
3 1 1.67944e-06 1.22e-05 5.73e-05 4.18e-05 
26 1 1.62916e-06 4.03e-05 9.67e-05 4.28e-05 
20 1 1.86046e-06 4.18e-05 8.2e-05 4.32e-05 
19 1 1.62916e-06 1.57e-05 8.92e-05 4.78e-05 
11 1 1.54871e-06 6.51e-05 2.88e-05 4.94e-06 
32 1 1.88057e-06 9.26e-05 3.04e-05 8.07e-06 
36 1 1.88057e-06 8.49e-05 2.55e-05 1.15e-05 
16 1 1.37775e-06 7.36e-05 3.31e-05 1.52e-05 
50 1 1.6895e-06 6.93e-05 3.47e-05 2.03e-05 
10 1 1.62916e-06 7.01e-05 3.85e-05 2.06e-05 
14 1 1.66938e-06 8.98e-05 4.37e-05 2.35e-05 
37 1 1.65933e-06 8.51e-05 2.8e-05 3.05e-05 
6 1 1.39786e-06 8.85e-05 8.85e-06 3.78e-05 
18 1 1.81018e-06 8.65e-05 1.09e-05 4.03e-05 
43 1 1.8504e-06 6.57e-05 3.34e-05 4.1e-05 
8 1 1.78001e-06 8.3e-05 9e-05 4.97e-06 
17 1 1.65933e-06 8.7e-05 9.31e-05 5.13e-06 
33 1 1.56882e-06 7.44e-05 9.11e-05 5.86e-06 
44 1 1.74984e-06 9.19e-05 7.1e-05 3.01e-05 
15 1 1.6191e-06 7.79e-05 5.69e-05 3.2e-05 
42 1 1.72972e-06 8.68e-05 5.02e-05 3.47e-05 
40 1 1.84035e-06 5.67e-05 7.55e-05 3.65e-05 
41 1 1.89063e-06 6.09e-05 6.02e-05 4.58e-05 
ITEM: TIMESTEP
200
ITEM: NUMBER OF ATOMS
50
ITEM: BOX BOUNDS ff ff ff
0.0000000000000000e+00 1.0000000000000000e-04
0.0000000000000000e+00 1.0000000000000000e-04
0.0000000000000000e+00 5.0000000000000002e-05
ITEM: ATOMS id type diameter x y z 
21 1 1.77996e-06 1.12e-05 4.06e-05 4.2e-06 
25 1 1.54735e-06 1.02e-05 4.1e-05 6.22e-06 
49 1 1.52712e-06 1.57e-05 4.87e-05 1.08e-05 
29 1 1.95188e-06 1.33e-05 9.23e-06 1.43e-05 
2 1 1.7395e-06 1.99e-05 5.64e-06 1.69e-05 
46 1 1.69905e-06 4.32e-06 2.9e-05 2.04e-05 
23 1 1.64848e-06 1.09e-05 4.09e-05 3.07e-05 
5 1 1.56757e-06 8.43e-06 1e-05 3.41e-05 
28 1 1.90132e-06 3.12e-05 3.64e-05 3.86e-05 
9 1 1.79007e-06 2.54e-05 1.73e-05 4.24e-05 
48 1 1.55746e-06 1.27e-05 4.84e-05 4.36e-05 
7 1 1.7395e-06 2.38e-06 2.18e-06 4.51e-05 
47 1 1.79007e-06 4.69e-05 2.15e-05 4.51e-05 
27 1 1.60803e-06 3.35e-05 3.25e-05 4.69e-05 
13 1 1.82041e-06 3.26e-05 1.19e-05 4.77e-05 
39 1 1.40576e-06 3e-05 5.53e-05 1.54e-06 
45 1 1.49678e-06 3.9e-05 9.01e-05 4.08e-06 
34 1 1.55746e-06 1.28e-05 6.23e-05 5.14e-06 
38 1 1.56757e-06 3.58e-05 5.28e-05 1.15e-05 
30 1 1.46644e-06 1.42e-05 6.43e-05 1.63e-05 
24 1 1.94177e-06 1.84e-05 5.8e-05 2.11e-05 
4 1 1.7395e-06 3.03e-05 7.83e-05 2.29e-05 
12 1 1.72939e-06 6.2e-06 8.89e-05 2.53e-05 
22 1 1.8912e-06 4.14e-05 9.63e-05 2.51e-05 
35 1 1.44621e-06 4.26e-05 9.4e-05 2.96e-05 
31 1 1.62826e-06 3.26e-05 7.94e-05 3.73e-05 
1 1 1.7395e-06 6.67e-06 9.53e-05 3.93e-05 
3 1 1.68894e-06 1.22e-05 5.73e-05 4.18e-05 
26 1 1.63837e-06 4.03e-05 9.67e-05 4.28e-05 
20 1 1.87098e-06 4.18e-05 8.2e-05 4.32e-05 
19 1 1.63837e-06 1.57e-05 8.92e-05 4.78e-05 
11 1 1.55746e-06 6.51e-05 2.88e-05 4.94e-06 
32 1 1.8912e-06 9.26e-05 3.04e-05 8.07e-06 
36 1 1.8912e-06 8.49e-05 2.55e-05 1.15e-05 
16 1 1.38553e-06 7.36e-05 3.31e-05 1.52e-05 
50 1 1.69905e-06 6.93e-05 3.47e-05 2.03e-05 
10 1 1.63837e-06 7.01e-05 3.85e-05 2.06e-05 
14 1 1.67882e-06 8.98e-05 4.37e-05 2.35e-05 
37 1 1.66871e-06 8.51e-05 2.8e-05 3.05e-05 
6 1 1.40576e-06 8.85e-05 8.85e-06 3.78e-05 
18 1 1.82041e-06 8.65e-05 1.09e-05 4.03e-05 
43 1 1.86086e-06 6.57e-05 3.34e-05 4.1e-05 
8 1 1.79007e-06 8.3e-05 9e-05 4.97e-06 
17 1 1.66871e-06 8.7e-05 9.31e-05 5.13e-06 
33 1 1.57769e-06 7.44e-05 9.11e-05 5.86e-06 
44 1 1.75973e-06 9.19e-05 7.1e-05 3.01e-05 
15 1 1.62826e-06 7.79e-05 5.69e-05 3.2e-05 
42 1 1.7395e-06 8.68e-05 5.02e-05 3.47e-05 
40 1 1.85075e-06 5.67e-05 7.55e-05 3.65e-05 
41 1 1.90132e-06 6.09e-05 6.02e-05 4.58e-05 
ITEM: TIMESTEP
300
ITEM: NUMBER OF ATOMS
50
ITEM: BOX BOUNDS ff ff ff
0.0000000000000000e+00 1.0000000000000000e-04
0.0000000000000000e+00 1.0000000000000000e-04
0.0000000000000000e+00 5.0000000000000002e-05
ITEM: ATOMS id type diameter x y z 
21 1 1.79002e-06 1.12e-05 4.06e-05 4.2e-06 
25 1 1.5561e-06 1.02e-05 4.1e-05 6.22e-06 
49 1 1.53575e-06 1.57e-05 4.87e-05 1.08e-05 
29 1 1.96292e-06 1.33e-05 9.23e-06 1.43e-05 
2 1 1.74934e-06 1.99e-05 5.64e-06 1.69e-05 
46 1 1.70865e-06 4.32e-06 2.9e-05 2.04e-05 
23 1 1.6578e-06 1.09e-05 4.09e-05 3.07e-05 
5 1 1.57644e-06 8.43e-06 1e-05 3.41e-05 
28 1 1.91207e-06 3.12e-05 3.64e-05 3.86e-05 
9 1 1.80019e-06 2.54e-05 1.73e-05 4.24e-05 
48 1 1.56627e-06 1.27e-05 4.84e-05 4.36e-05 
7 1 1.74934e-06 2.38e-06 2.18e-06 4.51e-05 
47 1 1.80019e-06 4.69e-05 2.15e-05 4.51e-05 
27 1 1.61712e-06 3.35e-05 3.25e-05 4.69e-05 
13 1 1.8307e-06 3.26e-05 1.19e-05 4.77e-05 
39 1 1.41371e-06 3e-05 5.53e-05 1.54e-06 
45 1 1.50524e-06 3.9e-05 9.01e-05 4.08e-06 
34 1 1.56627e-06 1.28e-05 6.23e-05 5.14e-06 
38 1 1.57644e-06 3.58e-05 5.28e-05 1.15e-05 
30 1 1.47473e-06 1.42e-05 6.43e-05 1.63e-05 
24 1 1.95275e-06 1.84e-05 5.8e-05 2.11e-05 
4 1 1.74934e-06 3.03e-05 7.83e-05 2.29e-05 
12 1 1.73917e-06 6.2e-06 8.89e-05 2.53e-05 
22 1 1.90189e-06 4.14e-05 9.63e-05 2.51e-05 
35 1 1.45439e-06 4.26e-05 9.4e-05 2.96e-05 
31 1 1.63746e-06 3.26e-05 7.94e-05 3.73e-05 
1 1 1.74934e-06 6.67e-06 9.53e-05 3.93e-05 
3 1 1.69848e-06 1.22e-05 5.73e-05 4.18e-05 
26 1 1.64763e-06 4.03e-05 9.67e-05 4.28e-05 
20 1 1.88155e-06 4.18e-05 8.2e-05 4.32e-05 
19 1 1.64763e-06 1.57e-05 8.92e-05 4.78e-05 
11 1 1.56627e-06 6.51e-05 2.88e-05 4.94e-06 
32 1 1.90189e-06 9.26e-05 3.04e-05 8.07e-06 
36 1 1.90189e-06 8.49e-05 2.55e-05 1.15e-05 
16 1 1.39337e-06 7.36e-05 3.31e-05 1.52e-05 
50 1 1.70865e-06 6.93e-05 3.47e-05 2.03e-05 
10 1 1.64763e-06 7.01e-05 3.85e-05 2.06e-05 
14 1 1.68831e-06 8.98e-05 4.37e-05 2.35e-05 
37 1 1.67814e-06 8.51e-05 2.8e-05 3.05e-05 
6 1 1.41371e-06 8.85e-05 8.85e-06 3.78e-05 
18 1 1.8307e-06 8.65e-05 1.09e-05 4.03e-05 
43 1 1.87138e-06 6.57e-05 3.34e-05 4.1e-05 
8 1 1.80019e-06 8.3e-05 9e-05 4.97e-06 
17 1 1.67814e-06 8.7e-05 9.31e-05 5.13e-06 
33 1 1.58661e-06 7.44e-05 9.11e-05 5.86e-06 
44 1 1.76968e-06 9.19e-05 7.1e-05 3.01e-05 
15 1 1.63746e-06 7.79e-05 5.69e-05 3.2e-05 
42 1 1.74934e-06 8.68e-05 5.02e-05 3.47e-05 
40 1 1.86121e-06 5.67e-05 7.55e-05 3.65e-05 
41 1 1.91207e-06 6.09e-05 6.02e-05 4.58e-05 
ITEM: TIMESTEP
400
ITEM: NUMBER OF ATOMS
51
ITEM: BOX BOUNDS ff ff ff
0.0000000000000000e+00 1.0000000000000000e-04
0.0000000000000000e+00 1.0000000000000000e-04
0.0000000000000000e+00 5.0000000000000002e-05
ITEM: ATOMS id type diameter x y z 
21 1 1.80014e-06 1.12e-05 4.06e-05 4.2e-06 
25 1 1.56489e-06 1.02e-05 4.1e-05 6.22e-06 
49 1 1.54444e-06 1.57e-05 4.87e-05 1.08e-05 
29 1 1.58341e-06 1.27919e-05 8.82156e-06 1.38517e-05 
2 1 1.75923e-06 1.99e-05 5.64e-06 1.69e-05 
51 1 1.54979e-06 1.37973e-05 9.62977e-06 1.47388e-05 
46 1 1.71831e-06 4.32e-06 2.9e-05 2.04e-05 
23 1 1.66717e-06 1.09e-05 4.09e-05 3.07e-05 
5 1 1.58535e-06 8.43e-06 1e-05 3.41e-05 
28 1 1.92288e-06 3.12e-05 3.64e-05 3.86e-05 
9 1 1.81037e-06 2.54e-05 1.73e-05 4.24e-05 
48 1 1.57512e-06 1.27e-05 4.84e-05 4.36e-05 
7 1 1.75923e-06 2.38e-06 2.18e-06 4.51e-05 
47 1 1.81037e-06 4.69e-05 2.15e-05 4.51e-05 
27 1 1.62626e-06 3.35e-05 3.25e-05 4.69e-05 
13 1 1.84105e-06 3.26e-05 1.19e-05 4.77e-05 
39 1 1.4217e-06 3e-05 5.53e-05 1.54e-06 
45 1 1.51375e-06 3.9e-05 9.01e-05 4.08e-06 
34 1 1.57512e-06 1.28e-05 6.23e-05 5.14e-06 
38 1 1.58535e-06 3.58e-05 5.28e-05 1.15e-05 
30 1 1.48307e-06 1.42e-05 6.43e-05 1.63e-05 
24 1 1.96379e-06 1.84e-05 5.8e-05 2.11e-05 
4 1 1.75923e-06 3.03e-05 7.83e-05 2.29e-05 
12 1 1.749e-06 6.2e-06 8.89e-05 2.53e-05 
22 1 1.91265e-06 4.14e-05 9.63e-05 2.51e-05 
35 1 1.46261e-06 4.26e-05 9.4e-05 2.96e-05 
31 1 1.64672e-06 3.26e-05 7.94e-05 3.73e-05 
1 1 1.75923e-06 6.67e-06 9.53e-05 3.93e-05 
3 1 1.70809e-06 1.22e-05 5.73e-05 4.18e-05 
26 1 1.65695e-06 4.03e-05 9.67e-05 4.28e-05 
20 1 1.89219e-06 4.18e-05 8.2e-05 4.32e-05 
19 1 1.65695e-06 1.57e-05 8.92e-05 4.78e-05 
11 1 1.57512e-06 6.51e-05 2.88e-05 4.94e-06 
32 1 1.91265e-06 9.26e-05 3.04e-05 8.07e-06 
36 1 1.91265e-06 8.49e-05 2.55e-05 1.15e-05 
16 1 1.40124e-06 7.36e-05 3.31e-05 1.52e-05 
50 1 1.71831e-06 6.93e-05 3.47e-05 2.03e-05 
10 1 1.65695e-06 7.01e-05 3.85e-05 2.06e-05 
14 1 1.69786e-06 8.98e-05 4.37e-05 2.35e-05 
37 1 1.68763e-06 8.51e-05 2.8e-05 3.05e-05 
6 1 1.4217e-06 8.85e-05 8.85e-06 3.78e-05 
18 1 1.84105e-06 8.65e-05 1.09e-05 4.03e-05 
43 1 1.88196e-06 6.57e-05 3.34e-05 4.1e-05 
8 1 1.81037e-06 8.3e-05 9e-05 4.97e-06 
17 1 1.68763e-06 8.7e-05 9.31e-05 5.13e-06 
33 1 1.59558e-06 7.44e-05 9.11e-05 5.86e-06 
44 1 1.77968e-06 9.19e-05 7.1e-05 3.01e-05 
15 1 1.64672e-06 7.79e-05 5.69e-05 3.2e-05 
42 1 1.75923e-06 8.68e-05 5.02e-05 3.47e-05 
40 1 1.87173e-06 5.67e-05 7.55e-05 3.65e-05 
41 1 1.92288e-06 6.09e-05 6.02e-05 4.58e-05 
ITEM: TIMESTEP
500
ITEM: NUMBER OF ATOMS
52
ITEM: BOX BOUNDS ff ff ff
0.0000000000000000e+00 1.0000000000000000e-04
0.0000000000000000e+00 1.0000000000000000e-04
0.0000000000000000e+00 5.0000000000000002e-05
ITEM: ATOMS id type diameter x y z 
21 1 1.81032e-06 1.12e-05 4.06e-05 4.2e-06 
25 1 1.57374e-06 1.02e-05 4.1e-05 6.22e-06 
49 1 1.55317e-06 1.57e-05 4.87e-05 1.08e-05 
29 1 1.59236e-06 1.27919e-05 8.82156e-06 1.38517e-05 
2 1 1.76917e-06 1.99e-05 5.64e-06 1.69e-05 
51 1 1.55855e-06 1.37973e-05 9.62977e-06 1.47388e-05 
46 1 1.72803e-06 4.32e-06 2.9e-05 2.04e-05 
23 1 1.6766e-06 1.09e-05 4.09e-05 3.07e-05 
5 1 1.59431e-06 8.43e-06 1e-05 3.41e-05 
28 1 1.93375e-06 3.12e-05 3.64e-05 3.86e-05 
9 1 1.8206e-06 2.54e-05 1.73e-05 4.24e-05 
48 1 1.58403e-06 1.27e-05 4.84e-05 4.36e-05 
7 1 1.76917e-06 2.38e-06 2.18e-06 4.51e-05 
47 1 1.8206e-06 4.69e-05 2.15e-05 4.51e-05 
27 1 1.63546e-06 3.35e-05 3.25e-05 4.69e-05 
13 1 1.85146e-06 3.26e-05 1.19e-05 4.77e-05 
39 1 1.42974e-06 3e-05 5.53e-05 1.54e-06 
45 1 1.52231e-06 3.9e-05 9.01e-05 4.08e-06 
34 1 1.58403e-06 1.28e-05 6.23e-05 5.14e-06 
38 1 1.59431e-06 3.58e-05 5.28e-05 1.15e-05 
30 1 1.49145e-06 1.42e-05 6.43e-05 1.63e-05 
24 1 1.58411e-06 1.78917e-05 5.75914e-05 2.06515e-05 
4 1 1.76917e-06 3.03e-05 7.83e-05 2.29e-05 
12 1 1.75889e-06 6.2e-06 8.89e-05 2.53e-05 
22 1 1.92346e-06 4.14e-05 9.63e-05 2.51e-05 
35 1 1.47088e-06 4.26e-05 9.4e-05 2.96e-05 
31 1 1.65603e-06 3.26e-05 7.94e-05 3.73e-05 
1 1 1.76917e-06 6.67e-06 9.53e-05 3.93e-05 
3 1 1.71774e-06 1.22e-05 5.73e-05 4.18e-05 
26 1 1.66631e-06 4.03e-05 9.67e-05 4.28e-05 
20 1 1.90289e-06 4.18e-05 8.2e-05 4.32e-05 
19 1 1.66631e-06 1.57e-05 8.92e-05 4.78e-05 
52 1 1.55047e-06 1.88975e-05 5.83999e-05 2.1539e-05 
11 1 1.58403e-06 6.51e-05 2.88e-05 4.94e-06 
32 1 1.92346e-06 9.26e-05 3.04e-05 8.07e-06 
36 1 1.92346e-06 8.49e-05 2.55e-05 1.15e-05 
16 1 1.40917e-06 7.36e-05 3.31e-05 1.52e-05 
50 1 1.72803e-06 6.93e-05 3.47e-05 2.03e-05 
10 1 1.66631e-06 7.01e-05 3.85e-05 2.06e-05 
14 1 1.70746e-06 8.98e-05 4.37e-05 2.35e-05 
37 1 1.69717e-06 8.51e-05 2.8e-05 3.05e-05 
6 1 1.42974e-06 8.85e-05 8.85e-06 3.78e-05 
18 1 1.85146e-06 8.65e-05 1.09e-05 4.03e-05 
43 1 1.8926e-06 6.57e-05 3.34e-05 4.1e-05 
8 1 1.8206e-06 8.3e-05 9e-05 4.97e-06 
17 1 1.69717e-06 8.7e-05 9.31e-05 5.13e-06 
33 1 1.6046e-06 7.44e-05 9.11e-05 5.86e-06 
44 1 1.78974e-06 9.19e-05 7.1e-05 3.01e-05 
15 1 1.65603e-06 7.79e-05 5.69e-05 3.2e-05 
42 1 1.76917e-06 8.68e-05 5.02e-05 3.47e-05 
40 1 1.88232e-06 5.67e-05 7.55e-05 3.65e-05 
41 1 1.93375e-06 6.09e-05 6.02e-05 4.58e-05 
ITEM: TIMESTEP
600
ITEM: NUMBER OF ATOMS
52
ITEM: BOX BOUNDS ff ff ff
0.0000000000000000e+00 1.0000000000000000e-04
0.0000000000000000e+00 1.0000000000000000e-04
0.0000000000000000e+00 5.0000000000000002e-05
ITEM: ATOMS id type diameter x y z 
21 1 1.82055e-06 1.12e-05 4.06e-05 4.2e-06 
25 1 1.58264e-06 1.02e-05 4.1e-05 6.22e-06 
49 1 1.56195e-06 1.57e-05 4.87e-05 1.08e-05 
29 1 1.60136e-06 1.27919e-05 8.82156e-06 1.38517e-05 
2 1 1.77917e-06 1.99e-05 5.64e-06 1.69e-05 
51 1 1.56736e-06 1.37973e-05 9.62977e-06 1.47388e-05 
46 1 1.7378e-06 4.32e-06 2.9e-05 2.04e-05 
23 1 1.68608e-06 1.09e-05 4.09e-05 3.07e-05 
5 1 1.60332e-06 8.43e-06 1e-05 3.41e-05 
28 1 1.94468e-06 3.12e-05 3.64e-05 3.86e-05 
9 1 1.83089e-06 2.54e-05 1.73e-05 4.24e-05 
48 1 1.59298e-06 1.27e-05 4.84e-05 4.36e-05 
7 1 1.77917e-06 2.38e-06 2.18e-06 4.51e-05 
47 1 1.83089e-06 4.69e-05 2.15e-05 4.51e-05 
27 1 1.6447e-06 3.35e-05 3.25e-05 4.69e-05 
13 1 1.86193e-06 3.26e-05 1.19e-05 4.77e-05 
39 1 1.43782e-06 3e-05 5.53e-05 1.54e-06 
45 1 1.53092e-06 3.9e-05 9.01e-05 4.08e-06 
34 1 1.59298e-06 1.28e-05 6.23e-05 5.14e-06 
38 1 1.60332e-06 3.58e-05 5.28e-05 1.15e-05 
30 1 1.49988e-06 1.42e-05 6.43e-05 1.63e-05 
24 1 1.59306e-06 1.78917e-05 5.75914e-05 2.06515e-05 
4 1 1.77917e-06 3.03e-05 7.83e-05 2.29e-05 
12 1 1.76883e-06 6.2e-06 8.89e-05 2.53e-05 
22 1 1.93433e-06 4.14e-05 9.63e-05 2.51e-05 
35 1 1.4792e-06 4.26e-05 9.4e-05 2.96e-05 
31 1 1.66539e-06 3.26e-05 7.94e-05 3.73e-05 
1 1 1.77917e-06 6.67e-06 9.53e-05 3.93e-05 
3 1 1.72745e-06 1.22e-05 5.73e-05 4.18e-05 
26 1 1.67573e-06 4.03e-05 9.67e-05 4.28e-05 
20 1 1.91365e-06 4.18e-05 8.2e-05 4.32e-05 
19 1 1.67573e-06 1.57e-05 8.92e-05 4.78e-05 
52 1 1.55924e-06 1.88975e-05 5.83999e-05 2.1539e-05 
11 1 1.59298e-06 6.51e-05 2.88e-05 4.94e-06 
32 1 1.93433e-06 9.26e-05 3.04e-05 8.07e-06 
36 1 1.93433e-06 8.49e-05 2.55e-05 1.15e-05 
16 1 1.41713e-06 7.36e-05 3.31e-05 1.52e-05 
50 1 1.7378e-06 6.93e-05 3.47e-05 2.03e-05 
10 1 1.67573e-06 7.01e-05 3.85e-05 2.06e-05 
14 1 1.71711e-06 8.98e-05 4.37e-05 2.35e-05 
37 1 1.70677e-06 8.51e-05 2.8e-05 3.05e-05 
6 1 1.43782e-06 8.85e-05 8.85e-06 3.78e-05 
18 1 1.86193e-06 8.65e-05 1.09e-05 4.03e-05 
43 1 1.9033e-06 6.57e-05 3.34e-05 4.1e-05 
8 1 1.83089e-06 8.3e-05 9e-05 4.97e-06 
17 1 1.70677e-06 8.7e-05 9.31e-05 5.13e-06 
33 1 1.61367e-06 7.44e-05 9.11e-05 5.86e-06 
44 1 1.79986e-06 9.19e-05 7.1e-05 3.01e-05 
15 1 1.66539e-06 7.79e-05 5.69e-05 3.2e-05 
42 1 1.77917e-06 8.68e-05 5.02e-05 3.47e-05 
40 1 1.89296e-06 5.67e-05 7.55e-05 3.65e-05 
41 1 1.94468e-06 6.09e-05 6.02e-05 4.58e-05 
ITEM: TIMESTEP
700
ITEM: NUMBER OF ATOMS
52
ITEM: BOX BOUNDS ff ff ff
0.0000000000000000e+00 1.0000000000000000e-04
0.0000000000000000e+00 1.0000000000000000e-04
0.0000000000000000e+00 5.0000000000000002e-05
ITEM: ATOMS id type diameter x y z 
21 1 1.83084e-06 1.12e-05 4.06e-05 4.2e-06 
25 1 1.59158e-06 1.02e-05 4.1e-05 6.22e-06 
49 1 1.57078e-06 1.57e-05 4.87e-05 1.08e-05 
29 1 1.61041e-06 1.27919e-05 8.82156e-06 1.38517e-05 
2 1 1.78923e-06 1.99e-05 5.64e-06 1.69e-05 
51 1 1.57622e-06 1.37973e-05 9.62977e-06 1.47388e-05 
46 1 1.74762e-06 4.32e-06 2.9e-05 2.04e-05 
23 1 1.69561e-06 1.09e-05 4.09e-05 3.07e-05 
5 1 1.61239e-06 8.43e-06 1e-05 3.41e-05 
28 1 1.95567e-06 3.12e-05 3.64e-05 3.86e-05 
9 1 1.84124e-06 2.54e-05 1.73e-05 4.24e-05 
48 1 1.60199e-06 1.27e-05 4.84e-05 4.36e-05 
7 1 1.78923e-06 2.38e-06 2.18e-06 4.51e-05 
47 1 1.84124e-06 4.69e-05 2.15e-05 4.51e-05 
27 1 1.654e-06 3.35e-05 3.25e-05 4.69e-05 
13 1 1.87245e-06 3.26e-05 1.19e-05 4.77e-05 
39 1 1.44595e-06 3e-05 5.53e-05 1.54e-06 
45 1 1.53957e-06 3.9e-05 9.01e-05 4.08e-06 
34 1 1.60199e-06 1.28e-05 6.23e-05 5.14e-06 
38 1 1.61239e-06 3.58e-05 5.28e-05 1.15e-05 
30 1 1.50836e-06 1.42e-05 6.43e-05 1.63e-05 
24 1 1.60207e-06 1.78917e-05 5.75914e-05 2.06515e-05 
4 1 1.78923e-06 3.03e-05 7.83e-05 2.29e-05 
12 1 1.77883e-06 6.2e-06 8.89e-05 2.53e-05 
22 1 1.94527e-06 4.14e-05 9.63e-05 2.51e-05 
35 1 1.48756e-06 4.26e-05 9.4e-05 2.96e-05 
31 1 1.6748e-06 3.26e-05 7.94e-05 3.73e-05 
1 1 1.78923e-06 6.67e-06 9.53e-05 3.93e-05 
3 1 1.73722e-06 1.22e-05 5.73e-05 4.18e-05 
26 1 1.68521e-06 4.03e-05 9.67e-05 4.28e-05 
20 1 1.92446e-06 4.18e-05 8.2e-05 4.32e-05 
19 1 1.68521e-06 1.57e-05 8.92e-05 4.78e-05 
52 1 1.56805e-06 1.88975e-05 5.83999e-05 2.1539e-05 
11 1 1.60199e-06 6.51e-05 2.88e-05 4.94e-06 
32 1 1.94527e-06 9.26e-05 3.04e-05 8.07e-06 
36 1 1.94527e-06 8.49e-05 2.55e-05 1.15e-05 
16 1 1.42514e-06 7.36e-05 3.31e-05 1.52e-05 
50 1 1.74762e-06 6.93e-05 3.47e-05 2.03e-05 
10 1 1.68521e-06 7.01e-05 3.85e-05 2.06e-05 
14 1 1.72682e-06 8.98e-05 4.37e-05 2.35e-05 
37 1 1.71641e-06 8.51e-05 2.8e-05 3.05e-05 
6 1 1.44595e-06 8.85e-05 8.85e-06 3.78e-05 
18 1 1.87245e-06 8.65e-05 1.09e-05 4.03e-05 
43 1 1.91406e-06 6.57e-05 3.34e-05 4.1e-05 
8 1 1.84124e-06 8.3e-05 9e-05 4.97e-06 
17 1 1.71641e-06 8.7e-05 9.31e-05 5.13e-06 
33 1 1.62279e-06 7.44e-05 9.11e-05 5.86e-06 
44 1 1.81004e-06 9.19e-05 7.1e-05 3.01e-05 
15 1 1.6748e-06 7.79e-05 5.69e-05 3.2e-05 
42 1 1.78923e-06 8.68e-05 5.02e-05 3.47e-05 
40 1 1.90366e-06 5.67e-05 7.55e-05 3.65e-05 
41 1 1.95567e-06 6.09e-05 6.02e-05 4.58e-05 
ITEM: TIMESTEP
800
ITEM: NUMBER OF ATOMS
52
ITEM: BOX BOUNDS ff ff ff
0.0000000000000000e+00 1.0000000000000000e-04
0.0000000000000000e+00 1.0000000000000000e-04
0.0000000000000000e+00 5.0000000000000002e-05
ITEM: ATOMS id type diameter x y z 
21 1 1.84119e-06 1.12e-05 4.06e-05 4.2e-06 
25 1 1.60058e-06 1.02e-05 4.1e-05 6.22e-06 
49 1 1.57966e-06 1.57e-05 4.87e-05 1.08e-05 
29 1 1.61952e-06 1.27791e-05 8.81123e-06 1.38403e-05 
2 1 1.79935e-06 1.99e-05 5.64e-06 1.69e-05 
51 1 1.58513e-06 1.38101e-05 9.6401e-06 1.47501e-05 
46 1 1.7575e-06 4.32e-06 2.9e-05 2.04e-05 
23 1 1.70519e-06 1.09e-05 4.09e-05 3.07e-05 
5 1 1.6215e-06 8.43e-06 1e-05 3.41e-05 
28 1 1.96673e-06 3.12e-05 3.64e-05 3.86e-05 
9 1 1.85165e-06 2.54e-05 1.73e-05 4.24e-05 
48 1 1.61104e-06 1.27e-05 4.84e-05 4.36e-05 
7 1 1.79935e-06 2.38e-06 2.18e-06 4.51e-05 
47 1 1.85165e-06 4.69e-05 2.15e-05 4.51e-05 
27 1 1.66335e-06 3.35e-05 3.25e-05 4.69e-05 
13 1 1.88304e-06 3.26e-05 1.19e-05 4.77e-05 
39 1 1.45412e-06 3e-05 5.53e-05 1.54e-06 
45 1 1.54828e-06 3.9e-05 9.01e-05 4.08e-06 
34 1 1.61104e-06 1.28e-05 6.23e-05 5.14e-06 
38 1 1.6215e-06 3.58e-05 5.28e-05 1.15e-05 
30 1 1.51689e-06 1.42e-05 6.43e-05 1.63e-05 
24 1 1.61113e-06 1.78917e-05 5.75914e-05 2.06515e-05 
4 1 1.79935e-06 3.03e-05 7.83e-05 2.29e-05 
12 1 1.78889e-06 6.2e-06 8.89e-05 2.53e-05 
22 1 1.95627e-06 4.14e-05 9.63e-05 2.51e-05 
35 1 1.49597e-06 4.26e-05 9.4e-05 2.96e-05 
31 1 1.68427e-06 3.26e-05 7.94e-05 3.73e-05 
1 1 1.79935e-06 6.67e-06 9.53e-05 3.93e-05 
3 1 1.74704e-06 1.22e-05 5.73e-05 4.18e-05 
26 1 1.69473e-06 4.03e-05 9.67e-05 4.28e-05 
20 1 1.93534e-06 4.18e-05 8.2e-05 4.32e-05 
19 1 1.69473e-06 1.57e-05 8.92e-05 4.78e-05 
52 1 1.57692e-06 1.88975e-05 5.83999e-05 2.1539e-05 
11 1 1.61104e-06 6.51e-05 2.88e-05 4.94e-06 
32 1 1.95627e-06 9.26e-05 3.04e-05 8.07e-06 
36 1 1.95627e-06 8.49e-05 2.55e-05 1.15e-05 
16 1 1.4332e-06 7.36e-05 3.31e-05 1.52e-05 
50 1 1.7575e-06 6.93e-05 3.47e-05 2.03e-05 
10 1 1.69473e-06 7.01e-05 3.85e-05 2.06e-05 
14 1 1.73658e-06 8.98e-05 4.37e-05 2.35e-05 
37 1 1.72612e-06 8.51e-05 2.8e-05 3.05e-05 
6 1 1.45412e-06 8.85e-05 8.85e-06 3.78e-05 
18 1 1.88304e-06 8.65e-05 1.09e-05 4.03e-05 
43 1 1.92488e-06 6.57e-05 3.34e-05 4.1e-05 
8 1 1.85165e-06 8.3e-05 9e-05 4.97e-06 
17 1 1.72612e-06 8.7e-05 9.31e-05 5.13e-06 
33 1 1.63197e-06 7.44e-05 9.11e-05 5.86e-06 
44 1 1.82027e-06 9.19e-05 7.1e-05 3.01e-05 
15 1 1.68427e-06 7.79e-05 5.69e-05 3.2e-05 
42 1 1.79935e-06 8.68e-05 5.02e-05 3.47e-05 
40 1 1.91442e-06 5.67e-05 7.55e-05 3.65e-05 
41 1 1.96673e-06 6.09e-05 6.02e-05 4.58e-05 
ITEM: TIMESTEP
900
ITEM: NUMBER OF ATOMS
54
ITEM: BOX BOUNDS ff ff ff
0.0000000000000000e+00 1.0000000000000000e-04
0.0000000000000000e+00 1.0000000000000000e-04
0.0000000000000000e+00 5.0000000000000002e-05
ITEM: ATOMS id type diameter x y z 
21 1 1.8516e-06 1.12e-05 4.06e-05 4.2e-06 
25 1 1.60963e-06 1.02e-05 4.1e-05 6.22e-06 
49 1 1.58859e-06 1.57e-05 4.87e-05 1.08e-05 
29 1 1.62867e-06 1.27791e-05 8.81123e-06 1.38403e-05 
2 1 1.80952e-06 1.99e-05 5.64e-06 1.69e-05 
51 1 1.59409e-06 1.38101e-05 9.6401e-06 1.47501e-05 
46 1 1.76744e-06 4.32e-06 2.9e-05 2.04e-05 
23 1 1.71483e-06 1.09e-05 4.09e-05 3.07e-05 
5 1 1.63067e-06 8.43e-06 1e-05 3.41e-05 
28 1 1.58648e-06 3.06909e-05 3.59908e-05 3.81508e-05 
9 1 1.86212e-06 2.54e-05 1.73e-05 4.24e-05 
48 1 1.62015e-06 1.27e-05 4.84e-05 4.36e-05 
7 1 1.80952e-06 2.38e-06 2.18e-06 4.51e-05 
47 1 1.86212e-06 4.69e-05 2.15e-05 4.51e-05 
27 1 1.67275e-06 3.35e-05 3.25e-05 4.69e-05 
13 1 1.89368e-06 3.26e-05 1.19e-05 4.77e-05 
53 1 1.5528e-06 3.16983e-05 3.68005e-05 3.90397e-05 
39 1 1.46234e-06 3e-05 5.53e-05 1.54e-06 
45 1 1.55703e-06 3.9e-05 9.01e-05 4.08e-06 
34 1 1.62015e-06 1.28e-05 6.23e-05 5.14e-06 
38 1 1.63067e-06 3.58e-05 5.28e-05 1.15e-05 
30 1 1.52547e-06 1.42e-05 6.43e-05 1.63e-05 
24 1 1.62023e-06 1.78788e-05 5.75811e-05 2.06401e-05 
4 1 1.80952e-06 3.03e-05 7.83e-05 2.29e-05 
12 1 1.799e-06 6.2e-06 8.89e-05 2.53e-05 
22 1 1.96733e-06 4.14e-05 9.63e-05 2.51e-05 
35 1 1.50443e-06 4.26e-05 9.4e-05 2.96e-05 
31 1 1.69379e-06 3.26e-05 7.94e-05 3.73e-05 
1 1 1.80952e-06 6.67e-06 9.53e-05 3.93e-05 
3 1 1.75692e-06 1.22e-05 5.73e-05 4.18e-05 
26 1 1.70431e-06 4.03e-05 9.67e-05 4.28e-05 
20 1 1.94629e-06 4.18e-05 8.2e-05 4.32e-05 
19 1 1.70431e-06 1.57e-05 8.92e-05 4.78e-05 
52 1 1.58583e-06 1.89104e-05 5.84103e-05 2.15503e-05 
11 1 1.62015e-06 6.51e-05 2.88e-05 4.94e-06 
32 1 1.96733e-06 9.26e-05 3.04e-05 8.07e-06 
36 1 1.96733e-06 8.49e-05 2.55e-05 1.15e-05 
16 1 1.4413e-06 7.36e-05 3.31e-05 1.52e-05 
50 1 1.76744e-06 6.93e-05 3.47e-05 2.03e-05 
10 1 1.70431e-06 7.01e-05 3.85e-05 2.06e-05 
14 1 1.7464e-06 8.98e-05 4.37e-05 2.35e-05 
37 1 1.73588e-06 8.51e-05 2.8e-05 3.05e-05 
6 1 1.46234e-06 8.85e-05 8.85e-06 3.78e-05 
18 1 1.89368e-06 8.65e-05 1.09e-05 4.03e-05 
43 1 1.93576e-06 6.57e-05 3.34e-05 4.1e-05 
8 1 1.86212e-06 8.3e-05 9e-05 4.97e-06 
17 1 1.73588e-06 8.7e-05 9.31e-05 5.13e-06 
33 1 1.64119e-06 7.44e-05 9.11e-05 5.86e-06 
44 1 1.83056e-06 9.19e-05 7.1e-05 3.01e-05 
15 1 1.69379e-06 7.79e-05 5.69e-05 3.2e-05 
42 1 1.80952e-06 8.68e-05 5.02e-05 3.47e-05 
40 1 1.92524e-06 5.67e-05 7.55e-05 3.65e-05 
41 1 1.58648e-06 6.03909e-05 5.97908e-05 4.53508e-05 
54 1 1.5528e-06 6.13983e-05 6.06005e-05 4.62397e-05 
ITEM: TIMESTEP
1000
ITEM: NUMBER OF ATOMS
57
ITEM: BOX BOUNDS ff ff ff
0.0000000000000000e+00 1.0000000000000000e-04
0.0000000000000000e+00 1.0000000000000000e-04
0.0000000000000000e+00 5.0000000000000002e-05
ITEM: ATOMS id type diameter x y z 
21 1 1.86207e-06 1.12e-05 4.06e-05 4.2e-06 
25 1 1.61873e-06 1.02e-05 4.1e-05 6.22e-06 
49 1 1.59757e-06 1.57e-05 4.87e-05 1.08e-05 
29 1 1.63788e-06 1.27791e-05 8.81123e-06 1.38403e-05 
51 1 1.6031e-06 1.38101e-05 9.6401e-06 1.47501e-05 
2 1 1.81975e-06 1.99e-05 5.64e-06 1.69e-05 
46 1 1.77743e-06 4.32e-06 2.9e-05 2.04e-05 
23 1 1.72453e-06 1.09e-05 4.09e-05 3.07e-05 
5 1 1.63989e-06 8.43e-06 1e-05 3.41e-05 
28 1 1.59545e-06 3.06909e-05 3.59908e-05 3.81508e-05 
53 1 1.56157e-06 3.16983e-05 3.68005e-05 3.90397e-05 
9 1 1.87265e-06 2.54e-05 1.73e-05 4.24e-05 
48 1 1.62931e-06 1.27e-05 4.84e-05 4.36e-05 
7 1 1.81975e-06 2.38e-06 2.18e-06 4.51e-05 
47 1 1.87265e-06 4.69e-05 2.15e-05 4.51e-05 
27 1 1.68221e-06 3.35e-05 3.25e-05 4.69e-05 
13 1 1.90439e-06 3.26e-05 1.19e-05 4.77e-05 
39 1 1.47061e-06 3e-05 5.53e-05 1.54e-06 
45 1 1.56583e-06 3.9e-05 9.01e-05 4.08e-06 
34 1 1.62931e-06 1.28e-05 6.23e-05 5.14e-06 
38 1 1.63989e-06 3.58e-05 5.28e-05 1.15e-05 
30 1 1.53409e-06 1.42e-05 6.43e-05 1.63e-05 
24 1 1.62939e-06 1.78788e-05 5.75811e-05 2.06401e-05 
52 1 1.5948e-06 1.89104e-05 5.84103e-05 2.15503e-05 
4 1 1.81975e-06 3.03e-05 7.83e-05 2.29e-05 
55 1 1.58533e-06 4.14888e-05 9.63891e-05 2.43179e-05 
12 1 1.80917e-06 6.2e-06 8.89e-05 2.53e-05 
22 1 1.55496e-06 4.13129e-05 9.62126e-05 2.58671e-05 
35 1 1.51293e-06 4.26e-05 9.4e-05 2.96e-05 
31 1 1.70337e-06 3.26e-05 7.94e-05 3.73e-05 
1 1 1.81975e-06 6.67e-06 9.53e-05 3.93e-05 
3 1 1.76685e-06 1.22e-05 5.73e-05 4.18e-05 
26 1 1.71395e-06 4.03e-05 9.67e-05 4.28e-05 
20 1 1.95729e-06 4.18e-05 8.2e-05 4.32e-05 
19 1 1.71395e-06 1.57e-05 8.92e-05 4.78e-05 
11 1 1.62931e-06 6.51e-05 2.88e-05 4.94e-06 
32 1 1.58696e-06 9.20908e-05 2.99906e-05 7.62067e-06 
56 1 1.55327e-06 9.30984e-05 3.08007e-05 8.50979e-06 
57 1 1.58533e-06 8.49888e-05 2.55891e-05 1.07179e-05 
36 1 1.55496e-06 8.48129e-05 2.54126e-05 1.22671e-05 
16 1 1.44945e-06 7.36e-05 3.31e-05 1.52e-05 
50 1 1.77743e-06 6.93e-05 3.47e-05 2.03e-05 
10 1 1.71395e-06 7.01e-05 3.85e-05 2.06e-05 
14 1 1.75627e-06 8.98e-05 4.37e-05 2.35e-05 
37 1 1.74569e-06 8.51e-05 2.8e-05 3.05e-05 
6 1 1.47061e-06 8.85e-05 8.85e-06 3.78e-05 
18 1 1.90439e-06 8.65e-05 1.09e-05 4.03e-05 
43 1 1.94671e-06 6.57e-05 3.34e-05 4.1e-05 
8 1 1.87265e-06 8.3e-05 9e-05 4.97e-06 
17 1 1.74569e-06 8.7e-05 9.31e-05 5.13e-06 
33 1 1.65047e-06 7.44e-05 9.11e-05 5.86e-06 
44 1 1.84091e-06 9.19e-05 7.1e-05 3.01e-05 
15 1 1.70337e-06 7.79e-05 5.69e-05 3.2e-05 
42 1 1.81975e-06 8.68e-05 5.02e-05 3.47e-05 
40 1 1.93613e-06 5.67e-05 7.55e-05 3.65e-05 
41 1 1.59545e-06 6.03909e-05 5.97908e-05 4.53508e-05 
54 1 1.56157e-06 6.13983e-05 6.06005e-05 4.62397e-05 
ITEM: TIMESTEP
1100
ITEM: NUMBER OF ATOMS
57
ITEM: BOX BOUNDS ff ff ff
0.0000000000000000e+00 1.0000000000000000e-04
0.0000000000000000e+00 1.0000000000000000e-04
0.0000000000000000e+00 5.0000000000000002e-05
ITEM: ATOMS id type diameter x y z 
21 1 1.8726e-06 1.12e-05 4.06e-05 4.2e-06 
25 1 1.62788e-06 1.02e-05 4.1e-05 6.22e-06 
49 1 1.6066e-06 1.57e-05 4.87e-05 1.08e-05 
29 1 1.64714e-06 1.27791e-05 8.81123e-06 1.38403e-05 
51 1 1.61217e-06 1.38101e-05 9.6401e-06 1.47501e-05 
2 1 1.83004e-06 1.99e-05 5.64e-06 1.69e-05 
46 1 1.78748e-06 4.32e-06 2.9e-05 2.04e-05 
23 1 1.73428e-06 1.09e-05 4.09e-05 3.07e-05 
5 1 1.64916e-06 8.43e-06 1e-05 3.41e-05 
28 1 1.60447e-06 3.06909e-05 3.59908e-05 3.81508e-05 
53 1 1.5704e-06 3.16983e-05 3.68005e-05 3.90397e-05 
9 1 1.88324e-06 2.54e-05 1.73e-05 4.24e-05 
48 1 1.63852e-06 1.27e-05 4.84e-05 4.36e-05 
7 1 1.83004e-06 2.38e-06 2.18e-06 4.51e-05 
47 1 1.88324e-06 4.69e-05 2.15e-05 4.51e-05 
27 1 1.69172e-06 3.35e-05 3.25e-05 4.69e-05 
13 1 1.91515e-06 3.26e-05 1.19e-05 4.77e-05 
39 1 1.47892e-06 3e-05 5.53e-05 1.54e-06 
45 1 1.57468e-06 3.9e-05 9.01e-05 4.08e-06 
34 1 1.63852e-06 1.28e-05 6.23e-05 5.14e-06 
38 1 1.64916e-06 3.58e-05 5.28e-05 1.15e-05 
30 1 1.54276e-06 1.42e-05 6.43e-05 1.63e-05 
24 1 1.63861e-06 1.78788e-05 5.75811e-05 2.06401e-05 
52 1 1.60381e-06 1.89104e-05 5.84103e-05 2.15503e-05 
4 1 1.83004e-06 3.03e-05 7.83e-05 2.29e-05 
55 1 1.5943e-06 4.14888e-05 9.63891e-05 2.43179e-05 
12 1 1.8194e-06 6.2e-06 8.89e-05 2.53e-05 
22 1 1.56375e-06 4.13129e-05 9.62126e-05 2.58671e-05 
35 1 1.52148e-06 4.26e-05 9.4e-05 2.96e-05 
31 1 1.713e-06 3.26e-05 7.94e-05 3.73e-05 
1 1 1.83004e-06 6.67e-06 9.53e-05 3.93e-05 
3 1 1.77684e-06 1.22e-05 5.73e-05 4.18e-05 
26 1 1.72364e-06 4.03e-05 9.67e-05 4.28e-05 
20 1 1.96835e-06 4.18e-05 8.2e-05 4.32e-05 