LAMMPS (20 Nov 2019)
Reading data file ...
  orthogonal box = (0 0 0) to (0.001 0.001 0.0001)
  2 by 3 by 1 MPI processor grid
  reading atoms ...
  2 atoms
  4 nutrients
Lattice spacing in x,y,z = 100 100 100
1 atoms in group CYANO
1 atoms in group ECW
Model is defined as a closed system. 
Neighbor list info ...
  update every 1 steps, delay 0 steps, check yes
  max neighbors/atom: 5000, page size: 100000
  master list distance cutoff = 1.89e-06
  ghost atom cutoff = 1.89e-06
  binsize = 9.45e-07, bins = 1059 1059 106
  1 neighbor lists, perpetual/occasional/extra = 1 0 0
  (1) pair gran/hooke/history, perpetual
      attributes: half, newton off, size, history
      pair build: half/size/bin/newtoff
      stencil: half/bin/3d/newtoff
      bin: standard
Setting up Verlet run ...
  Unit style    : lj
  Current step  : 0
  Time step     : 10
Per MPI rank memory allocation (min/avg/max) = 84.25 | 92.35 | 108.5 Mbytes
Step CPU Atoms c_myNtypes[1] c_myNtypes[2] c_myMass[1] c_myMass[2] c_myCon[1] c_myCon[2] c_myCon[3] c_myCon[4] 
       0            0        2            1            1 5.2028912e-16 1.3941014e-16          0.1        0.009     3.42e-20       0.0299 
number of iterations: 578269 
     100    4.4211158        3            1            2 5.2951265e-16 1.3941014e-16          0.1 0.0090000003 1.0548492e-08       0.0299 
number of iterations: 265410 
     200    6.1736579        3            1            2 5.3889968e-16 1.3941014e-16          0.1 0.0090000003 4.3551619e-08  0.029899999 
number of iterations: 172209 
     300    7.4153918        3            1            2 5.4845312e-16 1.3941014e-16          0.1 0.0090000004 9.5123084e-08  0.029899999 
number of iterations: 147149 
     400    8.3930884        3            1            2 5.5817593e-16 1.3941014e-16          0.1 0.0090000004 1.546173e-07  0.029899999 
number of iterations: 128164 
     500    9.2571904        3            1            2 5.680711e-16 1.3941014e-16          0.1 0.0090000004 2.2139946e-07  0.029899999 
number of iterations: 113186 
     600    10.026339        3            1            2 5.7814168e-16 1.3941014e-16          0.1 0.0090000004 2.9496181e-07  0.029899999 
number of iterations: 100985 
     700    10.720342        3            1            2 5.883908e-16 1.3941014e-16          0.1 0.0090000004 3.7490342e-07  0.029899999 
number of iterations: 90798 
     800    11.398649        3            1            2 5.9882161e-16 1.3941014e-16          0.1 0.0090000004 4.6090446e-07  0.029899999 
number of iterations: 82118 
     900    12.028034        3            1            2 6.0943733e-16 1.3941014e-16          0.1 0.0090000004 5.5271111e-07  0.029899999 
number of iterations: 74603 
    1000    12.924204        3            1            2 6.2024124e-16 1.3941014e-16          0.1 0.0090000004 6.5011905e-07  0.029899999 
number of iterations: 68009 
    1100    13.396694        3            1            2 6.3123668e-16 1.3941014e-16          0.1 0.0090000004 7.5296405e-07  0.029899999 
number of iterations: 62158 
    1200    13.840603        3            1            2 6.4242705e-16 1.3941015e-16          0.1 0.0090000004 8.6111421e-07  0.029899999 
number of iterations: 56918 
    1300    14.268739        3            1            2 6.538158e-16 1.3941015e-16          0.1 0.0090000004 9.7446321e-07  0.029899999 
number of iterations: 52185 
    1400    14.670615        3            1            2 6.6540644e-16 1.3941015e-16          0.1 0.0090000005 1.0929278e-06  0.029899999 
number of iterations: 47884 
    1500    15.043548        3            1            2 6.7720255e-16 1.3941015e-16          0.1 0.0090000005  1.21644e-06  0.029899999 
number of iterations: 43949 
    1600    15.400045        3            1            2 6.8920779e-16 1.3941016e-16          0.1 0.0090000005 1.3449493e-06  0.029899999 
number of iterations: 40331 
    1700    15.731751        3            1            2 7.0142585e-16 1.3941016e-16          0.1 0.0090000005 1.4784169e-06  0.029899999 
number of iterations: 36989 
    1800    16.057103        3            1            2 7.1386051e-16 1.3941016e-16          0.1 0.0090000005 1.6168155e-06  0.029899999 
number of iterations: 33889 
    1900    16.385259        3            1            2 7.265156e-16 1.3941017e-16          0.1 0.0090000005 1.7601273e-06  0.029899999 
number of iterations: 31002 
    2000     17.07389        3            1            2 7.3939504e-16 1.3941017e-16          0.1 0.0090000005 1.9083439e-06  0.029899999 
number of iterations: 28306 
    2100    17.321937        3            1            2 7.5250281e-16 1.3941017e-16          0.1 0.0090000005 2.0614631e-06  0.029899999 
number of iterations: 25779 
    2200     17.55316        3            1            2 7.6584294e-16 1.3941018e-16          0.1 0.0090000005 2.2194911e-06  0.029899999 
number of iterations: 23405 
    2300    17.766466        3            1            2 7.7941956e-16 1.3941018e-16          0.1 0.0090000005 2.3824391e-06  0.029899999 
number of iterations: 21170 
    2400    17.977246        3            1            2 7.9323687e-16 1.3941019e-16          0.1 0.0090000005 2.5503233e-06  0.029899999 
number of iterations: 19059 
    2500    18.156752        3            1            2 8.0729912e-16 1.394102e-16          0.1 0.0090000006 2.723167e-06  0.029899999 
number of iterations: 17062 
    2600    18.331253        3            1            2 8.2161067e-16 1.394102e-16          0.1 0.0090000006 2.900997e-06  0.029899999 
number of iterations: 15170 
    2700    18.495318        3            1            2 8.3617592e-16 1.3941021e-16          0.1 0.0090000006 3.0838438e-06  0.029899999 
number of iterations: 13373 
    2800    18.648089        3            1            2 8.5099939e-16 1.3941022e-16          0.1 0.0090000006 3.2717433e-06  0.029899999 
number of iterations: 11664 
    2900    18.784452        3            1            2 8.6608564e-16 1.3941022e-16          0.1 0.0090000006 3.4647346e-06  0.029899999 
number of iterations: 10037 
    3000    19.274368        3            1            2 8.8143933e-16 1.3941023e-16          0.1 0.0090000006 3.6628594e-06  0.029899999 
number of iterations: 8485 
    3100    19.392669        3            1            2 8.9706521e-16 1.3941024e-16          0.1 0.0090000006 3.866164e-06  0.029899999 
number of iterations: 7002 
    3200     19.50305        3            1            2 9.1296811e-16 1.3941025e-16          0.1 0.0090000006 4.0746985e-06  0.029899999 
number of iterations: 5584 
    3300    19.608092        3            1            2 9.2915292e-16 1.3941026e-16          0.1 0.0090000006 4.2885152e-06  0.029899999 
number of iterations: 5264 
    3400    19.710823        3            1            2 9.4562465e-16 1.3941027e-16          0.1 0.0090000007 4.5076689e-06  0.029899999 
number of iterations: 5332 
    3500    19.804004        3            1            2 9.6238839e-16 1.3941028e-16          0.1 0.0090000007 4.7322172e-06  0.029899999 
number of iterations: 5402 
    3600    19.892983        3            1            2 9.7944931e-16 1.3941029e-16          0.1 0.0090000007 4.9622209e-06  0.029899999 
number of iterations: 5471 
    3700    19.978593        3            1            2 9.9681268e-16 1.394103e-16          0.1 0.0090000007 5.1977457e-06  0.029899999 
number of iterations: 5542 
    3800    20.062861        3            1            2 1.0144839e-15 1.3941031e-16          0.1 0.0090000007 5.4380316e-06  0.029899999 
number of iterations: 5613 
    3900    20.145095        3            1            2 1.0324683e-15 1.3941033e-16          0.1 0.0090000007 5.6825773e-06  0.029899999 
number of iterations: 5685 
    4000    20.586387        3            1            2 1.0507716e-15 1.3941034e-16          0.1 0.0090000007 5.9314581e-06  0.029899999 
number of iterations: 5757 
    4100    20.676134        3            1            2 1.0693993e-15 1.3941035e-16          0.1 0.0090000007 6.184751e-06  0.029899999 
number of iterations: 5831 
    4200    20.762357        3            1            2 1.0883573e-15 1.3941037e-16          0.1 0.0090000008 6.4425342e-06  0.029899999 
number of iterations: 5904 
    4300    20.847807        3            1            2 1.1076514e-15 1.3941038e-16          0.1 0.0090000008 6.7048873e-06  0.029899999 
number of iterations: 5979 
    4400    20.939349        3            1            2 1.1272875e-15 1.394104e-16          0.1 0.0090000008 6.9718913e-06  0.029899999 
number of iterations: 6054 
    4500    21.040876        3            1            2 1.1472717e-15 1.3941042e-16          0.1 0.0090000008 7.2436286e-06  0.029899999 
number of iterations: 6129 
    4600    21.150977        3            1            2 1.1676101e-15 1.3941043e-16          0.1 0.0090000008 7.5201832e-06  0.029899999 
number of iterations: 6206 
    4700    21.243442        3            1            2 1.1883092e-15 1.3941045e-16          0.1 0.0090000008 7.8016405e-06  0.029899999 
number of iterations: 6283 
    4800    21.340374        3            1            2 1.2093751e-15 1.3941047e-16          0.1 0.0090000008 8.0880874e-06  0.029899999 
number of iterations: 6360 
    4900    21.438059        3            1            2 1.2308146e-15 1.3941049e-16          0.1 0.0090000009 8.3796122e-06  0.029899999 
number of iterations: 6439 
    5000    21.919363        3            1            2 1.2526341e-15 1.3941051e-16          0.1 0.0090000009 8.6763052e-06  0.029899999 
number of iterations: 6518 
    5100    22.017674        3            1            2 1.2748404e-15 1.3941053e-16          0.1 0.0090000009 8.9782578e-06  0.029899999 
number of iterations: 6597 
    5200     22.10908        3            1            2 1.2974403e-15 1.3941055e-16          0.1 0.0090000009 9.2855633e-06  0.029899999 
number of iterations: 6678 
    5300    22.200582        3            1            2 1.3204409e-15 1.3941057e-16          0.1 0.0090000009 9.5983167e-06  0.029899999 
number of iterations: 6758 
    5400    22.294465        3            1            2 1.3438493e-15 1.3941059e-16          0.1 0.0090000009 9.9166144e-06  0.029899998 
number of iterations: 6840 
    5500    22.384514        3            1            2 1.3676726e-15 1.3941062e-16          0.1  0.009000001 1.0240555e-05  0.029899998 
number of iterations: 6922 
    5600    22.479808        3            1            2 1.3919183e-15 1.3941064e-16          0.1  0.009000001 1.0570238e-05  0.029899998 
number of iterations: 7005 
    5700     22.57407        3            1            2 1.4165938e-15 1.3941066e-16          0.1  0.009000001 1.0905765e-05  0.029899998 
number of iterations: 7089 
    5800    22.672016        3            1            2 1.4417067e-15 1.3941069e-16          0.1  0.009000001 1.1247243e-05  0.029899998 
number of iterations: 7173 
    5900    22.767319        3            1            2 1.4672649e-15 1.3941072e-16          0.1  0.009000001 1.1594774e-05  0.029899998 
number of iterations: 23898 
    6000    23.409581        4            2            2 1.4932761e-15 1.3941074e-16          0.1  0.009000001 1.1948465e-05  0.029899998 
number of iterations: 3882 
    6100    23.475683        4            2            2 1.5197484e-15 1.3941077e-16          0.1  0.009000001 1.2308426e-05  0.029899998 
number of iterations: 4325 
    6200    23.545195        4            2            2  1.54669e-15 1.394108e-16          0.1  0.009000001 1.2674769e-05  0.029899998 
number of iterations: 4629 
    6300    23.621122        4            2            2 1.5741093e-15 1.3941083e-16          0.1  0.009000001 1.3047606e-05  0.029899998 
number of iterations: 4849 
    6400    23.698348        4            2            2 1.6020146e-15 1.3941086e-16          0.1  0.009000001 1.3427052e-05  0.029899998 
number of iterations: 5480 
    6500    23.776777        4            2            2 1.6304146e-15 1.3941089e-16          0.1 0.0090000011 1.3813226e-05  0.029899998 
number of iterations: 5790 
    6600    23.857299        4            2            2 1.6593181e-15 1.3941092e-16          0.1 0.0090000011 1.4206245e-05  0.029899998 
number of iterations: 5892 
    6700     23.94026        4            2            2 1.6887339e-15 1.3941096e-16          0.1 0.0090000011 1.4606231e-05  0.029899998 
number of iterations: 5984 
    6800    24.023305        4            2            2 1.7186713e-15 1.3941099e-16          0.1 0.0090000011 1.5013308e-05  0.029899998 
number of iterations: 6071 
    6900    24.112898        4            2            2 1.7491393e-15 1.3941103e-16          0.1 0.0090000011 1.5427602e-05  0.029899998 
number of iterations: 6155 
    7000    24.566793        4            2            2 1.7801475e-15 1.3941106e-16          0.1 0.0090000012 1.584924e-05  0.029899998 
number of iterations: 6239 
    7100    24.666933        4            2            2 1.8117054e-15 1.394111e-16          0.1 0.0090000012 1.6278353e-05  0.029899998 
number of iterations: 6321 
    7200     24.77057        4            2            2 1.8438228e-15 1.3941114e-16          0.1 0.0090000012 1.6715073e-05  0.029899998 
number of iterations: 6403 
    7300    24.862778        4            2            2 1.8765095e-15 1.3941118e-16          0.1 0.0090000012 1.7159535e-05  0.029899998 
number of iterations: 6486 
    7400    24.957799        4            2            2 1.9097757e-15 1.3941122e-16          0.1 0.0090000012 1.7611877e-05  0.029899998 
number of iterations: 6569 
    7500    25.055123        4            2            2 1.9436316e-15 1.3941126e-16          0.1 0.0090000013 1.8072237e-05  0.029899998 
number of iterations: 6653 
    7600    25.157844        4            2            2 1.9780877e-15 1.394113e-16          0.1 0.0090000013 1.8540759e-05  0.029899998 
number of iterations: 6737 
    7700     25.25489        4            2            2 2.0131546e-15 1.3941134e-16          0.1 0.0090000013 1.9017586e-05  0.029899998 
number of iterations: 6822 
    7800    25.353342        4            2            2 2.0488432e-15 1.3941139e-16          0.1 0.0090000013 1.9502866e-05  0.029899998 
number of iterations: 6908 
    7900    25.449496        4            2            2 2.0851644e-15 1.3941143e-16          0.1 0.0090000014 1.9996749e-05  0.029899998 
number of iterations: 6995 
    8000    25.935111        4            2            2 2.1221295e-15 1.3941148e-16          0.1 0.0090000014 2.0499388e-05  0.029899998 
number of iterations: 7082 
    8100     26.03571        4            2            2  2.15975e-15 1.3941153e-16          0.1 0.0090000014 2.1010937e-05  0.029899998 
number of iterations: 7169 
    8200    26.138891        4            2            2 2.1980374e-15 1.3941158e-16          0.1 0.0090000014 2.1531555e-05  0.029899998 
number of iterations: 7258 
    8300    26.242482        4            2            2 2.2370035e-15 1.3941163e-16          0.1 0.0090000015 2.2061402e-05  0.029899998 
number of iterations: 7348 
    8400    26.351453        4            2            2 2.2766604e-15 1.3941168e-16          0.1 0.0090000015 2.2600642e-05  0.029899998 
number of iterations: 7438 
    8500     26.47124        4            2            2 2.3170203e-15 1.3941173e-16          0.1 0.0090000015 2.3149441e-05  0.029899998 
number of iterations: 7528 
    8600    26.593311        4            2            2 2.3580957e-15 1.3941179e-16          0.1 0.0090000015 2.370797e-05  0.029899997 
number of iterations: 7620 
    8700     26.71704        4            2            2 2.3998993e-15 1.3941184e-16          0.1 0.0090000016  2.42764e-05  0.029899997 
number of iterations: 7713 
    8800    26.828473        4            2            2 2.442444e-15 1.394119e-16          0.1 0.0090000016 2.4854907e-05  0.029899997 
number of iterations: 7805 
    8900    26.946446        4            2            2 2.4857428e-15 1.3941196e-16          0.1 0.0090000016 2.5443669e-05  0.029899997 
number of iterations: 7899 
    9000    27.426251        4            2            2 2.5298093e-15 1.3941202e-16          0.1 0.0090000017 2.6042869e-05  0.029899997 
number of iterations: 7994 
    9100    27.531627        4            2            2 2.574657e-15 1.3941208e-16          0.1 0.0090000017 2.6652691e-05  0.029899997 
number of iterations: 8089 
    9200    27.638196        4            2            2 2.6202997e-15 1.3941214e-16          0.1 0.0090000017 2.7273324e-05  0.029899997 
number of iterations: 8185 
    9300    27.742264        4            2            2 2.6667515e-15 1.394122e-16          0.1 0.0090000018 2.7904959e-05  0.029899997 
number of iterations: 8282 
    9400    27.847464        4            2            2 2.7140269e-15 1.3941227e-16          0.1 0.0090000018 2.8547792e-05  0.029899997 
number of iterations: 24889 
    9500    28.157739        5            3            2 2.7621403e-15 1.3941234e-16          0.1 0.0090000018 2.920202e-05  0.029899997 
number of iterations: 8326 
    9600    28.303335        5            3            2 2.8111066e-15 1.394124e-16          0.1 0.0090000018 2.9867845e-05  0.029899997 
number of iterations: 8860 
    9700    28.418329        5            3            2 2.8609411e-15 1.3941247e-16          0.1 0.0090000018 3.0545475e-05  0.029899997 
number of iterations: 9153 
    9800    28.540034        5            3            2 2.9116589e-15 1.3941255e-16          0.1 0.0090000018 3.1235117e-05  0.029899997 
number of iterations: 9337 
    9900    28.665773        5            3            2 2.9632759e-15 1.3941262e-16          0.1 0.0090000019 3.1936984e-05  0.029899997 
number of iterations: 9475 
   10000     29.13188        5            3            2 3.0158079e-15 1.3941269e-16          0.1 0.0090000019 3.2651295e-05  0.029899997 
number of iterations: 9592 
   10100    29.254049        5            3            2 3.0692712e-15 1.3941277e-16          0.1 0.0090000019 3.3378268e-05  0.029899997 
number of iterations: 9702 
   10200    29.375607        5            3            2 3.1236823e-15 1.3941285e-16          0.1  0.009000002 3.4118129e-05  0.029899997 
number of iterations: 9808 
   10300    29.496024        5            3            2 3.179058e-15 1.3941293e-16          0.1  0.009000002 3.4871106e-05  0.029899997 
number of iterations: 9913 
   10400    29.622626        5            3            2 3.2354153e-15 1.3941301e-16          0.1 0.0090000021 3.5637431e-05  0.029899997 
number of iterations: 26631 
   10500    29.937576        6            4            2 3.2927717e-15 1.3941309e-16          0.1 0.0090000022 3.6417342e-05  0.029899996 
number of iterations: 8688 
   10600    30.047738        6            4            2 3.3511449e-15 1.3941318e-16          0.1 0.0090000022 3.721108e-05  0.029899996 
number of iterations: 9132 
   10700    30.165942        6            4            2 3.410553e-15 1.3941326e-16          0.1 0.0090000022 3.8018888e-05  0.029899996 
number of iterations: 9339 
   10800    30.284813        6            4            2 3.4710142e-15 1.3941335e-16          0.1 0.0090000023 3.8841018e-05  0.029899996 
number of iterations: 9475 
   10900    30.407618        6            4            2 3.5325473e-15 1.3941344e-16          0.1 0.0090000023 3.9677721e-05  0.029899996 
number of iterations: 9590 
   11000    30.904713        6            4            2 3.5951711e-15 1.3941354e-16          0.1 0.0090000024 4.0529257e-05  0.029899996 
number of iterations: 9701 
   11100    31.047447        6            4            2 3.6589052e-15 1.3941363e-16          0.1 0.0090000024 4.139589e-05  0.029899996 
number of iterations: 9810 
   11200    31.189218        6            4            2 3.7237691e-15 1.3941373e-16          0.1 0.0090000024 4.2277885e-05  0.029899996 
number of iterations: 9920 
   11300    31.321365        6            4            2 3.7897829e-15 1.3941383e-16          0.1 0.0090000025 4.3175516e-05  0.029899996 
number of iterations: 10030 
   11400    31.456588        6            4            2 3.856967e-15 1.3941393e-16          0.1 0.0090000025 4.4089061e-05  0.029899996 
number of iterations: 10140 
   11500    31.592102        6            4            2 3.9253421e-15 1.3941403e-16          0.1 0.0090000026  4.50188e-05  0.029899996 
number of iterations: 10252 
   11600    31.747632        6            4            2 3.9949294e-15 1.3941414e-16          0.1 0.0090000026 4.5965021e-05  0.029899996 
number of iterations: 10364 
   11700    31.888683        6            4            2 4.0657502e-15 1.3941424e-16          0.1 0.0090000027 4.6928017e-05  0.029899996 
number of iterations: 10477 
   11800    32.029023        6            4            2 4.1378266e-15 1.3941435e-16          0.1 0.0090000027 4.7908084e-05  0.029899996 
number of iterations: 10590 
   11900     32.17273        6            4            2 4.2111807e-15 1.3941447e-16          0.1 0.0090000028 4.8905525e-05  0.029899995 
number of iterations: 10705 
   12000    32.716075        6            4            2 4.2858351e-15 1.3941458e-16          0.1 0.0090000028 4.9920649e-05  0.029899995 
number of iterations: 10820 
   12100    32.855712        6            4            2 4.3618131e-15 1.394147e-16          0.1 0.0090000029 5.0953769e-05  0.029899995 
number of iterations: 10935 
   12200    32.992687        6            4            2 4.4391379e-15 1.3941482e-16          0.1 0.0090000029 5.2005204e-05  0.029899995 
number of iterations: 11052 
   12300    33.136105        6            4            2 4.5178336e-15 1.3941494e-16          0.1  0.009000003 5.3075278e-05  0.029899995 
number of iterations: 11169 
   12400    33.274728        6            4            2 4.5979243e-15 1.3941506e-16          0.1  0.009000003 5.4164322e-05  0.029899995 
number of iterations: 11287 
   12500      33.4126        6            4            2 4.6794349e-15 1.3941519e-16          0.1 0.0090000031 5.5272672e-05  0.029899995 
number of iterations: 11405 
   12600    33.562457        6            4            2 4.7623904e-15 1.3941532e-16          0.1 0.0090000031 5.640067e-05  0.029899995 
number of iterations: 11524 
   12700    33.711433        6            4            2 4.8468166e-15 1.3941545e-16          0.1 0.0090000032 5.7548666e-05  0.029899995 
number of iterations: 11644 
   12800    33.851001        6            4            2 4.9327394e-15 1.3941558e-16          0.1 0.0090000032 5.8717013e-05  0.029899995 
number of iterations: 11765 
   12900    33.991933        6            4            2 5.0201855e-15 1.3941572e-16          0.1 0.0090000033 5.9906071e-05  0.029899995 
number of iterations: 11886 
   13000    34.511833        6            4            2 5.1091818e-15 1.3941586e-16          0.1 0.0090000034 6.1116209e-05  0.029899994 
number of iterations: 12008 
   13100     34.66563        6            4            2 5.1997557e-15  1.39416e-16          0.1 0.0090000034  6.23478e-05  0.029899994 
number of iterations: 36806 
   13200    35.091829        7            5            2 5.2919354e-15 1.3941618e-16          0.1 0.0090000035 6.3601225e-05  0.029899994 
number of iterations: 6741 
   13300    35.188372        7            5            2 5.3857491e-15 1.3941636e-16          0.1 0.0090000036 6.4876869e-05  0.029899994 
number of iterations: 10458 
   13400    35.304271        7            5            2 5.481226e-15 1.3941654e-16          0.1 0.0090000036 6.6175128e-05  0.029899994 
number of iterations: 11191 
   13500    35.437894        7            5            2 5.5783955e-15 1.3941672e-16          0.1 0.0090000037 6.7496402e-05  0.029899994 
number of iterations: 27891 
   13600    35.760242        8            6            2 5.6772875e-15 1.3941691e-16          0.1 0.0090000038  6.88411e-05  0.029899994 
number of iterations: 10996 
   13700    35.892692        8            6            2 5.7779327e-15 1.394171e-16          0.1 0.0090000039 7.0209636e-05  0.029899994 
number of iterations: 11420 
   13800    36.044246        8            6            2 5.8803621e-15 1.394173e-16          0.1  0.009000004 7.1602434e-05  0.029899993 
number of iterations: 11607 
   13900    36.211922        8            6            2 5.9846073e-15 1.3941749e-16          0.1  0.009000004 7.3019922e-05  0.029899993 
number of iterations: 11742 
   14000    36.796353        8            6            2 6.0907005e-15 1.394177e-16          0.1 0.0090000041 7.4462539e-05  0.029899993 
number of iterations: 11865 
   14100    36.949938        9            7            2 6.1986745e-15 1.394179e-16          0.1 0.0090000042 7.5930731e-05  0.029899993 
number of iterations: 11987 
   14200    37.098376        9            7            2 6.3085627e-15 1.3941812e-16          0.1 0.0090000043 7.742495e-05  0.029899993 
number of iterations: 12109 
   14300    37.245457        9            7            2 6.4203989e-15 1.3941833e-16          0.1 0.0090000043 7.8945658e-05  0.029899993 
number of iterations: 12231 
   14400     37.39274        9            7            2 6.5342177e-15 1.3941855e-16          0.1 0.0090000044 8.0493325e-05  0.029899993 
number of iterations: 12354 
   14500    37.545344        9            7            2 6.6500543e-15 1.3941877e-16          0.1 0.0090000045 8.2068428e-05  0.029899993 
number of iterations: 12477 
   14600    37.698202        9            7            2 6.7679444e-15  1.39419e-16          0.1 0.0090000046 8.3671454e-05  0.029899993 
number of iterations: 12601 
   14700     37.85263        9            7            2 6.8879244e-15 1.3941923e-16          0.1 0.0090000046 8.5302898e-05  0.029899992 
number of iterations: 34796 
   14800    38.230164       10            8            2 7.0100313e-15 1.3941945e-16          0.1 0.0090000048 8.6963264e-05  0.029899992 
number of iterations: 14516 
   14900    38.424457       10            8            2 7.134303e-15 1.3941967e-16          0.1 0.0090000048 8.8653064e-05  0.029899992 
number of iterations: 14448 
   15000    38.962478       10            8            2 7.2607776e-15 1.394199e-16          0.1 0.0090000049 9.0372821e-05  0.029899992 
number of iterations: 14527 
   15100    39.131162       10            8            2 7.3894944e-15 1.3942012e-16          0.1  0.009000005 9.2123065e-05  0.029899992 
number of iterations: 14643 
   15200    39.305583       10            8            2 7.5204931e-15 1.3942036e-16          0.1 0.0090000051 9.3904336e-05  0.029899992 
number of iterations: 14771 
   15300    39.477326       10            8            2 7.653814e-15 1.394206e-16          0.1 0.0090000052 9.5717186e-05  0.029899991 
number of iterations: 36719 
   15400    39.881719       10            8            2 7.7894984e-15 1.3942087e-16          0.1 0.0090000053 9.7562173e-05  0.029899991 
number of iterations: 9101 
   15500    40.006491       10            8            2 7.9275882e-15 1.3942114e-16          0.1 0.0090000054 9.9439867e-05  0.029899991 
number of iterations: 12300 
   15600    40.156447       10            8            2 8.068126e-15 1.3942142e-16          0.1 0.0090000054 0.00010135085  0.029899991 
number of iterations: 13371 
   15700     40.32112       10            8            2 8.2111552e-15 1.3942171e-16          0.1 0.0090000055 0.00010329571  0.029899991 
number of iterations: 13615 
   15800    40.476528       10            8            2  8.35672e-15  1.39422e-16          0.1 0.0090000056 0.00010527504  0.029899991 
number of iterations: 13780 
   15900    40.638093       10            8            2 8.5048653e-15 1.3942229e-16          0.1 0.0090000057 0.00010728947  0.029899991 
number of iterations: 13922 
   16000    41.178241       10            8            2 8.6556369e-15 1.394226e-16          0.1 0.0090000058 0.00010933961   0.02989999 
number of iterations: 14057 
   16100    41.365312       10            8            2 8.8090813e-15 1.394229e-16          0.1  0.009000006 0.00011142609   0.02989999 
number of iterations: 14191 
   16200    41.559738       10            8            2 8.9652459e-15 1.3942322e-16          0.1 0.0090000061 0.00011354956   0.02989999 
number of iterations: 14324 
   16300    41.754347       10            8            2 9.124179e-15 1.3942354e-16          0.1 0.0090000062 0.00011571067   0.02989999 
number of iterations: 14458 
   16400    41.935108       11            9            2 9.2859296e-15 1.3942386e-16          0.1 0.0090000063 0.0001179101   0.02989999 
number of iterations: 28057 
   16500    42.253582       11            9            2 9.4505476e-15 1.3942419e-16          0.1 0.0090000063 0.00012014851  0.029899989 
number of iterations: 14026 
   16600     42.41467       11            9            2 9.6180839e-15 1.3942453e-16          0.1 0.0090000064 0.00012242661  0.029899989 
number of iterations: 14787 
   16700     42.58965       11            9            2 9.7885903e-15 1.3942488e-16          0.1 0.0090000065 0.00012474509  0.029899989 
number of iterations: 15074 
   16800    42.774262       11            9            2 9.9621194e-15 1.3942523e-16          0.1 0.0090000066 0.00012710467  0.029899989 
number of iterations: 15245 
   16900    42.944187       11            9            2 1.0138725e-14 1.3942558e-16          0.1 0.0090000067 0.00012950608  0.029899989 
number of iterations: 15388 
   17000    43.481208       11            9            2 1.0318461e-14 1.3942595e-16          0.1 0.0090000069 0.00013195007  0.029899989 
number of iterations: 15522 
   17100     43.66011       11            9            2 1.0501383e-14 1.3942632e-16          0.1  0.009000007 0.00013443738  0.029899988 
number of iterations: 15655 
   17200     43.83998       12           10            2 1.0687548e-14 1.394267e-16          0.1 0.0090000071 0.00013696878  0.029899988 
number of iterations: 15787 
   17300    44.023795       12           10            2 1.0877014e-14 1.3942708e-16          0.1 0.0090000072 0.00013954507  0.029899988 
number of iterations: 15919 
   17400    44.210289       12           10            2 1.1069838e-14 1.3942747e-16          0.1 0.0090000074 0.00014216702  0.029899988 
number of iterations: 16052 
   17500    44.396445       12           10            2 1.1266081e-14 1.3942787e-16          0.1 0.0090000075 0.00014483545  0.029899988 
number of iterations: 28884 
   17600    44.733793       13           11            2 1.1465802e-14 1.3942828e-16          0.1 0.0090000077 0.00014755119  0.029899987 
number of iterations: 15448 
   17700    44.913027       13           11            2 1.1669065e-14 1.3942869e-16          0.1 0.0090000078 0.00015031507  0.029899987 
number of iterations: 15906 
   17800    45.093844       13           11            2 1.187593e-14 1.3942911e-16          0.1  0.009000008 0.00015312796  0.029899987 
number of iterations: 36072 
   17900    45.500184       14           12            2 1.2086463e-14 1.3942952e-16          0.1 0.0090000082 0.0001559907  0.029899986 
number of iterations: 34388 
   18000    46.311835       15           13            2 1.2300728e-14 1.3942996e-16          0.1 0.0090000083 0.0001589042  0.029899986 
number of iterations: 13092 
   18100    46.509201       15           13            2 1.2518791e-14 1.3943041e-16          0.1 0.0090000084 0.00016186934  0.029899986 
number of iterations: 16221 
   18200     46.71665       15           13            2 1.274072e-14 1.3943086e-16          0.1 0.0090000086 0.00016488706  0.029899986 
number of iterations: 28493 
   18300    47.032979       16           14            2 1.2966584e-14 1.3943132e-16          0.1 0.0090000088 0.00016795826  0.029899985 
number of iterations: 17034 
   18400    47.218362       16           14            2 1.3196451e-14 1.3943179e-16          0.1  0.009000009 0.00017108392  0.029899985 
number of iterations: 17428 
   18500    47.416589       16           14            2 1.3430394e-14 1.3943227e-16          0.1 0.0090000091 0.00017426498  0.029899985 
number of iterations: 17600 
   18600     47.61911       17           15            2 1.3668484e-14 1.3943276e-16          0.1 0.0090000093 0.00017750244  0.029899985 
number of iterations: 34857 
   18700    48.025264       17           15            2 1.3910794e-14 1.3943328e-16          0.1 0.0090000096 0.00018079729  0.029899984 
number of iterations: 14491 
   18800    48.188246       17           15            2 1.4157401e-14 1.3943381e-16          0.1 0.0090000097 0.00018415055  0.029899984 
number of iterations: 26022 
   18900    48.478034       17           15            2 1.4408379e-14 1.3943435e-16          0.1 0.0090000098 0.00018756326  0.029899984 
number of iterations: 16736 
   19000    49.032081       17           15            2 1.4663806e-14 1.394349e-16          0.1   0.00900001 0.00019103647  0.029899983 
number of iterations: 17893 
   19100    49.263696       17           15            2 1.4923761e-14 1.3943547e-16          0.1 0.0090000101 0.00019457124  0.029899983 
number of iterations: 18081 
   19200    49.486803       17           15            2 1.5188325e-14 1.3943604e-16          0.1 0.0090000103 0.00019816868  0.029899983 
number of iterations: 33162 
   19300    49.884284       18           16            2 1.5457579e-14 1.394366e-16          0.1 0.0090000105 0.0002018299  0.029899983 
number of iterations: 34998 
   19400     50.29766       18           16            2 1.5731606e-14 1.3943715e-16          0.1 0.0090000106 0.00020555602  0.029899982 
number of iterations: 33207 
   19500    50.714385       18           16            2 1.6010491e-14 1.3943773e-16          0.1 0.0090000108 0.00020934819  0.029899982 
number of iterations: 34703 
   19600    51.128867       18           16            2 1.629432e-14 1.394383e-16          0.1  0.009000011 0.00021320759  0.029899982 
number of iterations: 31269 
   19700    51.504013       19           17            2 1.658318e-14 1.3943889e-16          0.1 0.0090000112 0.00021713541  0.029899981 
number of iterations: 16505 
   19800    51.692326       19           17            2 1.6877162e-14 1.3943949e-16          0.1 0.0090000114 0.00022113286  0.029899981 
number of iterations: 19034 
   19900    51.913996       19           17            2 1.7176355e-14 1.3944011e-16          0.1 0.0090000116 0.00022520118  0.029899981 
number of iterations: 19410 
   20000    52.485643       19           17            2 1.7480852e-14 1.3944073e-16          0.1 0.0090000118 0.00022934162  0.029899981 
number of iterations: 19590 
   20100    52.704682       19           17            2 1.7790747e-14 1.3944137e-16          0.1  0.009000012 0.00023355545   0.02989998 
number of iterations: 19750 
   20200    52.923985       19           17            2 1.8106135e-14 1.3944201e-16          0.1 0.0090000122 0.00023784399   0.02989998 
number of iterations: 19906 
   20300    53.141235       19           17            2 1.8427115e-14 1.3944267e-16          0.1 0.0090000124 0.00024220856  0.029899979 
number of iterations: 20063 
   20400    53.357308       19           17            2 1.8753785e-14 1.3944335e-16          0.1 0.0090000126 0.0002466505  0.029899979 
number of iterations: 20219 
   20500    53.582483       19           17            2 1.9086247e-14 1.3944403e-16          0.1 0.0090000129 0.00025117118  0.029899979 
number of iterations: 20376 
   20600    53.814133       19           17            2 1.9424602e-14 1.3944473e-16          0.1 0.0090000131 0.00025577201  0.029899978 
number of iterations: 20533 
   20700    54.057654       19           17            2 1.9768955e-14 1.3944543e-16          0.1 0.0090000133 0.00026045439  0.029899978 
number of iterations: 20691 
   20800    54.296413       19           17            2 2.0119413e-14 1.3944616e-16          0.1 0.0090000136 0.00026521979  0.029899978 
number of iterations: 34596 
   20900    54.682111       20           18            2 2.0476083e-14 1.3944688e-16          0.1 0.0090000138 0.00027006966  0.029899977 
number of iterations: 21586 
   21000    55.265091       20           18            2 2.0839077e-14 1.3944762e-16          0.1  0.009000014 0.00027500551  0.029899977 
number of iterations: 29816 
   21100    55.603617       23           21            2 2.1208505e-14 1.3944838e-16          0.1 0.0090000142 0.00028002887  0.029899976 
number of iterations: 27574 
   21200    55.911058       24           22            2 2.1584483e-14 1.3944917e-16          0.1 0.0090000144 0.00028514127  0.029899976 
number of iterations: 30241 
   21300    56.302239       25           23            2 2.1967126e-14 1.3944997e-16          0.1 0.0090000147 0.0002903443  0.029899976 
number of iterations: 21707 
   21400    56.584608       25           23            2 2.2356552e-14 1.3945078e-16          0.1 0.0090000149 0.00029563958  0.029899975 
number of iterations: 22079 
   21500    56.886846       25           23            2 2.2752882e-14 1.3945162e-16          0.1 0.0090000152 0.00030102872  0.029899975 
number of iterations: 22255 
   21600    57.133161       25           23            2 2.3156238e-14 1.3945246e-16          0.1 0.0090000154 0.0003065134  0.029899974 
number of iterations: 22418 
   21700    57.370294       25           23            2 2.3566745e-14 1.3945332e-16          0.1 0.0090000157 0.00031209532  0.029899974 
number of iterations: 22580 
   21800    57.623831       26           24            2 2.3984529e-14 1.394542e-16          0.1  0.009000016 0.00031777618  0.029899973 
number of iterations: 22743 
   21900    57.905481       27           25            2 2.4409719e-14 1.3945509e-16          0.1 0.0090000163 0.00032355776  0.029899973 
number of iterations: 42171 
   22000    58.779645       27           25            2 2.4842446e-14 1.3945605e-16          0.1 0.0090000166 0.00032944183  0.029899972 
number of iterations: 18917 
   22100    58.978858       27           25            2 2.5282846e-14 1.3945703e-16          0.1 0.0090000169 0.00033543021  0.029899972 
number of iterations: 21936 
   22200    59.217376       28           26            2 2.5731052e-14 1.3945803e-16          0.1 0.0090000172 0.00034152475  0.029899972 
number of iterations: 37253 
   22300    59.637544       28           26            2 2.6187204e-14 1.3945909e-16          0.1 0.0090000175 0.00034772733  0.029899971 
number of iterations: 19578 
   22400    59.849691       28           26            2 2.6651442e-14 1.3946016e-16          0.1 0.0090000178 0.00035403988  0.029899971 
number of iterations: 22008 
   22500    60.089403       28           26            2 2.7123911e-14 1.3946126e-16          0.1 0.0090000181 0.00036046432   0.02989997 
number of iterations: 36653 
   22600     60.48767       29           27            2 2.7604755e-14 1.3946235e-16          0.1 0.0090000185 0.00036700266  0.029899969 
number of iterations: 33749 
   22700    60.875696       29           27            2 2.8094123e-14 1.3946344e-16          0.1 0.0090000188 0.00037365691  0.029899969 
number of iterations: 33278 
   22800    61.299927       31           29            2 2.8592167e-14 1.3946453e-16          0.1 0.0090000191 0.00038042912  0.029899968 
number of iterations: 38294 
   22900    61.772931       34           32            2 2.909904e-14 1.3946569e-16          0.1 0.0090000195 0.00038732139  0.029899968 
number of iterations: 20738 
   23000    62.345884       34           32            2 2.9614899e-14 1.3946686e-16          0.1 0.0090000198 0.00039433584  0.029899967 
number of iterations: 23267 
   23100    62.597861       34           32            2 3.0139902e-14 1.3946806e-16          0.1 0.0090000201 0.00040147464  0.029899967 
number of iterations: 23542 
   23200    62.855627       34           32            2 3.0674213e-14 1.3946928e-16          0.1 0.0090000205   0.00040874  0.029899966 
number of iterations: 23721 
   23300    63.116783       34           32            2 3.1217996e-14 1.3947052e-16          0.1 0.0090000208 0.00041613415  0.029899965 
number of iterations: 23889 
   23400    63.391243       34           32            2 3.1771418e-14 1.3947178e-16          0.1 0.0090000212 0.00042365938  0.029899965 
number of iterations: 24054 
   23500     63.67613       34           32            2 3.2334652e-14 1.3947307e-16          0.1 0.0090000216 0.00043131802  0.029899964 
number of iterations: 24220 
   23600    63.976859       34           32            2 3.2907871e-14 1.3947438e-16          0.1  0.009000022 0.00043911243  0.029899964 
number of iterations: 24386 
   23700    64.250257       35           33            2 3.3491251e-14 1.3947571e-16          0.1 0.0090000224 0.00044704502  0.029899963 
number of iterations: 24553 
   23800    64.526549       35           33            2 3.4084973e-14 1.3947706e-16          0.1 0.0090000228 0.00045511823  0.029899962 
number of iterations: 24720 
   23900    64.830918       35           33            2 3.4689221e-14 1.3947844e-16          0.1 0.0090000232 0.00046333456  0.029899962 
number of iterations: 24887 
   24000    65.484114       35           33            2 3.5304181e-14 1.3947985e-16          0.1 0.0090000236 0.00047169655  0.029899961 
number of iterations: 25055 
   24100    65.815432       35           33            2 3.5930042e-14 1.3948128e-16          0.1  0.009000024 0.00048020678   0.02989996 
number of iterations: 25223 
   24200     66.14616       37           35            2 3.6566998e-14 1.3948274e-16          0.1 0.0090000244 0.00048886787  0.029899959 
number of iterations: 25391 
   24300     66.48562       37           35            2 3.7215247e-14 1.3948422e-16          0.1 0.0090000248 0.00049768251  0.029899959 
number of iterations: 25560 
   24400    66.900819       37           35            2 3.7874987e-14 1.3948573e-16          0.1 0.0090000253 0.00050665341  0.029899958 
number of iterations: 25730 
   24500    67.182099       38           36            2 3.8546422e-14 1.3948726e-16          0.1 0.0090000257 0.00051578334  0.029899957 
number of iterations: 36117 
   24600     67.61709       39           37            2 3.9229761e-14 1.3948881e-16          0.1 0.0090000262 0.00052507512  0.029899956 
number of iterations: 26431 
   24700    67.941288       39           37            2 3.9925214e-14 1.3949039e-16          0.1 0.0090000267 0.00053453163  0.029899956 
number of iterations: 26550 
   24800     68.23009       40           38            2 4.0632996e-14 1.3949199e-16          0.1 0.0090000271 0.00054415578  0.029899955 
number of iterations: 26714 
   24900    68.534988       43           41            2 4.1353325e-14 1.3949362e-16          0.1 0.0090000276 0.00055395054  0.029899954 
number of iterations: 30423 
   25000    69.302611       44           42            2 4.2086423e-14 1.3949528e-16          0.1 0.0090000281 0.00056391894  0.029899953 
number of iterations: 26177 
   25100    69.596177       44           42            2 4.2832518e-14 1.3949698e-16          0.1 0.0090000285 0.00057406405  0.029899953 
number of iterations: 27036 
   25200     69.91108       45           43            2 4.3591839e-14 1.394987e-16          0.1  0.009000029 0.00058438902  0.029899952 
number of iterations: 27226 
   25300      70.2056       45           43            2 4.4364622e-14 1.3950045e-16          0.1 0.0090000295 0.00059489702  0.029899951 
number of iterations: 27401 
   25400    70.517343       45           43            2 4.5151104e-14 1.3950224e-16          0.1 0.0090000301 0.0006055913   0.02989995 
number of iterations: 27575 
   25500    70.850883       46           44            2 4.5951528e-14 1.3950405e-16          0.1 0.0090000306 0.00061647517  0.029899949 
number of iterations: 27749 
   25600    71.191517       46           44            2 4.6766142e-14 1.395059e-16          0.1 0.0090000311 0.00062755199  0.029899948 
number of iterations: 36051 
   25700    71.607006       49           47            2 4.7595198e-14 1.3950775e-16          0.1 0.0090000318 0.00063882517  0.029899947 
number of iterations: 28296 
   25800    71.962831       50           48            2 4.843895e-14 1.3950964e-16          0.1 0.0090000323 0.0006502982  0.029899946 
number of iterations: 36303 
   25900    72.397067       50           48            2 4.9297661e-14 1.395116e-16          0.1  0.009000033 0.00066197462  0.029899945 
number of iterations: 27224 
   26000    73.082874       51           49            2 5.0171594e-14 1.3951359e-16          0.1 0.0090000335 0.00067385804  0.029899944 
number of iterations: 30408 
   26100    73.443098       54           52            2 5.106102e-14 1.3951561e-16          0.1 0.0090000342 0.00068595212  0.029899943 
number of iterations: 28603 
   26200    73.771831       54           52            2 5.1966214e-14 1.3951767e-16          0.1 0.0090000347 0.0006982606  0.029899942 
number of iterations: 28909 
   26300    74.082787       55           53            2 5.2887455e-14 1.3951977e-16          0.1 0.0090000353 0.00071078728  0.029899941 
number of iterations: 29090 
   26400    74.402091       57           55            2 5.3825027e-14 1.3952191e-16          0.1 0.0090000359 0.00072353603   0.02989994 
number of iterations: 29267 
   26500    74.779733       57           55            2 5.477922e-14 1.3952409e-16          0.1 0.0090000366 0.00073651079  0.029899939 
number of iterations: 29444 
   26600    75.126328       59           57            2 5.5750328e-14 1.395263e-16          0.1 0.0090000372 0.00074971556  0.029899938 
number of iterations: 29622 
   26700    75.446595       59           57            2 5.6738652e-14 1.3952855e-16          0.1 0.0090000379 0.00076315442  0.029899937 
number of iterations: 32349 
   26800    75.814084       60           58            2 5.7744497e-14 1.3953087e-16          0.1 0.0090000387 0.00077683152  0.029899936 
number of iterations: 31964 
   26900    76.192915       60           58            2 5.8768173e-14 1.3953322e-16          0.1 0.0090000394 0.00079075109  0.029899934 
number of iterations: 30032 
   27000    76.952217       60           58            2 5.9809997e-14 1.3953561e-16          0.1 0.0090000401 0.00080491741  0.029899933 
number of iterations: 30354 
   27100    77.271605       61           59            2 6.087029e-14 1.3953805e-16          0.1 0.0090000408 0.00081933487  0.029899932 
number of iterations: 32150 
   27200    77.658235       62           60            2 6.1949379e-14 1.3954053e-16          0.1 0.0090000416 0.00083400792  0.029899931 
number of iterations: 31992 
   27300    78.020068       64           62            2 6.3047598e-14 1.3954305e-16          0.1 0.0090000424 0.00084894109   0.02989993 
number of iterations: 30811 
   27400    78.339177       66           64            2 6.4165286e-14 1.3954561e-16          0.1 0.0090000432 0.00086413899  0.029899928 
number of iterations: 40660 
   27500    78.832524       69           67            2 6.5302787e-14 1.3954818e-16          0.1  0.009000044 0.00087960632  0.029899927 
number of iterations: 38404 
   27600    79.291267       69           67            2 6.6460454e-14 1.3955082e-16          0.1 0.0090000448 0.00089534784  0.029899926 
number of iterations: 30417 
   27700    79.616151       70           68            2 6.7638644e-14 1.395535e-16          0.1 0.0090000455 0.00091136843  0.029899924 
number of iterations: 31521 
   27800    79.984089       71           69            2 6.8837721e-14 1.3955623e-16          0.1 0.0090000463 0.00092767302  0.029899923 
number of iterations: 31728 
   27900    80.343523       72           70            2 7.0058054e-14 1.3955901e-16          0.1 0.0090000471 0.00094426665  0.029899922 
number of iterations: 32235 
   28000    81.095638       72           70            2 7.1300021e-14 1.3956185e-16          0.1 0.0090000478 0.00096115445   0.02989992 
number of iterations: 32076 
   28100    81.479724       72           70            2 7.2564005e-14 1.3956475e-16          0.1 0.0090000486 0.00097834164  0.029899919 
number of iterations: 37725 
   28200    81.910696       73           71            2 7.3850397e-14 1.3956771e-16          0.1 0.0090000496 0.00099583351  0.029899918 
number of iterations: 38872 
   28300    82.356332       74           72            2 7.5159593e-14 1.3957074e-16          0.1 0.0090000506 0.0010136355  0.029899916 
number of iterations: 31771 
   28400    82.748612       75           73            2 7.6491998e-14 1.3957383e-16          0.1 0.0090000515  0.001031753  0.029899914 
number of iterations: 36238 
   28500    83.146114       77           75            2 7.7848024e-14 1.3957698e-16          0.1 0.0090000525 0.0010501918  0.029899913 
number of iterations: 32806 
   28600    83.494447       77           75            2 7.9228089e-14 1.3958018e-16          0.1 0.0090000534 0.0010689574  0.029899911 
number of iterations: 41638 
   28700    83.951893       79           77            2 8.063262e-14 1.3958341e-16          0.1 0.0090000544 0.0010880556   0.02989991 
number of iterations: 38697 
   28800    84.390062       80           78            2 8.2062049e-14 1.3958673e-16          0.1 0.0090000553 0.0011074925  0.029899908 
number of iterations: 37746 
   28900    84.840309       81           79            2 8.3516819e-14 1.3959011e-16          0.1 0.0090000562 0.0011272739  0.029899906 
number of iterations: 34685 
   29000    85.616846       82           80            2 8.4997378e-14 1.3959354e-16          0.1 0.0090000572  0.001147406  0.029899905 
number of iterations: 33340 
   29100     86.01425       85           83            2 8.6504185e-14 1.3959704e-16          0.1 0.0090000582  0.001167895  0.029899903 
number of iterations: 42565 
   29200    86.667504       86           84            2 8.8037704e-14 1.3960057e-16          0.1 0.0090000593 0.0011887472  0.029899901 
number of iterations: 43834 
   29300    87.167266       90           88            2 8.9598408e-14 1.3960421e-16          0.1 0.0090000604 0.0012099691    0.0298999 
number of iterations: 33169 
   29400    87.550772       91           89            2 9.118678e-14 1.3960792e-16          0.1 0.0090000614 0.0012315672  0.029899898 
number of iterations: 37325 
   29500    87.974252       94           92            2 9.280331e-14 1.396117e-16          0.1 0.0090000625 0.0012535481  0.029899896 
number of iterations: 33807 
   29600    88.371372       95           93            2 9.4448498e-14 1.3961556e-16          0.1 0.0090000636 0.0012759188  0.029899894 
number of iterations: 36568 
   29700    88.813974       97           95            2 9.612285e-14 1.3961951e-16          0.1 0.0090000648  0.001298686  0.029899892 
number of iterations: 41464 
   29800    89.292805      100           98            2 9.7826886e-14 1.3962351e-16          0.1  0.009000066 0.0013218568   0.02989989 
number of iterations: 40492 
   29900    89.774093      102          100            2 9.9561129e-14 1.3962734e-16          0.1 0.0090000671 0.0013454384  0.029899888 
number of iterations: 36755 
   30000    90.572694      103          101            2 1.0132612e-13 1.3963148e-16          0.1 0.0090000682 0.0013694381  0.029899887 
number of iterations: 38375 
   30100    91.007836      104          102            2 1.0312239e-13 1.3963572e-16          0.1 0.0090000693 0.0013938632  0.029899885 
number of iterations: 34549 
   30200    91.505675      107          105            2 1.0495052e-13 1.3964003e-16          0.1 0.0090000705 0.0014187213  0.029899883 
number of iterations: 35394 
   30300    91.961163      107          105            2 1.0681104e-13 1.3964442e-16          0.1 0.0090000718 0.0014440201  0.029899881 
number of iterations: 38441 
   30400    92.369958      108          106            2 1.0870456e-13 1.3964888e-16          0.1 0.0090000731 0.0014697673  0.029899878 
number of iterations: 38932 
   30500    92.821052      111          109            2 1.1063164e-13 1.3965343e-16          0.1 0.0090000744  0.001495971  0.029899876 
number of iterations: 42519 
   30600    93.334744      115          113            2 1.1259288e-13 1.396581e-16          0.1 0.0090000758 0.0015226393  0.029899874 
number of iterations: 40368 
   30700    93.861947      117          115            2 1.1458889e-13 1.3966283e-16          0.1  0.009000077 0.0015497803  0.029899872 
number of iterations: 41670 
   30800    94.386277      121          119            2 1.1662028e-13 1.3966762e-16          0.1 0.0090000784 0.0015774024   0.02989987 
number of iterations: 36688 
   30900    94.851862      123          121            2 1.1868769e-13 1.3967227e-16          0.1 0.0090000797 0.0016055143  0.029899867 
number of iterations: 36835 
   31000     95.63033      124          122            2 1.2079175e-13 1.3967701e-16          0.1 0.0090000812 0.0016341244  0.029899865 
number of iterations: 37023 
   31100    96.087605      125          123            2 1.2293311e-13 1.3968184e-16          0.1 0.0090000826 0.0016632418  0.029899863 
number of iterations: 39278 
   31200    96.648531      125          123            2 1.2511242e-13 1.3968681e-16          0.1 0.0090000841 0.0016928754   0.02989986 
number of iterations: 36925 
   31300    97.124905      127          125            2 1.2733038e-13 1.3969187e-16          0.1 0.0090000856 0.0017230343  0.029899858 
number of iterations: 36263 
   31400    97.562861      130          128            2 1.2958765e-13 1.3969708e-16          0.1  0.009000087 0.0017537278  0.029899855 
number of iterations: 37628 
   31500    98.023847      130          128            2 1.3188494e-13 1.3970238e-16          0.1 0.0090000885 0.0017849655  0.029899853 
number of iterations: 40558 
   31600    98.465677      130          128            2 1.3422295e-13 1.3970777e-16          0.1 0.0090000901 0.0018167569   0.02989985 
number of iterations: 37544 
   31700    98.868147      131          129            2 1.3660241e-13 1.3971327e-16          0.1 0.0090000917 0.0018491119  0.029899848 
number of iterations: 38083 
   31800    99.292496      134          132            2 1.3902406e-13 1.3971886e-16          0.1 0.0090000933 0.0018820405  0.029899845 
number of iterations: 38282 
   31900    99.757584      137          135            2 1.4148863e-13 1.3972455e-16          0.1  0.009000095 0.0019155529  0.029899842 
number of iterations: 40659 
   32000    100.62441      141          139            2 1.439969e-13 1.3973058e-16          0.1 0.0090000967 0.0019496593  0.029899839 
number of iterations: 42461 
   32100    101.13303      144          142            2 1.4654963e-13 1.3973668e-16          0.1 0.0090000984 0.0019843704  0.029899836 
number of iterations: 37539 
   32200    101.64855      148          146            2 1.4914761e-13 1.3974292e-16          0.1 0.0090001002 0.0020196968  0.029899833 
number of iterations: 43653 
   32300    102.25085      150          148            2 1.5179165e-13 1.3974924e-16          0.1  0.009000102 0.0020556495   0.02989983 
number of iterations: 39277 
   32400    102.72471      152          150            2 1.5448257e-13 1.3975568e-16          0.1 0.0090001038 0.0020922395  0.029899827 
number of iterations: 44808 
   32500    103.22175      153          151            2 1.5722118e-13 1.3976219e-16          0.1 0.0090001057 0.0021294782  0.029899824 
number of iterations: 38663 
   32600    103.67464      155          153            2 1.6000835e-13 1.3976884e-16          0.1 0.0090001075 0.0021673771  0.029899821 
number of iterations: 38586 
   32700    104.13239      161          159            2 1.6284493e-13 1.3977562e-16          0.1 0.0090001092 0.0022059478  0.029899818 
number of iterations: 39122 
   32800    104.60337      165          163            2 1.6573179e-13 1.3978254e-16          0.1  0.009000111 0.0022452022  0.029899815 
number of iterations: 40951 
   32900      105.109      169          167            2 1.6866983e-13 1.3978958e-16          0.1  0.009000113 0.0022851526  0.029899812 
number of iterations: 42376 
   33000    106.05704      171          169            2 1.7165995e-13 1.3979675e-16          0.1 0.0090001151 0.0023258112  0.029899808 
number of iterations: 43678 
   33100    106.73922      175          173            2 1.7470308e-13 1.3980402e-16          0.1 0.0090001172 0.0023671905  0.029899805 
number of iterations: 45139 
   33200    107.34171      178          176            2 1.7780016e-13 1.3981138e-16          0.1 0.0090001193 0.0024093035  0.029899802 
number of iterations: 44049 
   33300    107.84539      183          181            2 1.8095215e-13 1.3981885e-16          0.1 0.0090001213 0.0024521629  0.029899798 
number of iterations: 40611 
   33400    108.32769      184          182            2 1.8416001e-13 1.3982646e-16          0.1 0.0090001233 0.0024957822  0.029899795 
number of iterations: 42887 
   33500    108.82958      189          187            2 1.8742474e-13 1.3983423e-16          0.1 0.0090001255 0.0025401748  0.029899791 
number of iterations: 39734 
   33600    109.29433      193          191            2 1.9074734e-13 1.3984216e-16          0.1 0.0090001277 0.0025853543  0.029899788 
number of iterations: 43800 
   33700    109.82241      196          194            2 1.9412885e-13 1.3985025e-16          0.1 0.0090001303 0.0026313348  0.029899783 
number of iterations: 44487 
   33800    110.34388      199          197            2 1.975703e-13 1.3985851e-16          0.1 0.0090001327 0.0026781304  0.029899779 
number of iterations: 42876 
   33900    110.85745      203          201            2 2.0107276e-13 1.3986691e-16          0.1 0.0090001352 0.0027257555  0.029899775 
number of iterations: 43124 
   34000    111.82131      206          204            2 2.0463732e-13 1.3987548e-16          0.1 0.0090001375  0.002774225  0.029899771 
number of iterations: 42082 
   34100    112.29838      208          206            2 2.0826506e-13 1.398842e-16          0.1 0.0090001399 0.0028235537  0.029899767 
number of iterations: 42523 
   34200    112.78334      211          209            2 2.1195712e-13 1.3989308e-16          0.1 0.0090001423 0.0028737569  0.029899763 
number of iterations: 44293 
   34300    113.29535      212          210            2 2.1571462e-13 1.3990213e-16          0.1 0.0090001448   0.00292485  0.029899759 
number of iterations: 46854 
   34400    113.84534      216          214            2 2.1953874e-13 1.3991133e-16          0.1 0.0090001474 0.0029768489  0.029899755 
number of iterations: 43242 
   34500    114.35859      224          222            2 2.2343065e-13 1.3992069e-16          0.1   0.00900015 0.0030297697   0.02989975 
number of iterations: 46407 
   34600    114.91531      227          225            2 2.2739156e-13 1.3993021e-16          0.1 0.0090001526 0.0030836286  0.029899746 
number of iterations: 43518 
   34700    115.41328      232          230            2 2.3142268e-13 1.3993993e-16          0.1 0.0090001552 0.0031384423  0.029899742 
number of iterations: 43565 
   34800    115.94392      234          232            2 2.3552527e-13 1.3994983e-16          0.1 0.0090001579 0.0031942277  0.029899737 
number of iterations: 46678 
   34900    116.49247      236          234            2 2.3970058e-13 1.3995991e-16          0.1 0.0090001607 0.0032510021  0.029899733 
number of iterations: 43575 
   35000    117.40379      241          239            2 2.4394992e-13 1.3997019e-16          0.1 0.0090001636 0.0033087829  0.029899728 
Loop time of 117.404 on 6 procs for 35000 steps with 241 atoms

Performance: 257572497.691 tau/day, 298.116 timesteps/s
99.7% CPU use with 6 MPI tasks x no OpenMP threads

MPI task timing breakdown:
Section |  min time  |  avg time  |  max time  |%varavg| %total
---------------------------------------------------------------
Pair    | 0.0031493  | 0.016174   | 0.051993   |  15.0 |  0.01
Neigh   | 11.882     | 12.553     | 13.858     |  25.9 | 10.69
Comm    | 13.055     | 13.092     | 13.166     |   1.4 | 11.15
Output  | 1.0606     | 1.0625     | 1.0633     |   0.1 |  0.90
Modify  | 89.095     | 90.22      | 90.793     |   8.2 | 76.85
Other   |            | 0.461      |            |       |  0.39

Nlocal:    40.1667 ave 146 max 0 min
Histogram: 4 0 0 0 0 0 1 0 0 1
Nghost:    18.1667 ave 58 max 0 min
Histogram: 4 0 0 0 0 0 0 0 1 1
Neighs:    149.167 ave 536 max 0 min
Histogram: 4 0 0 0 0 0 1 0 0 1

Total # of neighbors = 895
Ave neighs/atom = 3.71369
Neighbor list builds = 414
Dangerous builds = 0
Total wall time: 0:01:58
