 NUFEB Simulation

     50 atoms 
     2 atom types 
     4 nutrients 

  0.0e-4   1.00e-04  xlo xhi 
  0.0e-4   1.00e-04  ylo yhi 
  0.0e-4   5.00e-05  zlo zhi 

 Atoms 

     1 1 1.58e-06  370 8.99e-05 5.16e-05 2.77e-05 1.58e-06 
     2 1 1.76e-06  370 9.47e-05 8.30e-05 3.11e-05 1.76e-06 
     3 1 1.61e-06  370 9.73e-05 3.57e-05 2.20e-05 1.61e-06 
     4 1 1.81e-06  370 9.37e-05 1.69e-05 1.77e-05 1.81e-06 
     5 1 1.76e-06  370 7.90e-05 5.17e-05 1.73e-05 1.76e-06 
     6 1 1.70e-06  370 1.16e-05 6.91e-05 3.69e-05 1.70e-06 
     7 1 1.82e-06  370 1.47e-05 6.49e-05 6.47e-06 1.82e-06 
     8 1 1.65e-06  370 8.64e-05 2.55e-05 1.01e-05 1.65e-06 
     9 1 1.63e-06  370 8.63e-05 5.67e-05 8.71e-06 1.63e-06 
     10 1 1.67e-06  370 8.33e-05 9.67e-05 3.13e-05 1.67e-06 
     11 1 1.70e-06  370 3.16e-05 4.87e-05 4.28e-05 1.70e-06 
     12 1 1.74e-06  370 5.40e-05 3.87e-05 1.63e-05 1.74e-06 
     13 1 1.66e-06  370 6.89e-05 6.54e-05 3.53e-05 1.66e-06 
     14 1 1.53e-06  370 3.90e-05 6.22e-05 4.28e-05 1.53e-06 
     15 1 1.37e-06  370 3.21e-05 5.32e-05 2.00e-05 1.37e-06 
     16 1 1.55e-06  370 8.15e-05 7.67e-05 4.46e-06 1.55e-06 
     17 1 1.71e-06  370 9.79e-05 9.37e-05 1.47e-05 1.71e-06 
     18 1 1.47e-06  370 1.97e-06 2.34e-05 2.02e-06 1.47e-06 
     19 1 1.80e-06  370 7.50e-05 7.17e-05 2.07e-05 1.80e-06 
     20 1 1.39e-06  370 1.52e-05 8.71e-05 8.15e-06 1.39e-06 
     21 1 1.85e-06  370 4.64e-06 8.96e-05 8.17e-06 1.85e-06 
     22 1 1.59e-06  370 7.21e-05 4.60e-05 3.49e-05 1.59e-06 
     23 1 1.65e-06  370 2.10e-05 3.13e-05 1.71e-05 1.65e-06 
     24 1 1.39e-06  370 6.47e-05 7.23e-05 4.70e-05 1.39e-06 
     25 1 1.64e-06  370 3.86e-05 5.39e-05 5.87e-06 1.64e-06 
     26 1 1.41e-06  370 7.31e-06 5.19e-05 1.76e-05 1.41e-06 
     27 1 1.71e-06  370 3.74e-05 6.08e-05 1.86e-06 1.71e-06 
     28 1 1.51e-06  370 6.32e-06 4.38e-05 2.84e-05 1.51e-06 
     29 1 1.42e-06  370 3.73e-05 4.98e-05 4.81e-05 1.42e-06 
     30 1 1.60e-06  370 7.51e-05 4.41e-06 1.62e-05 1.60e-06 
     31 1 1.49e-06  370 4.25e-05 5.73e-05 2.50e-05 1.49e-06 
     32 1 1.89e-06  370 2.03e-05 1.22e-05 4.68e-05 1.89e-06 
     33 1 1.70e-06  370 3.14e-05 9.51e-05 3.63e-05 1.70e-06 
     34 1 1.60e-06  370 4.23e-06 4.20e-06 4.23e-05 1.60e-06 
     35 1 1.46e-06  370 8.18e-05 7.75e-05 4.67e-05 1.46e-06 
     36 1 1.40e-06  370 7.49e-05 5.03e-05 2.69e-05 1.40e-06 
     37 1 1.48e-06  370 1.96e-05 6.95e-05 9.34e-06 1.48e-06 
     38 1 1.74e-06  370 4.75e-06 5.04e-05 3.83e-05 1.74e-06 
     39 1 1.88e-06  370 7.40e-05 9.29e-05 1.05e-05 1.88e-06 
     40 1 1.91e-06  370 3.56e-05 3.57e-05 6.97e-06 1.91e-06 
     41 1 1.85e-06  370 9.37e-06 5.25e-05 2.38e-05 1.85e-06 
     42 1 1.70e-06  370 9.41e-05 9.72e-05 2.47e-05 1.70e-06 
     43 1 1.76e-06  370 2.36e-05 6.91e-05 2.41e-05 1.76e-06 
     44 1 1.47e-06  370 4.82e-05 7.57e-06 1.46e-05 1.47e-06 
     45 1 1.51e-06  370 2.87e-05 8.75e-05 1.38e-05 1.51e-06 
     46 1 1.87e-06  370 3.24e-05 6.09e-05 3.62e-05 1.87e-06 
     47 1 1.45e-06  370 9.52e-05 4.40e-06 1.82e-05 1.45e-06 
     48 1 1.44e-06  370 7.94e-05 8.58e-05 2.70e-05 1.44e-06 
     49 1 1.57e-06  370 1.74e-05 1.16e-05 2.68e-05 1.57e-06 
     50 1 1.54e-06  370 1.45e-05 5.16e-05 2.03e-05 1.54e-06 

 Nutrients 

     1 sub g nn nn nn 1.00e-01 1.00e-01 
     2 o2 l nn nn nd 9.00e-03 9.00e-03 
     3 suc l nn nn nn 3.42e-20 3.42e-20 
     4 co2 l nn nn nd 2.99e-02 2.99e-02 

 Type Name 

     1 cyano  
     2 ecw  

 Diffusion Coeffs 

     sub 0 
     o2 2.3e-09 
     suc 5.2e-10 
     co2 1.9e-09 

 Growth Rate 

     cyano 2.047e-05 
     ecw 6.71e-05 

 Ks 

     cyano 0.00035 0.0002 0.01 0.000138 
     ecw 0 0.001 3.6 0.05 

 Yield 

     cyano 0.55 
     ecw 0.43 

 Maintenance 

     cyano 0 
     ecw 9.5e-07 

 Decay 

     cyano 0 
     ecw 0 



