ITEM: TIMESTEP
0
ITEM: NUMBER OF ATOMS
50
ITEM: BOX BOUNDS ff ff ff
0.0000000000000000e+00 1.0000000000000000e-04
0.0000000000000000e+00 1.0000000000000000e-04
0.0000000000000000e+00 5.0000000000000002e-05
ITEM: ATOMS id type diameter x y z 
18 1 1.47e-06 1.97e-06 2.34e-05 2.02e-06 
40 1 1.91e-06 3.56e-05 3.57e-05 6.97e-06 
44 1 1.47e-06 4.82e-05 7.57e-06 1.46e-05 
23 1 1.65e-06 2.1e-05 3.13e-05 1.71e-05 
49 1 1.57e-06 1.74e-05 1.16e-05 2.68e-05 
28 1 1.51e-06 6.32e-06 4.38e-05 2.84e-05 
34 1 1.6e-06 4.23e-06 4.2e-06 4.23e-05 
11 1 1.7e-06 3.16e-05 4.87e-05 4.28e-05 
32 1 1.89e-06 2.03e-05 1.22e-05 4.68e-05 
29 1 1.42e-06 3.73e-05 4.98e-05 4.81e-05 
27 1 1.71e-06 3.74e-05 6.08e-05 1.86e-06 
25 1 1.64e-06 3.86e-05 5.39e-05 5.87e-06 
7 1 1.82e-06 1.47e-05 6.49e-05 6.47e-06 
20 1 1.39e-06 1.52e-05 8.71e-05 8.15e-06 
21 1 1.85e-06 4.64e-06 8.96e-05 8.17e-06 
37 1 1.48e-06 1.96e-05 6.95e-05 9.34e-06 
45 1 1.51e-06 2.87e-05 8.75e-05 1.38e-05 
26 1 1.41e-06 7.31e-06 5.19e-05 1.76e-05 
50 1 1.54e-06 1.45e-05 5.16e-05 2.03e-05 
15 1 1.37e-06 3.21e-05 5.32e-05 2e-05 
41 1 1.85e-06 9.37e-06 5.25e-05 2.38e-05 
43 1 1.76e-06 2.36e-05 6.91e-05 2.41e-05 
31 1 1.49e-06 4.25e-05 5.73e-05 2.5e-05 
46 1 1.87e-06 3.24e-05 6.09e-05 3.62e-05 
33 1 1.7e-06 3.14e-05 9.51e-05 3.63e-05 
6 1 1.7e-06 1.16e-05 6.91e-05 3.69e-05 
38 1 1.74e-06 4.75e-06 5.04e-05 3.83e-05 
14 1 1.53e-06 3.9e-05 6.22e-05 4.28e-05 
8 1 1.65e-06 8.64e-05 2.55e-05 1.01e-05 
30 1 1.6e-06 7.51e-05 4.41e-06 1.62e-05 
12 1 1.74e-06 5.4e-05 3.87e-05 1.63e-05 
4 1 1.81e-06 9.37e-05 1.69e-05 1.77e-05 
47 1 1.45e-06 9.52e-05 4.4e-06 1.82e-05 
3 1 1.61e-06 9.73e-05 3.57e-05 2.2e-05 
22 1 1.59e-06 7.21e-05 4.6e-05 3.49e-05 
16 1 1.55e-06 8.15e-05 7.67e-05 4.46e-06 
9 1 1.63e-06 8.63e-05 5.67e-05 8.71e-06 
39 1 1.88e-06 7.4e-05 9.29e-05 1.05e-05 
17 1 1.71e-06 9.79e-05 9.37e-05 1.47e-05 
5 1 1.76e-06 7.9e-05 5.17e-05 1.73e-05 
19 1 1.8e-06 7.5e-05 7.17e-05 2.07e-05 
42 1 1.7e-06 9.41e-05 9.72e-05 2.47e-05 
36 1 1.4e-06 7.49e-05 5.03e-05 2.69e-05 
48 1 1.44e-06 7.94e-05 8.58e-05 2.7e-05 
1 1 1.58e-06 8.99e-05 5.16e-05 2.77e-05 
2 1 1.76e-06 9.47e-05 8.3e-05 3.11e-05 
10 1 1.67e-06 8.33e-05 9.67e-05 3.13e-05 
13 1 1.66e-06 6.89e-05 6.54e-05 3.53e-05 
24 1 1.39e-06 6.47e-05 7.23e-05 4.7e-05 
35 1 1.46e-06 8.18e-05 7.75e-05 4.67e-05 
ITEM: TIMESTEP
100
ITEM: NUMBER OF ATOMS
50
ITEM: BOX BOUNDS ff ff ff
0.0000000000000000e+00 1.0000000000000000e-04
0.0000000000000000e+00 1.0000000000000000e-04
0.0000000000000000e+00 5.0000000000000002e-05
ITEM: ATOMS id type diameter x y z 
18 1 1.47929e-06 1.97e-06 2.34e-05 2.02e-06 
40 1 1.92208e-06 3.56e-05 3.57e-05 6.97e-06 
44 1 1.47929e-06 4.82e-05 7.57e-06 1.46e-05 
23 1 1.66043e-06 2.1e-05 3.13e-05 1.71e-05 
49 1 1.57993e-06 1.74e-05 1.16e-05 2.68e-05 
28 1 1.51955e-06 6.32e-06 4.38e-05 2.84e-05 
34 1 1.61012e-06 4.23e-06 4.2e-06 4.23e-05 
11 1 1.71075e-06 3.16e-05 4.87e-05 4.28e-05 
32 1 1.90195e-06 2.03e-05 1.22e-05 4.68e-05 
29 1 1.42898e-06 3.73e-05 4.98e-05 4.81e-05 
27 1 1.72081e-06 3.74e-05 6.08e-05 1.86e-06 
25 1 1.65037e-06 3.86e-05 5.39e-05 5.87e-06 
7 1 1.83151e-06 1.47e-05 6.49e-05 6.47e-06 
20 1 1.39879e-06 1.52e-05 8.71e-05 8.15e-06 
21 1 1.8617e-06 4.64e-06 8.96e-05 8.17e-06 
37 1 1.48936e-06 1.96e-05 6.95e-05 9.34e-06 
45 1 1.51955e-06 2.87e-05 8.75e-05 1.38e-05 
26 1 1.41891e-06 7.31e-06 5.19e-05 1.76e-05 
50 1 1.54974e-06 1.45e-05 5.16e-05 2.03e-05 
15 1 1.37866e-06 3.21e-05 5.32e-05 2e-05 
41 1 1.8617e-06 9.37e-06 5.25e-05 2.38e-05 
43 1 1.77113e-06 2.36e-05 6.91e-05 2.41e-05 
31 1 1.49942e-06 4.25e-05 5.73e-05 2.5e-05 
46 1 1.88182e-06 3.24e-05 6.09e-05 3.62e-05 
33 1 1.71075e-06 3.14e-05 9.51e-05 3.63e-05 
6 1 1.71075e-06 1.16e-05 6.91e-05 3.69e-05 
38 1 1.751e-06 4.75e-06 5.04e-05 3.83e-05 
14 1 1.53967e-06 3.9e-05 6.22e-05 4.28e-05 
8 1 1.66043e-06 8.64e-05 2.55e-05 1.01e-05 
30 1 1.61012e-06 7.51e-05 4.41e-06 1.62e-05 
12 1 1.751e-06 5.4e-05 3.87e-05 1.63e-05 
4 1 1.82144e-06 9.37e-05 1.69e-05 1.77e-05 
47 1 1.45917e-06 9.52e-05 4.4e-06 1.82e-05 
3 1 1.62018e-06 9.73e-05 3.57e-05 2.2e-05 
22 1 1.60005e-06 7.21e-05 4.6e-05 3.49e-05 
16 1 1.5598e-06 8.15e-05 7.67e-05 4.46e-06 
9 1 1.64031e-06 8.63e-05 5.67e-05 8.71e-06 
39 1 1.89189e-06 7.4e-05 9.29e-05 1.05e-05 
17 1 1.72081e-06 9.79e-05 9.37e-05 1.47e-05 
5 1 1.77113e-06 7.9e-05 5.17e-05 1.73e-05 
19 1 1.81138e-06 7.5e-05 7.17e-05 2.07e-05 
42 1 1.71075e-06 9.41e-05 9.72e-05 2.47e-05 
36 1 1.40885e-06 7.49e-05 5.03e-05 2.69e-05 
48 1 1.4491e-06 7.94e-05 8.58e-05 2.7e-05 
1 1 1.58999e-06 8.99e-05 5.16e-05 2.77e-05 
2 1 1.77113e-06 9.47e-05 8.3e-05 3.11e-05 
10 1 1.68056e-06 8.33e-05 9.67e-05 3.13e-05 
13 1 1.67049e-06 6.89e-05 6.54e-05 3.53e-05 
24 1 1.39879e-06 6.47e-05 7.23e-05 4.7e-05 
35 1 1.46923e-06 8.18e-05 7.75e-05 4.67e-05 
ITEM: TIMESTEP
200
ITEM: NUMBER OF ATOMS
50
ITEM: BOX BOUNDS ff ff ff
0.0000000000000000e+00 1.0000000000000000e-04
0.0000000000000000e+00 1.0000000000000000e-04
0.0000000000000000e+00 5.0000000000000002e-05
ITEM: ATOMS id type diameter x y z 
18 1 1.48865e-06 1.97e-06 2.34e-05 2.02e-06 
40 1 1.93423e-06 3.56e-05 3.57e-05 6.97e-06 
44 1 1.48865e-06 4.82e-05 7.57e-06 1.46e-05 
23 1 1.67093e-06 2.1e-05 3.13e-05 1.71e-05 
49 1 1.58991e-06 1.74e-05 1.16e-05 2.68e-05 
28 1 1.52915e-06 6.32e-06 4.38e-05 2.84e-05 
34 1 1.62029e-06 4.23e-06 4.2e-06 4.23e-05 
11 1 1.72156e-06 3.16e-05 4.87e-05 4.28e-05 
32 1 1.91397e-06 2.03e-05 1.22e-05 4.68e-05 
29 1 1.43801e-06 3.73e-05 4.98e-05 4.81e-05 
27 1 1.73169e-06 3.74e-05 6.08e-05 1.86e-06 
25 1 1.6608e-06 3.86e-05 5.39e-05 5.87e-06 
7 1 1.84309e-06 1.47e-05 6.49e-05 6.47e-06 
20 1 1.40763e-06 1.52e-05 8.71e-05 8.15e-06 
21 1 1.87347e-06 4.64e-06 8.96e-05 8.17e-06 
37 1 1.49877e-06 1.96e-05 6.95e-05 9.34e-06 
45 1 1.52915e-06 2.87e-05 8.75e-05 1.38e-05 
26 1 1.42788e-06 7.31e-06 5.19e-05 1.76e-05 
50 1 1.55953e-06 1.45e-05 5.16e-05 2.03e-05 
15 1 1.38738e-06 3.21e-05 5.32e-05 2e-05 
41 1 1.87347e-06 9.37e-06 5.25e-05 2.38e-05 
43 1 1.78232e-06 2.36e-05 6.91e-05 2.41e-05 
31 1 1.5089e-06 4.25e-05 5.73e-05 2.5e-05 
46 1 1.89372e-06 3.24e-05 6.09e-05 3.62e-05 
33 1 1.72156e-06 3.14e-05 9.51e-05 3.63e-05 
6 1 1.72156e-06 1.16e-05 6.91e-05 3.69e-05 
38 1 1.76207e-06 4.75e-06 5.04e-05 3.83e-05 
14 1 1.54941e-06 3.9e-05 6.22e-05 4.28e-05 
8 1 1.67093e-06 8.64e-05 2.55e-05 1.01e-05 
30 1 1.62029e-06 7.51e-05 4.41e-06 1.62e-05 
12 1 1.76207e-06 5.4e-05 3.87e-05 1.63e-05 
4 1 1.83296e-06 9.37e-05 1.69e-05 1.77e-05 
47 1 1.46839e-06 9.52e-05 4.4e-06 1.82e-05 
3 1 1.63042e-06 9.73e-05 3.57e-05 2.2e-05 
22 1 1.61017e-06 7.21e-05 4.6e-05 3.49e-05 
16 1 1.56966e-06 8.15e-05 7.67e-05 4.46e-06 
9 1 1.65068e-06 8.63e-05 5.67e-05 8.71e-06 
39 1 1.90385e-06 7.4e-05 9.29e-05 1.05e-05 
17 1 1.73169e-06 9.79e-05 9.37e-05 1.47e-05 
5 1 1.78232e-06 7.9e-05 5.17e-05 1.73e-05 
19 1 1.82283e-06 7.5e-05 7.17e-05 2.07e-05 
42 1 1.72156e-06 9.41e-05 9.72e-05 2.47e-05 
36 1 1.41776e-06 7.49e-05 5.03e-05 2.69e-05 
48 1 1.45827e-06 7.94e-05 8.58e-05 2.7e-05 
1 1 1.60004e-06 8.99e-05 5.16e-05 2.77e-05 
2 1 1.78232e-06 9.47e-05 8.3e-05 3.11e-05 
10 1 1.69118e-06 8.33e-05 9.67e-05 3.13e-05 
13 1 1.68106e-06 6.89e-05 6.54e-05 3.53e-05 
24 1 1.40763e-06 6.47e-05 7.23e-05 4.7e-05 
35 1 1.47852e-06 8.18e-05 7.75e-05 4.67e-05 
ITEM: TIMESTEP
300
ITEM: NUMBER OF ATOMS
50
ITEM: BOX BOUNDS ff ff ff
0.0000000000000000e+00 1.0000000000000000e-04
0.0000000000000000e+00 1.0000000000000000e-04
0.0000000000000000e+00 5.0000000000000002e-05
ITEM: ATOMS id type diameter x y z 
18 1 1.49806e-06 1.97e-06 2.34e-05 2.02e-06 
40 1 1.94646e-06 3.56e-05 3.57e-05 6.97e-06 
44 1 1.49806e-06 4.82e-05 7.57e-06 1.46e-05 
23 1 1.68149e-06 2.1e-05 3.13e-05 1.71e-05 
49 1 1.59997e-06 1.74e-05 1.16e-05 2.68e-05 
28 1 1.53882e-06 6.32e-06 4.38e-05 2.84e-05 
34 1 1.63054e-06 4.23e-06 4.2e-06 4.23e-05 
11 1 1.73245e-06 3.16e-05 4.87e-05 4.28e-05 
32 1 1.92607e-06 2.03e-05 1.22e-05 4.68e-05 
29 1 1.4471e-06 3.73e-05 4.98e-05 4.81e-05 
27 1 1.74264e-06 3.74e-05 6.08e-05 1.86e-06 
25 1 1.6713e-06 3.86e-05 5.39e-05 5.87e-06 
7 1 1.85474e-06 1.47e-05 6.49e-05 6.47e-06 
20 1 1.41653e-06 1.52e-05 8.71e-05 8.15e-06 
21 1 1.88531e-06 4.64e-06 8.96e-05 8.17e-06 
37 1 1.50825e-06 1.96e-05 6.95e-05 9.34e-06 
45 1 1.53882e-06 2.87e-05 8.75e-05 1.38e-05 
26 1 1.43691e-06 7.31e-06 5.19e-05 1.76e-05 
50 1 1.56939e-06 1.45e-05 5.16e-05 2.03e-05 
15 1 1.39615e-06 3.21e-05 5.32e-05 2e-05 
41 1 1.88531e-06 9.37e-06 5.25e-05 2.38e-05 
43 1 1.79359e-06 2.36e-05 6.91e-05 2.41e-05 
31 1 1.51844e-06 4.25e-05 5.73e-05 2.5e-05 
46 1 1.90569e-06 3.24e-05 6.09e-05 3.62e-05 
33 1 1.73245e-06 3.14e-05 9.51e-05 3.63e-05 
6 1 1.73245e-06 1.16e-05 6.91e-05 3.69e-05 
38 1 1.77321e-06 4.75e-06 5.04e-05 3.83e-05 
14 1 1.5592e-06 3.9e-05 6.22e-05 4.28e-05 
8 1 1.68149e-06 8.64e-05 2.55e-05 1.01e-05 
30 1 1.63054e-06 7.51e-05 4.41e-06 1.62e-05 
12 1 1.77321e-06 5.4e-05 3.87e-05 1.63e-05 
4 1 1.84455e-06 9.37e-05 1.69e-05 1.77e-05 
47 1 1.47768e-06 9.52e-05 4.4e-06 1.82e-05 
3 1 1.64073e-06 9.73e-05 3.57e-05 2.2e-05 
22 1 1.62035e-06 7.21e-05 4.6e-05 3.49e-05 
16 1 1.57958e-06 8.15e-05 7.67e-05 4.46e-06 
9 1 1.66111e-06 8.63e-05 5.67e-05 8.71e-06 
39 1 1.91588e-06 7.4e-05 9.29e-05 1.05e-05 
17 1 1.74264e-06 9.79e-05 9.37e-05 1.47e-05 
5 1 1.79359e-06 7.9e-05 5.17e-05 1.73e-05 
19 1 1.83436e-06 7.5e-05 7.17e-05 2.07e-05 
42 1 1.73245e-06 9.41e-05 9.72e-05 2.47e-05 
36 1 1.42672e-06 7.49e-05 5.03e-05 2.69e-05 
48 1 1.46748e-06 7.94e-05 8.58e-05 2.7e-05 
1 1 1.61016e-06 8.99e-05 5.16e-05 2.77e-05 
2 1 1.79359e-06 9.47e-05 8.3e-05 3.11e-05 
10 1 1.70187e-06 8.33e-05 9.67e-05 3.13e-05 
13 1 1.69168e-06 6.89e-05 6.54e-05 3.53e-05 
24 1 1.41653e-06 6.47e-05 7.23e-05 4.7e-05 
35 1 1.48787e-06 8.18e-05 7.75e-05 4.67e-05 
ITEM: TIMESTEP
400
ITEM: NUMBER OF ATOMS
50
ITEM: BOX BOUNDS ff ff ff
0.0000000000000000e+00 1.0000000000000000e-04
0.0000000000000000e+00 1.0000000000000000e-04
0.0000000000000000e+00 5.0000000000000002e-05
ITEM: ATOMS id type diameter x y z 
18 1 1.50753e-06 1.97e-06 2.34e-05 2.02e-06 
40 1 1.95876e-06 3.56e-05 3.57e-05 6.97e-06 
44 1 1.50753e-06 4.82e-05 7.57e-06 1.46e-05 
23 1 1.69212e-06 2.1e-05 3.13e-05 1.71e-05 
49 1 1.61008e-06 1.74e-05 1.16e-05 2.68e-05 
28 1 1.54855e-06 6.32e-06 4.38e-05 2.84e-05 
34 1 1.64085e-06 4.23e-06 4.2e-06 4.23e-05 
11 1 1.7434e-06 3.16e-05 4.87e-05 4.28e-05 
32 1 1.93825e-06 2.03e-05 1.22e-05 4.68e-05 
29 1 1.45625e-06 3.73e-05 4.98e-05 4.81e-05 
27 1 1.75366e-06 3.74e-05 6.08e-05 1.86e-06 
25 1 1.68187e-06 3.86e-05 5.39e-05 5.87e-06 
7 1 1.86646e-06 1.47e-05 6.49e-05 6.47e-06 
20 1 1.42549e-06 1.52e-05 8.71e-05 8.15e-06 
21 1 1.89723e-06 4.64e-06 8.96e-05 8.17e-06 
37 1 1.51778e-06 1.96e-05 6.95e-05 9.34e-06 
45 1 1.54855e-06 2.87e-05 8.75e-05 1.38e-05 
26 1 1.446e-06 7.31e-06 5.19e-05 1.76e-05 
50 1 1.57932e-06 1.45e-05 5.16e-05 2.03e-05 
15 1 1.40498e-06 3.21e-05 5.32e-05 2e-05 
41 1 1.89723e-06 9.37e-06 5.25e-05 2.38e-05 
43 1 1.80493e-06 2.36e-05 6.91e-05 2.41e-05 
31 1 1.52804e-06 4.25e-05 5.73e-05 2.5e-05 
46 1 1.91774e-06 3.24e-05 6.09e-05 3.62e-05 
33 1 1.7434e-06 3.14e-05 9.51e-05 3.63e-05 
6 1 1.7434e-06 1.16e-05 6.91e-05 3.69e-05 
38 1 1.78442e-06 4.75e-06 5.04e-05 3.83e-05 
14 1 1.56906e-06 3.9e-05 6.22e-05 4.28e-05 
8 1 1.69212e-06 8.64e-05 2.55e-05 1.01e-05 
30 1 1.64085e-06 7.51e-05 4.41e-06 1.62e-05 
12 1 1.78442e-06 5.4e-05 3.87e-05 1.63e-05 
4 1 1.85621e-06 9.37e-05 1.69e-05 1.77e-05 
47 1 1.48702e-06 9.52e-05 4.4e-06 1.82e-05 
3 1 1.6511e-06 9.73e-05 3.57e-05 2.2e-05 
22 1 1.63059e-06 7.21e-05 4.6e-05 3.49e-05 
16 1 1.58957e-06 8.15e-05 7.67e-05 4.46e-06 
9 1 1.67161e-06 8.63e-05 5.67e-05 8.71e-06 
39 1 1.928e-06 7.4e-05 9.29e-05 1.05e-05 
17 1 1.75366e-06 9.79e-05 9.37e-05 1.47e-05 
5 1 1.80493e-06 7.9e-05 5.17e-05 1.73e-05 
19 1 1.84595e-06 7.5e-05 7.17e-05 2.07e-05 
42 1 1.7434e-06 9.41e-05 9.72e-05 2.47e-05 
36 1 1.43574e-06 7.49e-05 5.03e-05 2.69e-05 
48 1 1.47676e-06 7.94e-05 8.58e-05 2.7e-05 
1 1 1.62034e-06 8.99e-05 5.16e-05 2.77e-05 
2 1 1.80493e-06 9.47e-05 8.3e-05 3.11e-05 
10 1 1.71263e-06 8.33e-05 9.67e-05 3.13e-05 
13 1 1.70238e-06 6.89e-05 6.54e-05 3.53e-05 
24 1 1.42549e-06 6.47e-05 7.23e-05 4.7e-05 
35 1 1.49727e-06 8.18e-05 7.75e-05 4.67e-05 
ITEM: TIMESTEP
500
ITEM: NUMBER OF ATOMS
50
ITEM: BOX BOUNDS ff ff ff
0.0000000000000000e+00 1.0000000000000000e-04
0.0000000000000000e+00 1.0000000000000000e-04
0.0000000000000000e+00 5.0000000000000002e-05
ITEM: ATOMS id type diameter x y z 
18 1 1.51706e-06 1.97e-06 2.34e-05 2.02e-06 
40 1 1.97114e-06 3.56e-05 3.57e-05 6.97e-06 
44 1 1.51706e-06 4.82e-05 7.57e-06 1.46e-05 
23 1 1.70282e-06 2.1e-05 3.13e-05 1.71e-05 
49 1 1.62026e-06 1.74e-05 1.16e-05 2.68e-05 
28 1 1.55834e-06 6.32e-06 4.38e-05 2.84e-05 
34 1 1.65122e-06 4.23e-06 4.2e-06 4.23e-05 
11 1 1.75442e-06 3.16e-05 4.87e-05 4.28e-05 
32 1 1.9505e-06 2.03e-05 1.22e-05 4.68e-05 
29 1 1.46546e-06 3.73e-05 4.98e-05 4.81e-05 
27 1 1.76474e-06 3.74e-05 6.08e-05 1.86e-06 
25 1 1.6925e-06 3.86e-05 5.39e-05 5.87e-06 
7 1 1.87826e-06 1.47e-05 6.49e-05 6.47e-06 
20 1 1.4345e-06 1.52e-05 8.71e-05 8.15e-06 
21 1 1.90922e-06 4.64e-06 8.96e-05 8.17e-06 
37 1 1.52738e-06 1.96e-05 6.95e-05 9.34e-06 
45 1 1.55834e-06 2.87e-05 8.75e-05 1.38e-05 
26 1 1.45514e-06 7.31e-06 5.19e-05 1.76e-05 
50 1 1.5893e-06 1.45e-05 5.16e-05 2.03e-05 
15 1 1.41386e-06 3.21e-05 5.32e-05 2e-05 
41 1 1.90922e-06 9.37e-06 5.25e-05 2.38e-05 
43 1 1.81634e-06 2.36e-05 6.91e-05 2.41e-05 
31 1 1.5377e-06 4.25e-05 5.73e-05 2.5e-05 
46 1 1.92986e-06 3.24e-05 6.09e-05 3.62e-05 
33 1 1.75442e-06 3.14e-05 9.51e-05 3.63e-05 
6 1 1.75442e-06 1.16e-05 6.91e-05 3.69e-05 
38 1 1.7957e-06 4.75e-06 5.04e-05 3.83e-05 
14 1 1.57898e-06 3.9e-05 6.22e-05 4.28e-05 
8 1 1.70282e-06 8.64e-05 2.55e-05 1.01e-05 
30 1 1.65122e-06 7.51e-05 4.41e-06 1.62e-05 
12 1 1.7957e-06 5.4e-05 3.87e-05 1.63e-05 
4 1 1.86794e-06 9.37e-05 1.69e-05 1.77e-05 
47 1 1.49642e-06 9.52e-05 4.4e-06 1.82e-05 
3 1 1.66154e-06 9.73e-05 3.57e-05 2.2e-05 
22 1 1.6409e-06 7.21e-05 4.6e-05 3.49e-05 
16 1 1.59962e-06 8.15e-05 7.67e-05 4.46e-06 
9 1 1.68218e-06 8.63e-05 5.67e-05 8.71e-06 
39 1 1.94018e-06 7.4e-05 9.29e-05 1.05e-05 
17 1 1.76474e-06 9.79e-05 9.37e-05 1.47e-05 
5 1 1.81634e-06 7.9e-05 5.17e-05 1.73e-05 
19 1 1.85762e-06 7.5e-05 7.17e-05 2.07e-05 
42 1 1.75442e-06 9.41e-05 9.72e-05 2.47e-05 
36 1 1.44482e-06 7.49e-05 5.03e-05 2.69e-05 
48 1 1.4861e-06 7.94e-05 8.58e-05 2.7e-05 
1 1 1.63058e-06 8.99e-05 5.16e-05 2.77e-05 
2 1 1.81634e-06 9.47e-05 8.3e-05 3.11e-05 
10 1 1.72346e-06 8.33e-05 9.67e-05 3.13e-05 
13 1 1.71314e-06 6.89e-05 6.54e-05 3.53e-05 
24 1 1.4345e-06 6.47e-05 7.23e-05 4.7e-05 
35 1 1.50674e-06 8.18e-05 7.75e-05 4.67e-05 
ITEM: TIMESTEP
600
ITEM: NUMBER OF ATOMS
51
ITEM: BOX BOUNDS ff ff ff
0.0000000000000000e+00 1.0000000000000000e-04
0.0000000000000000e+00 1.0000000000000000e-04
0.0000000000000000e+00 5.0000000000000002e-05
ITEM: ATOMS id type diameter x y z 
18 1 1.52665e-06 1.97e-06 2.34e-05 2.02e-06 
40 1 1.4998e-06 3.53372e-05 3.61476e-05 6.43011e-06 
44 1 1.52665e-06 4.82e-05 7.57e-06 1.46e-05 
23 1 1.71359e-06 2.1e-05 3.13e-05 1.71e-05 
51 1 1.64251e-06 3.58878e-05 3.52098e-05 7.56125e-06 
49 1 1.6305e-06 1.74e-05 1.16e-05 2.68e-05 
28 1 1.56819e-06 6.32e-06 4.38e-05 2.84e-05 
34 1 1.66166e-06 4.23e-06 4.2e-06 4.23e-05 
11 1 1.76551e-06 3.16e-05 4.87e-05 4.28e-05 
32 1 1.96284e-06 2.03e-05 1.22e-05 4.68e-05 
29 1 1.47472e-06 3.73e-05 4.98e-05 4.81e-05 
27 1 1.7759e-06 3.74e-05 6.08e-05 1.86e-06 
25 1 1.7032e-06 3.86e-05 5.39e-05 5.87e-06 
7 1 1.89014e-06 1.47e-05 6.49e-05 6.47e-06 
20 1 1.44357e-06 1.52e-05 8.71e-05 8.15e-06 
21 1 1.92129e-06 4.64e-06 8.96e-05 8.17e-06 
37 1 1.53704e-06 1.96e-05 6.95e-05 9.34e-06 
45 1 1.56819e-06 2.87e-05 8.75e-05 1.38e-05 
26 1 1.46434e-06 7.31e-06 5.19e-05 1.76e-05 
50 1 1.59935e-06 1.45e-05 5.16e-05 2.03e-05 
15 1 1.4228e-06 3.21e-05 5.32e-05 2e-05 
41 1 1.92129e-06 9.37e-06 5.25e-05 2.38e-05 
43 1 1.82783e-06 2.36e-05 6.91e-05 2.41e-05 
31 1 1.54742e-06 4.25e-05 5.73e-05 2.5e-05 
46 1 1.94207e-06 3.24e-05 6.09e-05 3.62e-05 
33 1 1.76551e-06 3.14e-05 9.51e-05 3.63e-05 
6 1 1.76551e-06 1.16e-05 6.91e-05 3.69e-05 
38 1 1.80706e-06 4.75e-06 5.04e-05 3.83e-05 
14 1 1.58896e-06 3.9e-05 6.22e-05 4.28e-05 
8 1 1.71359e-06 8.64e-05 2.55e-05 1.01e-05 
30 1 1.66166e-06 7.51e-05 4.41e-06 1.62e-05 
12 1 1.80706e-06 5.4e-05 3.87e-05 1.63e-05 
4 1 1.87975e-06 9.37e-05 1.69e-05 1.77e-05 
47 1 1.50588e-06 9.52e-05 4.4e-06 1.82e-05 
3 1 1.67205e-06 9.73e-05 3.57e-05 2.2e-05 
22 1 1.65127e-06 7.21e-05 4.6e-05 3.49e-05 
16 1 1.60973e-06 8.15e-05 7.67e-05 4.46e-06 
9 1 1.69282e-06 8.63e-05 5.67e-05 8.71e-06 
39 1 1.95245e-06 7.4e-05 9.29e-05 1.05e-05 
17 1 1.7759e-06 9.79e-05 9.37e-05 1.47e-05 
5 1 1.82783e-06 7.9e-05 5.17e-05 1.73e-05 
19 1 1.86937e-06 7.5e-05 7.17e-05 2.07e-05 
42 1 1.76551e-06 9.41e-05 9.72e-05 2.47e-05 
36 1 1.45395e-06 7.49e-05 5.03e-05 2.69e-05 
48 1 1.49549e-06 7.94e-05 8.58e-05 2.7e-05 
1 1 1.64089e-06 8.99e-05 5.16e-05 2.77e-05 
2 1 1.82783e-06 9.47e-05 8.3e-05 3.11e-05 
10 1 1.73436e-06 8.33e-05 9.67e-05 3.13e-05 
13 1 1.72397e-06 6.89e-05 6.54e-05 3.53e-05 
24 1 1.44357e-06 6.47e-05 7.23e-05 4.7e-05 
35 1 1.51626e-06 8.18e-05 7.75e-05 4.67e-05 
ITEM: TIMESTEP
700
ITEM: NUMBER OF ATOMS
52
ITEM: BOX BOUNDS ff ff ff
0.0000000000000000e+00 1.0000000000000000e-04
0.0000000000000000e+00 1.0000000000000000e-04
0.0000000000000000e+00 5.0000000000000002e-05
ITEM: ATOMS id type diameter x y z 
18 1 1.5363e-06 1.97e-06 2.34e-05 2.02e-06 
40 1 1.50929e-06 3.53372e-05 3.61476e-05 6.43011e-06 
44 1 1.5363e-06 4.82e-05 7.57e-06 1.46e-05 
23 1 1.72442e-06 2.1e-05 3.13e-05 1.71e-05 
51 1 1.65289e-06 3.58878e-05 3.52098e-05 7.56125e-06 
49 1 1.64081e-06 1.74e-05 1.16e-05 2.68e-05 
28 1 1.57811e-06 6.32e-06 4.38e-05 2.84e-05 
34 1 1.67217e-06 4.23e-06 4.2e-06 4.23e-05 
11 1 1.77668e-06 3.16e-05 4.87e-05 4.28e-05 
32 1 1.49348e-06 2.00383e-05 1.26457e-05 4.62624e-05 
29 1 1.48405e-06 3.73e-05 4.98e-05 4.81e-05 
52 1 1.63558e-06 2.05866e-05 1.17119e-05 4.73888e-05 
27 1 1.78713e-06 3.74e-05 6.08e-05 1.86e-06 
25 1 1.71397e-06 3.86e-05 5.39e-05 5.87e-06 
7 1 1.90209e-06 1.47e-05 6.49e-05 6.47e-06 
20 1 1.45269e-06 1.52e-05 8.71e-05 8.15e-06 
21 1 1.93344e-06 4.64e-06 8.96e-05 8.17e-06 
37 1 1.54675e-06 1.96e-05 6.95e-05 9.34e-06 
45 1 1.57811e-06 2.87e-05 8.75e-05 1.38e-05 
26 1 1.4736e-06 7.31e-06 5.19e-05 1.76e-05 
50 1 1.60946e-06 1.45e-05 5.16e-05 2.03e-05 
15 1 1.43179e-06 3.21e-05 5.32e-05 2e-05 
41 1 1.93344e-06 9.37e-06 5.25e-05 2.38e-05 
43 1 1.83938e-06 2.36e-05 6.91e-05 2.41e-05 
31 1 1.5572e-06 4.25e-05 5.73e-05 2.5e-05 
46 1 1.95434e-06 3.24e-05 6.09e-05 3.62e-05 
33 1 1.77668e-06 3.14e-05 9.51e-05 3.63e-05 
6 1 1.77668e-06 1.16e-05 6.91e-05 3.69e-05 
38 1 1.81848e-06 4.75e-06 5.04e-05 3.83e-05 
14 1 1.59901e-06 3.9e-05 6.22e-05 4.28e-05 
8 1 1.72442e-06 8.64e-05 2.55e-05 1.01e-05 
30 1 1.67217e-06 7.51e-05 4.41e-06 1.62e-05 
12 1 1.81848e-06 5.4e-05 3.87e-05 1.63e-05 
4 1 1.89164e-06 9.37e-05 1.69e-05 1.77e-05 
47 1 1.5154e-06 9.52e-05 4.4e-06 1.82e-05 
3 1 1.68262e-06 9.73e-05 3.57e-05 2.2e-05 
22 1 1.66171e-06 7.21e-05 4.6e-05 3.49e-05 
16 1 1.61991e-06 8.15e-05 7.67e-05 4.46e-06 
9 1 1.70352e-06 8.63e-05 5.67e-05 8.71e-06 
39 1 1.96479e-06 7.4e-05 9.29e-05 1.05e-05 
17 1 1.78713e-06 9.79e-05 9.37e-05 1.47e-05 
5 1 1.83938e-06 7.9e-05 5.17e-05 1.73e-05 
19 1 1.88119e-06 7.5e-05 7.17e-05 2.07e-05 
42 1 1.77668e-06 9.41e-05 9.72e-05 2.47e-05 
36 1 1.46314e-06 7.49e-05 5.03e-05 2.69e-05 
48 1 1.50495e-06 7.94e-05 8.58e-05 2.7e-05 
1 1 1.65126e-06 8.99e-05 5.16e-05 2.77e-05 
2 1 1.83938e-06 9.47e-05 8.3e-05 3.11e-05 
10 1 1.74532e-06 8.33e-05 9.67e-05 3.13e-05 
13 1 1.73487e-06 6.89e-05 6.54e-05 3.53e-05 
24 1 1.45269e-06 6.47e-05 7.23e-05 4.7e-05 
35 1 1.52585e-06 8.18e-05 7.75e-05 4.67e-05 
ITEM: TIMESTEP
800
ITEM: NUMBER OF ATOMS
53
ITEM: BOX BOUNDS ff ff ff
0.0000000000000000e+00 1.0000000000000000e-04
0.0000000000000000e+00 1.0000000000000000e-04
0.0000000000000000e+00 5.0000000000000002e-05
ITEM: ATOMS id type diameter x y z 
18 1 1.54601e-06 1.97e-06 2.34e-05 2.02e-06 
40 1 1.51883e-06 3.53372e-05 3.61476e-05 6.43011e-06 
44 1 1.54601e-06 4.82e-05 7.57e-06 1.46e-05 
23 1 1.73532e-06 2.1e-05 3.13e-05 1.71e-05 
51 1 1.66334e-06 3.58878e-05 3.52098e-05 7.56125e-06 
49 1 1.65119e-06 1.74e-05 1.16e-05 2.68e-05 
28 1 1.58808e-06 6.32e-06 4.38e-05 2.84e-05 
34 1 1.68274e-06 4.23e-06 4.2e-06 4.23e-05 
11 1 1.78791e-06 3.16e-05 4.87e-05 4.28e-05 
32 1 1.50292e-06 2.00383e-05 1.26457e-05 4.62624e-05 
29 1 1.49343e-06 3.73e-05 4.98e-05 4.81e-05 
52 1 1.64592e-06 2.05866e-05 1.17119e-05 4.73888e-05 
27 1 1.79842e-06 3.74e-05 6.08e-05 1.86e-06 
25 1 1.72481e-06 3.86e-05 5.39e-05 5.87e-06 
7 1 1.91411e-06 1.47e-05 6.49e-05 6.47e-06 
20 1 1.46188e-06 1.52e-05 8.71e-05 8.15e-06 
21 1 1.94566e-06 4.64e-06 8.96e-05 8.17e-06 
37 1 1.55653e-06 1.96e-05 6.95e-05 9.34e-06 
45 1 1.58808e-06 2.87e-05 8.75e-05 1.38e-05 
26 1 1.48291e-06 7.31e-06 5.19e-05 1.76e-05 
50 1 1.61963e-06 1.45e-05 5.16e-05 2.03e-05 
15 1 1.44084e-06 3.21e-05 5.32e-05 2e-05 
41 1 1.94566e-06 9.37e-06 5.25e-05 2.38e-05 
43 1 1.85101e-06 2.36e-05 6.91e-05 2.41e-05 
31 1 1.56705e-06 4.25e-05 5.73e-05 2.5e-05 
46 1 1.9667e-06 3.24e-05 6.09e-05 3.62e-05 
33 1 1.78791e-06 3.14e-05 9.51e-05 3.63e-05 
6 1 1.78791e-06 1.16e-05 6.91e-05 3.69e-05 
38 1 1.82998e-06 4.75e-06 5.04e-05 3.83e-05 
14 1 1.60912e-06 3.9e-05 6.22e-05 4.28e-05 
8 1 1.73532e-06 8.64e-05 2.55e-05 1.01e-05 
30 1 1.68274e-06 7.51e-05 4.41e-06 1.62e-05 
12 1 1.82998e-06 5.4e-05 3.87e-05 1.63e-05 
4 1 1.9036e-06 9.37e-05 1.69e-05 1.77e-05 
47 1 1.52498e-06 9.52e-05 4.4e-06 1.82e-05 
3 1 1.69325e-06 9.73e-05 3.57e-05 2.2e-05 
22 1 1.67222e-06 7.21e-05 4.6e-05 3.49e-05 
16 1 1.63015e-06 8.15e-05 7.67e-05 4.46e-06 
9 1 1.71429e-06 8.63e-05 5.67e-05 8.71e-06 
39 1 1.49497e-06 7.37381e-05 9.33462e-05 9.96185e-06 
17 1 1.79842e-06 9.79e-05 9.37e-05 1.47e-05 
5 1 1.85101e-06 7.9e-05 5.17e-05 1.73e-05 
53 1 1.63722e-06 7.42869e-05 9.24114e-05 1.10893e-05 
19 1 1.89308e-06 7.5e-05 7.17e-05 2.07e-05 
42 1 1.78791e-06 9.41e-05 9.72e-05 2.47e-05 
36 1 1.47239e-06 7.49e-05 5.03e-05 2.69e-05 
48 1 1.51446e-06 7.94e-05 8.58e-05 2.7e-05 
1 1 1.6617e-06 8.99e-05 5.16e-05 2.77e-05 
2 1 1.85101e-06 9.47e-05 8.3e-05 3.11e-05 
10 1 1.75636e-06 8.33e-05 9.67e-05 3.13e-05 
13 1 1.74584e-06 6.89e-05 6.54e-05 3.53e-05 
24 1 1.46188e-06 6.47e-05 7.23e-05 4.7e-05 
35 1 1.5355e-06 8.18e-05 7.75e-05 4.67e-05 
ITEM: TIMESTEP
900
ITEM: NUMBER OF ATOMS
54
ITEM: BOX BOUNDS ff ff ff
0.0000000000000000e+00 1.0000000000000000e-04
0.0000000000000000e+00 1.0000000000000000e-04
0.0000000000000000e+00 5.0000000000000002e-05
ITEM: ATOMS id type diameter x y z 
18 1 1.55579e-06 1.97e-06 2.34e-05 2.02e-06 
40 1 1.52843e-06 3.53302e-05 3.61596e-05 6.4157e-06 
44 1 1.55579e-06 4.82e-05 7.57e-06 1.46e-05 
23 1 1.74629e-06 2.1e-05 3.13e-05 1.71e-05 
51 1 1.67386e-06 3.58948e-05 3.51979e-05 7.57567e-06 
49 1 1.66162e-06 1.74e-05 1.16e-05 2.68e-05 
28 1 1.59812e-06 6.32e-06 4.38e-05 2.84e-05 
34 1 1.69338e-06 4.23e-06 4.2e-06 4.23e-05 
11 1 1.79921e-06 3.16e-05 4.87e-05 4.28e-05 
32 1 1.51243e-06 2.00383e-05 1.26457e-05 4.62624e-05 
29 1 1.50287e-06 3.73e-05 4.98e-05 4.81e-05 
52 1 1.65633e-06 2.05866e-05 1.17119e-05 4.73888e-05 
27 1 1.80979e-06 3.74e-05 6.08e-05 1.86e-06 
25 1 1.73571e-06 3.86e-05 5.39e-05 5.87e-06 
7 1 1.92621e-06 1.47e-05 6.49e-05 6.47e-06 
20 1 1.47112e-06 1.52e-05 8.71e-05 8.15e-06 
21 1 1.95797e-06 4.64e-06 8.96e-05 8.17e-06 
37 1 1.56637e-06 1.96e-05 6.95e-05 9.34e-06 
45 1 1.59812e-06 2.87e-05 8.75e-05 1.38e-05 
26 1 1.49229e-06 7.31e-06 5.19e-05 1.76e-05 
50 1 1.62987e-06 1.45e-05 5.16e-05 2.03e-05 
15 1 1.44995e-06 3.21e-05 5.32e-05 2e-05 
41 1 1.95797e-06 9.37e-06 5.25e-05 2.38e-05 
43 1 1.86271e-06 2.36e-05 6.91e-05 2.41e-05 
31 1 1.57696e-06 4.25e-05 5.73e-05 2.5e-05 
46 1 1.49642e-06 3.21378e-05 6.13466e-05 3.56613e-05 
33 1 1.79921e-06 3.14e-05 9.51e-05 3.63e-05 
6 1 1.79921e-06 1.16e-05 6.91e-05 3.69e-05 
38 1 1.84155e-06 4.75e-06 5.04e-05 3.83e-05 
14 1 1.61929e-06 3.9e-05 6.22e-05 4.28e-05 
54 1 1.6388e-06 3.26871e-05 6.04109e-05 3.67899e-05 
8 1 1.74629e-06 8.64e-05 2.55e-05 1.01e-05 
30 1 1.69338e-06 7.51e-05 4.41e-06 1.62e-05 
12 1 1.84155e-06 5.4e-05 3.87e-05 1.63e-05 
4 1 1.91563e-06 9.37e-05 1.69e-05 1.77e-05 
47 1 1.53462e-06 9.52e-05 4.4e-06 1.82e-05 
3 1 1.70396e-06 9.73e-05 3.57e-05 2.2e-05 
22 1 1.68279e-06 7.21e-05 4.6e-05 3.49e-05 
16 1 1.64046e-06 8.15e-05 7.67e-05 4.46e-06 
9 1 1.72513e-06 8.63e-05 5.67e-05 8.71e-06 
39 1 1.50442e-06 7.37381e-05 9.33462e-05 9.96185e-06 
17 1 1.80979e-06 9.79e-05 9.37e-05 1.47e-05 
5 1 1.86271e-06 7.9e-05 5.17e-05 1.73e-05 
53 1 1.64757e-06 7.42869e-05 9.24114e-05 1.10893e-05 
19 1 1.90505e-06 7.5e-05 7.17e-05 2.07e-05 
42 1 1.79921e-06 9.41e-05 9.72e-05 2.47e-05 
36 1 1.4817e-06 7.49e-05 5.03e-05 2.69e-05 
48 1 1.52404e-06 7.94e-05 8.58e-05 2.7e-05 
1 1 1.67221e-06 8.99e-05 5.16e-05 2.77e-05 
2 1 1.86271e-06 9.47e-05 8.3e-05 3.11e-05 
10 1 1.76746e-06 8.33e-05 9.67e-05 3.13e-05 
13 1 1.75688e-06 6.89e-05 6.54e-05 3.53e-05 
24 1 1.47112e-06 6.47e-05 7.23e-05 4.7e-05 
35 1 1.54521e-06 8.18e-05 7.75e-05 4.67e-05 
ITEM: TIMESTEP
1000
ITEM: NUMBER OF ATOMS
54
ITEM: BOX BOUNDS ff ff ff
0.0000000000000000e+00 1.0000000000000000e-04
0.0000000000000000e+00 1.0000000000000000e-04
0.0000000000000000e+00 5.0000000000000002e-05
ITEM: ATOMS id type diameter x y z 
18 1 1.56562e-06 1.97e-06 2.34e-05 2.02e-06 
40 1 1.53809e-06 3.53302e-05 3.61596e-05 6.4157e-06 
51 1 1.68444e-06 3.58948e-05 3.51979e-05 7.57567e-06 
44 1 1.56562e-06 4.82e-05 7.57e-06 1.46e-05 
23 1 1.75733e-06 2.1e-05 3.13e-05 1.71e-05 
49 1 1.67213e-06 1.74e-05 1.16e-05 2.68e-05 
28 1 1.60823e-06 6.32e-06 4.38e-05 2.84e-05 
34 1 1.70408e-06 4.23e-06 4.2e-06 4.23e-05 
11 1 1.81059e-06 3.16e-05 4.87e-05 4.28e-05 
32 1 1.52199e-06 2.00313e-05 1.26577e-05 4.6248e-05 
52 1 1.6668e-06 2.05936e-05 1.16999e-05 4.74032e-05 
29 1 1.51237e-06 3.73e-05 4.98e-05 4.81e-05 
27 1 1.82124e-06 3.74e-05 6.08e-05 1.86e-06 
25 1 1.74668e-06 3.86e-05 5.39e-05 5.87e-06 
7 1 1.93839e-06 1.47e-05 6.49e-05 6.47e-06 
20 1 1.48042e-06 1.52e-05 8.71e-05 8.15e-06 
21 1 1.97034e-06 4.64e-06 8.96e-05 8.17e-06 
37 1 1.57627e-06 1.96e-05 6.95e-05 9.34e-06 
45 1 1.60823e-06 2.87e-05 8.75e-05 1.38e-05 
26 1 1.50172e-06 7.31e-06 5.19e-05 1.76e-05 
50 1 1.64018e-06 1.45e-05 5.16e-05 2.03e-05 
15 1 1.45912e-06 3.21e-05 5.32e-05 2e-05 
41 1 1.97034e-06 9.37e-06 5.25e-05 2.38e-05 
43 1 1.87449e-06 2.36e-05 6.91e-05 2.41e-05 
31 1 1.58693e-06 4.25e-05 5.73e-05 2.5e-05 
46 1 1.50588e-06 3.21378e-05 6.13466e-05 3.56613e-05 
33 1 1.81059e-06 3.14e-05 9.51e-05 3.63e-05 
54 1 1.64916e-06 3.26871e-05 6.04109e-05 3.67899e-05 
6 1 1.81059e-06 1.16e-05 6.91e-05 3.69e-05 
38 1 1.85319e-06 4.75e-06 5.04e-05 3.83e-05 
14 1 1.62953e-06 3.9e-05 6.22e-05 4.28e-05 
8 1 1.75733e-06 8.64e-05 2.55e-05 1.01e-05 
30 1 1.70408e-06 7.51e-05 4.41e-06 1.62e-05 
12 1 1.85319e-06 5.4e-05 3.87e-05 1.63e-05 
4 1 1.92774e-06 9.37e-05 1.69e-05 1.77e-05 
47 1 1.54432e-06 9.52e-05 4.4e-06 1.82e-05 
3 1 1.71473e-06 9.73e-05 3.57e-05 2.2e-05 
22 1 1.69343e-06 7.21e-05 4.6e-05 3.49e-05 
16 1 1.65083e-06 8.15e-05 7.67e-05 4.46e-06 
9 1 1.73603e-06 8.63e-05 5.67e-05 8.71e-06 
39 1 1.51394e-06 7.37381e-05 9.33462e-05 9.96185e-06 
53 1 1.65798e-06 7.42869e-05 9.24114e-05 1.10893e-05 
17 1 1.82124e-06 9.79e-05 9.37e-05 1.47e-05 
5 1 1.87449e-06 7.9e-05 5.17e-05 1.73e-05 
19 1 1.91709e-06 7.5e-05 7.17e-05 2.07e-05 
42 1 1.81059e-06 9.41e-05 9.72e-05 2.47e-05 
36 1 1.49107e-06 7.49e-05 5.03e-05 2.69e-05 
48 1 1.53367e-06 7.94e-05 8.58e-05 2.7e-05 
1 1 1.68278e-06 8.99e-05 5.16e-05 2.77e-05 
2 1 1.87449e-06 9.47e-05 8.3e-05 3.11e-05 
10 1 1.77863e-06 8.33e-05 9.67e-05 3.13e-05 
13 1 1.76798e-06 6.89e-05 6.54e-05 3.53e-05 
24 1 1.48042e-06 6.47e-05 7.23e-05 4.7e-05 
35 1 1.55497e-06 8.18e-05 7.75e-05 4.67e-05 
ITEM: TIMESTEP
1100
ITEM: NUMBER OF ATOMS
56
ITEM: BOX BOUNDS ff ff ff
0.0000000000000000e+00 1.0000000000000000e-04
0.0000000000000000e+00 1.0000000000000000e-04
0.0000000000000000e+00 5.0000000000000002e-05
ITEM: ATOMS id type diameter x y z 
18 1 1.57552e-06 1.97e-06 2.34e-05 2.02e-06 
40 1 1.54782e-06 3.53302e-05 3.61596e-05 6.4157e-06 
51 1 1.69509e-06 3.58948e-05 3.51979e-05 7.57567e-06 
44 1 1.57552e-06 4.82e-05 7.57e-06 1.46e-05 
23 1 1.76844e-06 2.1e-05 3.13e-05 1.71e-05 
49 1 1.6827e-06 1.74e-05 1.16e-05 2.68e-05 
28 1 1.61839e-06 6.32e-06 4.38e-05 2.84e-05 
34 1 1.71485e-06 4.23e-06 4.2e-06 4.23e-05 
11 1 1.82203e-06 3.16e-05 4.87e-05 4.28e-05 
32 1 1.53161e-06 2.00313e-05 1.26577e-05 4.6248e-05 
52 1 1.67734e-06 2.05936e-05 1.16999e-05 4.74032e-05 
29 1 1.52193e-06 3.73e-05 4.98e-05 4.81e-05 
27 1 1.83275e-06 3.74e-05 6.08e-05 1.86e-06 
25 1 1.75773e-06 3.86e-05 5.39e-05 5.87e-06 
7 1 1.95065e-06 1.47e-05 6.49e-05 6.47e-06 
20 1 1.48978e-06 1.52e-05 8.71e-05 8.15e-06 
21 1 1.4992e-06 4.37733e-06 9.00474e-05 7.63033e-06 
37 1 1.58624e-06 1.96e-05 6.95e-05 9.34e-06 
45 1 1.61839e-06 2.87e-05 8.75e-05 1.38e-05 
26 1 1.51122e-06 7.31e-06 5.19e-05 1.76e-05 
55 1 1.64184e-06 4.92766e-06 8.911e-05 8.76101e-06 
50 1 1.65055e-06 1.45e-05 5.16e-05 2.03e-05 
15 1 1.46834e-06 3.21e-05 5.32e-05 2e-05 
41 1 1.58716e-06 9.61303e-06 5.18978e-05 2.42543e-05 
43 1 1.88634e-06 2.36e-05 6.91e-05 2.41e-05 
31 1 1.59696e-06 4.25e-05 5.73e-05 2.5e-05 
46 1 1.5154e-06 3.21378e-05 6.13466e-05 3.56613e-05 
33 1 1.82203e-06 3.14e-05 9.51e-05 3.63e-05 
54 1 1.65959e-06 3.26871e-05 6.04109e-05 3.67899e-05 
6 1 1.82203e-06 1.16e-05 6.91e-05 3.69e-05 
38 1 1.8649e-06 4.75e-06 5.04e-05 3.83e-05 
14 1 1.63983e-06 3.9e-05 6.22e-05 4.28e-05 
56 1 1.56011e-06 9.13111e-06 5.30919e-05 2.33534e-05 
8 1 1.76844e-06 8.64e-05 2.55e-05 1.01e-05 
30 1 1.71485e-06 7.51e-05 4.41e-06 1.62e-05 
12 1 1.8649e-06 5.4e-05 3.87e-05 1.63e-05 
4 1 1.93993e-06 9.37e-05 1.69e-05 1.77e-05 
47 1 1.55409e-06 9.52e-05 4.4e-06 1.82e-05 
3 1 1.72557e-06 9.73e-05 3.57e-05 2.2e-05 
22 1 1.70414e-06 7.21e-05 4.6e-05 3.49e-05 
16 1 1.66127e-06 8.15e-05 7.67e-05 4.46e-06 