 NUFEB Simulation

     100 atoms 
     2 atom types 
     4 nutrients 

  0.0e-4   1.00e-04  xlo xhi 
  0.0e-4   1.00e-04  ylo yhi 
  0.0e-4   1.00e-05  zlo zhi 

 Atoms 

     1 1 1.85e-06  370 2.82e-05 5.00e-05 2.04e-06 1.85e-06 
     2 1 1.72e-06  370 4.89e-05 6.19e-05 7.72e-06 1.72e-06 
     3 1 1.86e-06  370 7.64e-05 6.22e-05 5.38e-06 1.86e-06 
     4 1 1.91e-06  370 7.65e-05 4.21e-05 6.37e-06 1.91e-06 
     5 1 1.77e-06  370 6.85e-05 5.38e-05 6.10e-06 1.77e-06 
     6 1 1.79e-06  370 5.57e-05 9.13e-05 3.13e-06 1.79e-06 
     7 1 1.39e-06  370 7.00e-05 6.82e-05 3.52e-06 1.39e-06 
     8 1 1.66e-06  370 4.42e-05 7.82e-05 5.83e-06 1.66e-06 
     9 1 1.80e-06  370 4.22e-05 3.38e-05 3.12e-06 1.80e-06 
     10 1 1.52e-06  370 1.47e-05 3.80e-05 4.63e-06 1.52e-06 
     11 1 1.71e-06  370 9.60e-05 1.83e-05 4.64e-06 1.71e-06 
     12 1 1.78e-06  370 1.31e-05 5.00e-05 4.26e-06 1.78e-06 
     13 1 1.50e-06  370 3.84e-05 2.61e-05 4.84e-06 1.50e-06 
     14 1 1.41e-06  370 2.39e-05 1.02e-05 4.43e-06 1.41e-06 
     15 1 1.91e-06  370 6.04e-05 2.66e-06 3.37e-06 1.91e-06 
     16 1 1.92e-06  370 3.29e-06 5.11e-05 5.13e-06 1.92e-06 
     17 1 1.66e-06  370 8.36e-05 4.67e-05 8.23e-06 1.66e-06 
     18 1 1.79e-06  370 3.96e-05 5.91e-05 2.53e-06 1.79e-06 
     19 1 1.40e-06  370 9.79e-05 3.21e-05 5.12e-06 1.40e-06 
     20 1 1.45e-06  370 8.79e-05 4.66e-05 6.96e-06 1.45e-06 
     21 1 1.79e-06  370 2.79e-05 8.87e-05 6.55e-06 1.79e-06 
     22 1 1.64e-06  370 8.99e-05 8.34e-05 3.11e-06 1.64e-06 
     23 1 1.51e-06  370 3.48e-05 9.64e-05 6.48e-06 1.51e-06 
     24 1 1.85e-06  370 3.06e-05 1.02e-05 4.29e-06 1.85e-06 
     25 1 1.77e-06  370 4.40e-05 9.57e-05 6.20e-06 1.77e-06 
     26 1 1.62e-06  370 8.77e-05 3.40e-05 1.67e-06 1.62e-06 
     27 1 1.88e-06  370 7.93e-05 1.79e-05 5.25e-06 1.88e-06 
     28 1 1.42e-06  370 4.28e-05 8.11e-05 3.92e-06 1.42e-06 
     29 1 1.55e-06  370 9.40e-06 7.95e-05 3.93e-06 1.55e-06 
     30 1 1.82e-06  370 7.81e-05 7.56e-05 6.76e-06 1.82e-06 
     31 1 1.58e-06  370 7.37e-05 6.03e-05 3.22e-06 1.58e-06 
     32 1 1.70e-06  370 6.47e-05 9.80e-05 6.87e-06 1.70e-06 
     33 1 1.57e-06  370 7.98e-06 6.34e-05 7.50e-06 1.57e-06 
     34 1 1.53e-06  370 3.11e-05 8.90e-06 1.88e-06 1.53e-06 
     35 1 1.92e-06  370 9.60e-05 9.13e-05 4.01e-06 1.92e-06 
     36 1 1.77e-06  370 9.60e-05 4.67e-05 3.83e-06 1.77e-06 
     37 1 1.56e-06  370 3.37e-05 9.19e-05 6.15e-06 1.56e-06 
     38 1 1.45e-06  370 1.45e-05 5.29e-05 5.34e-06 1.45e-06 
     39 1 1.51e-06  370 9.18e-05 1.85e-05 5.98e-06 1.51e-06 
     40 1 1.66e-06  370 7.49e-05 6.30e-05 4.57e-06 1.66e-06 
     41 1 1.38e-06  370 1.58e-05 8.35e-05 1.67e-06 1.38e-06 
     42 1 1.92e-06  370 5.31e-05 8.83e-05 6.80e-06 1.92e-06 
     43 1 1.94e-06  370 5.33e-05 8.59e-06 5.31e-06 1.94e-06 
     44 1 1.64e-06  370 3.56e-05 2.92e-05 1.94e-06 1.64e-06 
     45 1 1.76e-06  370 8.48e-05 1.96e-05 4.21e-06 1.76e-06 
     46 1 1.49e-06  370 8.90e-05 7.78e-05 3.93e-06 1.49e-06 
     47 1 1.58e-06  370 6.29e-05 6.60e-05 6.67e-06 1.58e-06 
     48 1 1.63e-06  370 4.69e-05 9.47e-05 2.22e-06 1.63e-06 
     49 1 1.54e-06  370 8.43e-05 5.98e-05 2.09e-06 1.54e-06 
     50 1 1.38e-06  370 1.44e-05 1.63e-05 7.73e-06 1.38e-06 
     51 2 1.39e-06  230 8.62e-05 8.80e-05 5.78e-06 1.39e-06 
     52 2 1.11e-06  230 4.63e-05 1.30e-05 7.74e-06 1.11e-06 
     53 2 1.37e-06  230 3.89e-05 9.70e-05 4.84e-06 1.37e-06 
     54 2 1.28e-06  230 4.81e-05 4.25e-05 7.90e-06 1.28e-06 
     55 2 1.23e-06  230 8.26e-05 7.76e-06 1.80e-06 1.23e-06 
     56 2 1.05e-06  230 9.69e-05 4.62e-05 2.23e-06 1.05e-06 
     57 2 1.25e-06  230 3.08e-05 1.33e-05 2.36e-06 1.25e-06 
     58 2 1.07e-06  230 6.31e-05 6.98e-05 8.59e-06 1.07e-06 
     59 2 1.10e-06  230 6.95e-06 9.47e-05 5.17e-06 1.10e-06 
     60 2 1.29e-06  230 1.27e-05 3.79e-05 7.31e-06 1.29e-06 
     61 2 1.15e-06  230 1.28e-05 7.34e-05 2.17e-06 1.15e-06 
     62 2 9.78e-07  230 9.31e-05 3.53e-05 5.97e-06 9.78e-07 
     63 2 1.12e-06  230 4.18e-05 1.74e-05 8.56e-06 1.12e-06 
     64 2 1.36e-06  230 5.28e-05 8.86e-05 6.25e-06 1.36e-06 
     65 2 1.27e-06  230 9.64e-05 3.27e-05 5.63e-06 1.27e-06 
     66 2 9.25e-07  230 1.45e-05 4.12e-06 5.13e-06 9.25e-07 
     67 2 9.38e-07  230 5.91e-05 3.87e-05 1.77e-06 9.38e-07 
     68 2 1.30e-06  230 8.95e-05 1.37e-05 7.73e-06 1.30e-06 
     69 2 1.24e-06  230 6.27e-05 7.98e-05 1.67e-06 1.24e-06 
     70 2 1.01e-06  230 9.81e-05 6.36e-05 2.34e-06 1.01e-06 
     71 2 1.17e-06  230 7.50e-05 2.92e-05 3.88e-06 1.17e-06 
     72 2 1.23e-06  230 8.16e-05 9.64e-05 2.71e-06 1.23e-06 
     73 2 8.94e-07  230 9.44e-05 5.92e-05 3.22e-06 8.94e-07 
     74 2 1.24e-06  230 3.79e-05 6.78e-05 8.27e-06 1.24e-06 
     75 2 9.60e-07  230 1.39e-05 1.29e-05 4.86e-06 9.60e-07 
     76 2 1.11e-06  230 7.89e-05 9.10e-05 6.25e-06 1.11e-06 
     77 2 9.43e-07  230 5.98e-05 7.54e-06 4.46e-06 9.43e-07 
     78 2 1.25e-06  230 6.03e-06 9.65e-05 4.03e-06 1.25e-06 
     79 2 8.87e-07  230 5.78e-05 2.29e-05 7.19e-06 8.87e-07 
     80 2 9.53e-07  230 4.60e-05 2.50e-05 5.14e-06 9.53e-07 
     81 2 1.15e-06  230 8.81e-05 7.54e-05 1.80e-06 1.15e-06 
     82 2 1.36e-06  230 2.91e-05 6.59e-05 7.41e-06 1.36e-06 
     83 2 1.21e-06  230 7.53e-05 5.09e-05 3.96e-06 1.21e-06 
     84 2 1.08e-06  230 4.63e-06 1.59e-05 8.17e-06 1.08e-06 
     85 2 9.01e-07  230 9.10e-06 9.18e-05 1.28e-06 9.01e-07 
     86 2 9.00e-07  230 9.22e-05 9.91e-05 1.53e-06 9.00e-07 
     87 2 9.56e-07  230 2.60e-05 1.81e-05 8.84e-06 9.56e-07 
     88 2 9.93e-07  230 7.49e-05 6.84e-05 2.74e-06 9.93e-07 
     89 2 1.05e-06  230 2.77e-05 3.34e-05 1.62e-06 1.05e-06 
     90 2 1.01e-06  230 3.03e-05 6.27e-05 5.05e-06 1.01e-06 
     91 2 9.54e-07  230 4.53e-05 2.55e-05 6.30e-06 9.54e-07 
     92 2 1.39e-06  230 1.57e-05 4.82e-05 3.49e-06 1.39e-06 
     93 2 1.20e-06  230 9.41e-05 3.91e-05 5.16e-06 1.20e-06 
     94 2 1.01e-06  230 4.75e-05 9.81e-05 8.09e-06 1.01e-06 
     95 2 1.21e-06  230 9.45e-05 4.92e-05 1.42e-06 1.21e-06 
     96 2 1.18e-06  230 6.09e-05 8.37e-05 8.46e-06 1.18e-06 
     97 2 1.01e-06  230 8.91e-05 5.71e-05 7.98e-06 1.01e-06 
     98 2 1.24e-06  230 9.03e-05 4.98e-05 6.30e-06 1.24e-06 
     99 2 1.11e-06  230 5.40e-05 1.71e-05 2.59e-06 1.11e-06 
     100 2 1.02e-06  230 3.13e-05 4.79e-05 7.08e-06 1.02e-06 

 Nutrients 

     1 sub g nn nn nn 1.00e-01 1.00e-01 
     2 o2 l nn nn nd 9.00e-03 9.00e-03 
     3 suc l nn nn nn 3.42e-20 3.42e-20 
     4 co2 l nn nn nd 2.99e-02 2.99e-02 

 Type Name 

     1 cyano  
     2 ecw  

 Diffusion Coeffs 

     sub 0 
     o2 2.3e-09 
     suc 5.2e-10 
     co2 1.9e-09 

 Growth Rate 

     cyano 1.67e-05 
     ecw 4e-05 

 Ks 

     cyano 0.00035 0.0002 0.01 0.000138 
     ecw 0 0.001 3.6 0.05 

 Yield 

     cyano 0.55 
     ecw 0.43 

 Maintenance 

     cyano 0 
     ecw 9.5e-07 

 Decay 

     cyano 0 
     ecw 0 



