LAMMPS (20 Nov 2019)
Reading data file ...
  orthogonal box = (0 0 0) to (0.0001 0.0001 1e-05)
  8 by 4 by 1 MPI processor grid
  reading atoms ...
  100 atoms
  4 nutrients
Lattice spacing in x,y,z = 100 100 100
50 atoms in group CYANO
50 atoms in group ECW
Model is defined as a closed system. 
Neighbor list info ...
  update every 1 steps, delay 0 steps, check yes
  max neighbors/atom: 5000, page size: 100000
  master list distance cutoff = 2.44e-06
  ghost atom cutoff = 2.44e-06
  binsize = 1.22e-06, bins = 82 82 9
  1 neighbor lists, perpetual/occasional/extra = 1 0 0
  (1) pair gran/hooke/history, perpetual
      attributes: half, newton off, size, history
      pair build: half/size/bin/newtoff
      stencil: half/bin/3d/newtoff
      bin: standard
Setting up Verlet run ...
  Unit style    : lj
  Current step  : 0
  Time step     : 10
Per MPI rank memory allocation (min/avg/max) = 5.793 | 10.51 | 12.11 Mbytes
Step CPU Atoms c_myNtypes[1] c_myNtypes[2] c_myMass[1] c_myMass[2] c_myCon[1] c_myCon[2] c_myCon[3] c_myCon[4] 
       0            0      100           50           50 4.5949039e-14 8.9025325e-15          0.1        0.009     3.42e-20       0.0299 
number of iterations: 326761 
     100    15.820747      132           50           82 4.6557966e-14 8.898175e-15          0.1 0.0090008085  0.036924904  0.029898653 
number of iterations: 4528 
     200    16.169278      144           50           94 4.7174962e-14 8.8970746e-15          0.1  0.009000819  0.073099615  0.029898636 
number of iterations: 3253 
     300    16.452675      144           50           94 4.7800135e-14 8.8990918e-15          0.1 0.0090008297   0.10967795  0.029898618 
number of iterations: 2609 
     400    16.704482      145           51           94 4.8433592e-14 8.9041901e-15          0.1 0.0090008405   0.14666898  0.029898599 
number of iterations: 2181 
     500    16.939585      145           51           94 4.9075445e-14 8.9123417e-15          0.1 0.0090008515   0.18408037  0.029898581 
number of iterations: 1813 
     600    17.181583      148           54           94 4.9725803e-14 8.9235222e-15          0.1 0.0090008654   0.22191929  0.029898558 
number of iterations: 1540 
     700    17.407989      150           56           94 5.038478e-14 8.9377146e-15          0.1 0.0090008767   0.26019303  0.029898539 
number of iterations: 1391 
     800     17.60254      150           56           94 5.105249e-14 8.9549023e-15          0.1 0.0090008882    0.2989087  0.029898519 
number of iterations: 1394 
     900    17.788146      150           56           94 5.1729049e-14 8.975075e-15          0.1 0.0090008998   0.33807361    0.0298985 
number of iterations: 1397 
    1000    18.033658      150           56           94 5.2414573e-14 8.998229e-15          0.1 0.0090009115   0.37769504   0.02989848 
number of iterations: 1429 
    1100    18.222298      151           57           94 5.3109182e-14 9.0243615e-15          0.1 0.0090009235   0.41778014   0.02989846 
number of iterations: 1400 
    1200    18.396858      151           57           94 5.3812997e-14 9.0534691e-15          0.1 0.0090009356   0.45833596   0.02989844 
number of iterations: 1401 
    1300     18.59774      152           58           94 5.4526138e-14 9.0855573e-15          0.1 0.0090009478   0.49936956  0.029898419 
number of iterations: 1407 
    1400    18.766608      152           58           94 5.524873e-14 9.1206342e-15          0.1 0.0090009602   0.54088802  0.029898398 
number of iterations: 1468 
    1500     18.99166      156           60           96 5.5980898e-14 9.1587062e-15          0.1 0.0090009742   0.58289829  0.029898375 
number of iterations: 1413 
    1600    19.212984      157           60           97 5.6722769e-14 9.1997857e-15          0.1  0.009000987   0.62540771  0.029898353 
number of iterations: 1416 
    1700    19.383438      157           60           97 5.7474471e-14 9.2438882e-15          0.1 0.0090009999   0.66842346  0.029898331 
number of iterations: 1453 
    1800    19.579156      158           61           97 5.8236135e-14 9.2910336e-15          0.1  0.009001013    0.7119528  0.029898309 
number of iterations: 1421 
    1900    19.771661      158           61           97 5.9007893e-14 9.3412389e-15          0.1 0.0090010263   0.75600297  0.029898287 
number of iterations: 1424 
    2000    19.979351      158           61           97 5.9789878e-14 9.394526e-15          0.1 0.0090010398   0.80058112  0.029898264 
number of iterations: 1427 
    2100    20.166433      163           62          101 6.0582226e-14 9.4509201e-15          0.1 0.0090010534   0.84569475  0.029898242 
number of iterations: 1491 
    2200    20.373325      168           65          103 6.1385075e-14 9.5104455e-15          0.1 0.0090010672   0.89135125  0.029898218 
number of iterations: 1433 
    2300    20.557877      169           66          103 6.2198563e-14 9.5731392e-15          0.1 0.0090010812   0.93755805  0.029898195 
number of iterations: 1436 
    2400     20.81664      169           66          103 6.3022831e-14 9.6390313e-15          0.1 0.0090010954   0.98432262  0.029898171 
number of iterations: 1650 
    2500    21.010914      173           69          104 6.3858023e-14 9.7081651e-15          0.1 0.0090011155    1.0316522  0.029898137 
number of iterations: 1474 
    2600    21.190516      175           70          105 6.4704283e-14 9.7805698e-15          0.1 0.0090011302    1.0795547  0.029898113 
number of iterations: 1478 
    2700    21.389869      179           70          109 6.5561758e-14 9.8562906e-15          0.1  0.009001145    1.1280377  0.029898088 
number of iterations: 1450 
    2800    21.572399      180           70          110 6.6430597e-14 9.9353688e-15          0.1 0.0090011601    1.1771088  0.029898062 
number of iterations: 1453 
    2900    21.769669      180           70          110 6.7310949e-14 1.0017851e-14          0.1 0.0090011753    1.2267758  0.029898037 
number of iterations: 1458 
    3000    21.995156      180           70          110 6.8202968e-14 1.0103784e-14          0.1 0.0090011907    1.2770465  0.029898011 
number of iterations: 1478 
    3100    22.178752      181           71          110 6.9106808e-14 1.0193223e-14          0.1 0.0090012064    1.3279286  0.029897985 
number of iterations: 1461 
    3200    22.358482      183           71          112 7.0022626e-14 1.0286224e-14          0.1 0.0090012222      1.37943  0.029897958 
number of iterations: 1572 
    3300    22.545705      184           72          112 7.0950581e-14 1.0382841e-14          0.1 0.0090012415    1.4315585  0.029897926 
number of iterations: 1473 
    3400    22.723804      186           73          113 7.1890833e-14 1.0483136e-14          0.1 0.0090012578    1.4843222  0.029897898 
number of iterations: 1470 
    3500    22.909483      186           73          113 7.2843545e-14 1.0587173e-14          0.1 0.0090012743    1.5377292  0.029897871 
number of iterations: 1473 
    3600    23.107193      186           73          113 7.3808883e-14 1.0695021e-14          0.1 0.0090012911    1.5917875  0.029897842 
number of iterations: 1476 
    3700    23.304742      187           73          114 7.4787014e-14 1.0806748e-14          0.1 0.0090013081    1.6465054  0.029897814 
number of iterations: 1478 
    3800    23.479464      188           73          115 7.5778107e-14 1.0922427e-14          0.1 0.0090013252    1.7018911  0.029897785 
number of iterations: 1480 
    3900    23.654876      192           76          116 7.6782335e-14 1.1042139e-14          0.1 0.0090013427    1.7579528  0.029897756 
number of iterations: 1484 
    4000    23.913708      193           76          117 7.779987e-14 1.1165959e-14          0.1 0.0090013603    1.8146988  0.029897726 
number of iterations: 1487 
    4100    24.234852      194           76          118 7.883089e-14 1.1293969e-14          0.1 0.0090013782    1.8721375  0.029897696 
number of iterations: 1531 
    4200    24.427475      197           78          119 7.9875574e-14 1.1426251e-14          0.1 0.0090013949    1.9302773  0.029897668 
number of iterations: 1493 
    4300    24.619756      200           78          122 8.0934101e-14 1.1562898e-14          0.1 0.0090014132    1.9891267  0.029897637 
number of iterations: 1557 
    4400    24.807575      203           79          124 8.2006657e-14 1.1704006e-14          0.1 0.0090014329    2.0486943  0.029897604 
number of iterations: 1553 
    4500    24.997854      206           80          126 8.3093426e-14 1.1849676e-14          0.1 0.0090014518    2.1089887  0.029897572 
number of iterations: 1502 
    4600    25.196234      206           80          126 8.4194598e-14      1.2e-14          0.1 0.0090014708    2.1700186   0.02989754 
number of iterations: 1505 
    4700    25.398078      207           80          127 8.5310362e-14 1.2155084e-14          0.1 0.0090014902    2.2317927  0.029897508 
number of iterations: 1508 
    4800    25.584604      209           80          129 8.6440912e-14 1.2315033e-14          0.1 0.0090015097    2.2943198  0.029897475 
number of iterations: 1511 
    4900    25.777217      213           80          133 8.7586445e-14 1.2479961e-14          0.1 0.0090015296    2.3576089  0.029897442 
number of iterations: 1514 
    5000    25.976327      215           80          135 8.8747159e-14 1.2649981e-14          0.1 0.0090015496    2.4216687  0.029897408 
number of iterations: 1540 
    5100     26.15622      218           83          135 8.9923254e-14 1.2825212e-14          0.1 0.0090015667    2.4865084  0.029897379 
number of iterations: 1645 
    5200    26.336342      225           84          141 9.1114936e-14 1.3005778e-14          0.1 0.0090015919    2.5521371  0.029897337 
number of iterations: 1523 
    5300    26.516349      227           84          143 9.232241e-14 1.3191813e-14          0.1 0.0090016128    2.6185636  0.029897302 
number of iterations: 1545 
    5400    26.701794      229           85          144 9.3545885e-14 1.3383455e-14          0.1 0.0090016339    2.6857968  0.029897266 
number of iterations: 1528 
    5500    26.888377      232           86          146 9.4785574e-14 1.3580832e-14          0.1 0.0090016526    2.7538461  0.029897234 
number of iterations: 1597 
    5600    27.062055      236           88          148 9.6041692e-14 1.3784083e-14          0.1 0.0090016755    2.8227208  0.029897196 
number of iterations: 1535 
    5700    27.228877      239           89          150 9.7314456e-14 1.3993352e-14          0.1 0.0090016936    2.8924303  0.029897165 
number of iterations: 1525 
    5800    27.415206      246           93          153 9.8604088e-14 1.4208796e-14          0.1 0.0090017109    2.9629837  0.029897136 
number of iterations: 1615 
    5900    27.603847      250           95          155 9.9910809e-14 1.4430577e-14          0.1 0.0090017367    3.0343905  0.029897093 
number of iterations: 1698 
    6000    27.803363      256           98          158 1.0123485e-13 1.465885e-14          0.1 0.0090017486    3.1066602  0.029897072 
number of iterations: 1645 
    6100     27.98454      261          101          160 1.0257643e-13 1.4893784e-14          0.1 0.0090017752    3.1798019  0.029897028 
number of iterations: 1549 
    6200    28.155508      263          102          161 1.039358e-13 1.5135554e-14          0.1 0.0090017985    3.2538256  0.029896989 
number of iterations: 1564 
    6300    28.343472      265          103          162 1.0531317e-13 1.5384343e-14          0.1 0.0090018221    3.3287406  0.029896949 
number of iterations: 1657 
    6400    28.518974      267          104          163 1.0670881e-13 1.5640331e-14          0.1 0.0090018476    3.4045567  0.029896906 
number of iterations: 1555 
    6500    28.706728      272          106          166 1.0812293e-13 1.590371e-14          0.1 0.0090018685    3.4812836  0.029896871 
number of iterations: 1593 
    6600    28.926976      278          109          169 1.095558e-13 1.6174678e-14          0.1  0.009001887    3.5589305  0.029896839 
number of iterations: 1527 
    6700    29.096288      280          110          170 1.1100766e-13 1.6453435e-14          0.1 0.0090019078    3.6375076  0.029896804 
number of iterations: 1642 
    6800     29.27122      285          112          173 1.1247875e-13 1.6740199e-14          0.1 0.0090019361    3.7170245  0.029896756 
number of iterations: 1567 
    6900    29.443155      287          112          175 1.1396934e-13 1.7035183e-14          0.1 0.0090019615    3.7974912  0.029896714 
number of iterations: 1652 
    7000    29.649236      295          117          178 1.1547969e-13 1.7338626e-14          0.1 0.0090019902    3.8789171  0.029896665 
number of iterations: 1573 
    7100     29.84245      299          117          182 1.1701005e-13 1.7650742e-14          0.1 0.0090020163    3.9613124  0.029896621 
number of iterations: 1629 
    7200    30.028835      306          118          188 1.1856069e-13 1.7971769e-14          0.1 0.0090020472     4.044687  0.029896569 
number of iterations: 1579 
    7300    30.217525      310          119          191 1.2013188e-13 1.8301958e-14          0.1  0.009002074     4.129051  0.029896524 
number of iterations: 1705 
    7400    30.426548      317          122          195 1.2172389e-13 1.8641565e-14          0.1  0.009002105    4.2144142  0.029896472 
number of iterations: 1565 
    7500    30.649303      321          125          196  1.23337e-13 1.8990849e-14          0.1 0.0090021224    4.3007867  0.029896442 
number of iterations: 1587 
    7600    30.867682      327          127          200 1.2497149e-13 1.935008e-14          0.1 0.0090021502    4.3881785  0.029896395 
number of iterations: 1551 
    7700    31.069039      339          132          207 1.2662763e-13 1.9719527e-14          0.1 0.0090021686    4.4765992  0.029896364 
number of iterations: 1715 
    7800    31.276861      347          136          211 1.2830573e-13 2.0099487e-14          0.1 0.0090022044    4.5660592  0.029896303 
number of iterations: 1656 
    7900    31.463046      351          136          215 1.3000606e-13 2.0490261e-14          0.1 0.0090022374    4.6565684  0.029896248 
number of iterations: 1623 
    8000    31.645655      358          137          221 1.3172893e-13 2.0892155e-14          0.1 0.0090022667    4.7481367  0.029896198 
number of iterations: 1618 
    8100    31.856288      364          139          225 1.3347463e-13 2.1305489e-14          0.1 0.0090022964    4.8407741  0.029896148 
number of iterations: 1605 
    8200    32.036483      368          140          228 1.3524346e-13 2.1730595e-14          0.1 0.0090023263    4.9344906  0.029896097 
number of iterations: 1704 
    8300    32.230777      378          143          235 1.3703573e-13 2.2167805e-14          0.1 0.0090023662    5.0292963   0.02989603 
number of iterations: 1687 
    8400    32.411256      384          145          239 1.3885176e-13 2.2617469e-14          0.1 0.0090023994    5.1252012  0.029895974 
number of iterations: 1583 
    8500    32.602694      387          145          242 1.4069185e-13 2.3079943e-14          0.1 0.0090024278    5.2222151  0.029895926 
number of iterations: 1630 
    8600     32.79118      393          148          245 1.4255633e-13 2.3555593e-14          0.1 0.0090024595     5.320348  0.029895872 
number of iterations: 1618 
    8700    32.994119      399          149          250 1.4444551e-13 2.4044808e-14          0.1 0.0090024917    5.4196098  0.029895818 
number of iterations: 1695 
    8800    33.187377      409          150          259 1.4635973e-13 2.4547975e-14          0.1  0.009002527    5.5200104  0.029895758 
number of iterations: 1718 
    8900    33.371487      419          152          267 1.4829932e-13 2.5065509e-14          0.1  0.009002564    5.6215596  0.029895695 
number of iterations: 1676 
    9000    33.553127      424          153          271 1.5026461e-13 2.5597847e-14          0.1 0.0090026002    5.7242669  0.029895634 
number of iterations: 1647 
    9100    33.755323      431          153          278 1.5225595e-13 2.6145391e-14          0.1 0.0090026384    5.8281427  0.029895569 
number of iterations: 1633 
    9200    34.011913      439          153          286 1.5427367e-13 2.6708609e-14          0.1 0.0090026729    5.9331961  0.029895511 
number of iterations: 1636 
    9300    34.207537      441          153          288 1.5631814e-13 2.7287957e-14          0.1 0.0090027077    6.0394367  0.029895452 
number of iterations: 1629 
    9400     34.39504      450          155          295 1.5838969e-13 2.7883913e-14          0.1 0.0090027361    6.1468741  0.029895403 
number of iterations: 1660 
    9500    34.575257      459          158          301 1.6048871e-13 2.8496963e-14          0.1 0.0090027711    6.2555178  0.029895344 
number of iterations: 1644 
    9600    34.766337      465          160          305 1.6261553e-13 2.9127612e-14          0.1 0.0090027973    6.3653769  0.029895299 
number of iterations: 1635 
    9700    34.941051      474          163          311 1.6477055e-13 2.9776389e-14          0.1 0.0090028238    6.4764606  0.029895254 
number of iterations: 1720 
    9800    35.129384      483          165          318 1.6695412e-13 3.0443826e-14          0.1 0.0090028686    6.5887785  0.029895178 
number of iterations: 1629 
    9900    35.321717      492          168          324 1.6916663e-13 3.113049e-14          0.1 0.0090029028    6.7023392   0.02989512 
number of iterations: 1780 
   10000     35.55067      498          169          329 1.7140845e-13 3.1836957e-14          0.1 0.0090029438    6.8171514   0.02989505 
number of iterations: 1656 
   10100    35.740615      508          170          338 1.7367999e-13 3.2563814e-14          0.1 0.0090029778    6.9332244  0.029894992 
number of iterations: 1650 
   10200    35.941061      524          175          349 1.7598163e-13 3.3311662e-14          0.1 0.0090030084    7.0505666   0.02989494 
number of iterations: 1663 
   10300    36.154314      531          175          356 1.7831377e-13 3.4081138e-14          0.1 0.0090030475    7.1691862  0.029894873 
number of iterations: 1709 
   10400     36.34399      537          177          360 1.8067682e-13 3.4872901e-14          0.1 0.0090030896    7.2890915  0.029894802 
number of iterations: 1786 
   10500    36.552987      551          181          370 1.8307119e-13 3.5687629e-14          0.1 0.0090031362    7.4102912  0.029894722 
number of iterations: 1635 
   10600    36.729798      562          181          381 1.8549728e-13 3.6526013e-14          0.1 0.0090031711    7.5327925  0.029894663 
number of iterations: 1668 
   10700    36.933666      579          184          395 1.8795553e-13 3.7388762e-14          0.1 0.0090032106     7.656603  0.029894595 
number of iterations: 1774 
   10800     37.12763      582          185          397 1.9044635e-13 3.8276612e-14          0.1 0.0090032557    7.7817305  0.029894518 
number of iterations: 1685 
   10900    37.337599      598          187          411 1.9297018e-13 3.9190311e-14          0.1 0.0090032946    7.9081823  0.029894452 
number of iterations: 1766 
   11000    37.561668      606          187          419 1.9552746e-13 4.0130658e-14          0.1  0.009003343    8.0359654   0.02989437 
number of iterations: 1657 
   11100    37.739072      621          191          430 1.9811862e-13 4.1098468e-14          0.1 0.0090033796    8.1650863  0.029894307 
number of iterations: 1689 
   11200    37.918723      637          193          444 2.0074413e-13 4.2094576e-14          0.1 0.0090034249     8.295552  0.029894229 
number of iterations: 1675 
   11300    38.125247      650          197          453 2.0340443e-13 4.3119845e-14          0.1 0.0090034693    8.4273688  0.029894154 
number of iterations: 1766 
   11400      38.3384      669          204          465 2.0609998e-13 4.4175164e-14          0.1 0.0090035064    8.5605426   0.02989409 
number of iterations: 1745 
   11500    38.535673      684          208          476 2.0883126e-13 4.5261457e-14          0.1 0.0090035567    8.6950794  0.029894004 
number of iterations: 1710 
   11600     38.71647      702          211          491 2.1159873e-13 4.6379673e-14          0.1 0.0090036021    8.8309842  0.029893926 
number of iterations: 1700 
   11700    38.901088      714          211          503 2.1440287e-13 4.7530789e-14          0.1 0.0090036488    8.9682614  0.029893846 
number of iterations: 1712 
   11800    39.119452      725          212          513 2.1724418e-13 4.8715813e-14          0.1  0.009003693    9.1069157   0.02989377 
number of iterations: 1754 
   11900    39.309059      735          212          523 2.2012314e-13 4.9935788e-14          0.1 0.0090037435    9.2469513  0.029893684 
number of iterations: 1677 
   12000    39.522743      749          214          535 2.2304025e-13 5.119178e-14          0.1 0.0090037774    9.3883718  0.029893625 
number of iterations: 1710 
   12100    39.709203      760          216          544 2.2599602e-13 5.2484903e-14          0.1 0.0090038261    9.5311809  0.029893541 
number of iterations: 1734 
   12200     39.90358      786          219          567 2.2899096e-13 5.3816274e-14          0.1 0.0090038725    9.6753812  0.029893461 
number of iterations: 1716 
   12300    40.100826      798          221          577 2.3202559e-13 5.5187111e-14          0.1 0.0090039182    9.8209756  0.029893383 
number of iterations: 1744 
   12400    40.297536      817          225          592 2.3510044e-13 5.6598632e-14          0.1 0.0090039694     9.967965  0.029893295 
number of iterations: 1725 
   12500    40.475602      834          228          606 2.3821603e-13 5.8052095e-14          0.1 0.0090040205    10.116351  0.029893207 
number of iterations: 1756 
   12600    40.708488      861          234          627 2.4137291e-13 5.9548785e-14          0.1 0.0090040634    10.266136  0.029893132 
number of iterations: 1742 
   12700    40.950775      876          235          641 2.4457163e-13 6.1090057e-14          0.1 0.0090041155    10.417318  0.029893042 
number of iterations: 1780 
   12800    41.152094      898          243          655 2.4781274e-13 6.2677297e-14          0.1 0.0090041759    10.569898  0.029892939 
number of iterations: 1884 
   12900    41.347273      921          246          675 2.510968e-13 6.4311922e-14          0.1 0.0090042384    10.723875  0.029892831 
number of iterations: 1801 
   13000    41.558782      935          249          686 2.5442438e-13 6.5995422e-14          0.1  0.009004296    10.879248  0.029892732 
number of iterations: 1739 
   13100    41.746063      964          254          710 2.5779606e-13 6.7729298e-14          0.1 0.0090043379    11.036013  0.029892659 
number of iterations: 1827 
   13200    41.947794      986          259          727 2.6121241e-13 6.9515144e-14          0.1 0.0090044025    11.194167  0.029892548 
number of iterations: 1750 
   13300    42.149634     1003          264          739 2.6467405e-13 7.1354572e-14          0.1 0.0090044495    11.353708  0.029892466 
number of iterations: 1766 
   13400    42.352487     1028          268          760 2.6818156e-13 7.3249244e-14          0.1 0.0090045051    11.514632   0.02989237 
number of iterations: 1753 
   13500    42.552463     1048          269          779 2.7173554e-13 7.5200874e-14          0.1 0.0090045611    11.676932  0.029892273 
number of iterations: 1819 
   13600    42.757727     1078          275          803 2.7533663e-13 7.7211243e-14          0.1 0.0090046259    11.840603  0.029892161 
number of iterations: 1760 
   13700    42.956582     1108          278          830 2.7898544e-13 7.9282198e-14          0.1 0.0090046788    12.005638  0.029892069 
number of iterations: 1777 
   13800    43.160382     1133          279          854 2.8268261e-13 8.1415635e-14          0.1 0.0090047411    12.172028  0.029891961 
number of iterations: 1751 
   13900    43.397768     1169          283          886 2.8642876e-13 8.3613515e-14          0.1 0.0090048031    12.339766  0.029891854 
number of iterations: 1732 
   14000    43.579577     1198          284          914 2.9022457e-13 8.587784e-14          0.1  0.009004854     12.50884  0.029891764 
number of iterations: 1796 
   14100    43.802449     1224          289          935 2.9407068e-13 8.821069e-14          0.1 0.0090049233     12.67924  0.029891644 
number of iterations: 1824 
   14200    44.072047     1245          294          951 2.9796775e-13 9.0614203e-14          0.1 0.0090049915    12.850956  0.029891526 
number of iterations: 1862 
   14300    44.280587     1274          300          974 3.0191647e-13 9.3090625e-14          0.1 0.0090050578    13.023972  0.029891411 
number of iterations: 1777 
   14400    44.483604     1294          305          989 3.0591752e-13 9.5642242e-14          0.1 0.0090051132    13.198276  0.029891313 
number of iterations: 1812 
   14500    44.693259     1328          310         1018 3.0997159e-13 9.8271422e-14          0.1 0.0090051808    13.373852  0.029891196 
number of iterations: 1779 
   14600    44.901247     1365          312         1053 3.1407939e-13 1.0098056e-13          0.1 0.0090052476    13.550683  0.029891079 
number of iterations: 1768 
   14700    45.095501     1401          315         1086 3.1824162e-13 1.0377221e-13          0.1 0.0090053116    13.728751  0.029890967 
number of iterations: 1871 
   14800    45.365821     1438          319         1119 3.2245901e-13 1.0664894e-13          0.1 0.0090053887    13.908038  0.029890833 
number of iterations: 1799 
   14900    45.574709     1473          323         1150 3.2673229e-13 1.0961345e-13          0.1 0.0090054626    14.088522  0.029890704 
number of iterations: 1776 
   15000    45.776688     1511          328         1183 3.310622e-13 1.1266852e-13          0.1 0.0090055249     14.27018  0.029890594 
number of iterations: 1778 
   15100    45.970606     1553          337         1216 3.354495e-13 1.1581696e-13          0.1 0.0090055726     14.45299  0.029890508 
number of iterations: 1811 
   15200    46.180455     1582          339         1243 3.3989493e-13 1.1906173e-13          0.1 0.0090056416    14.636926  0.029890387 
number of iterations: 1861 
   15300    46.387042     1617          344         1273 3.4439927e-13 1.2240588e-13          0.1 0.0090057288    14.821961  0.029890235 
number of iterations: 1852 
   15400    46.618735     1657          350         1307 3.4896331e-13 1.2585255e-13          0.1 0.0090058017    15.008068  0.029890107 
number of iterations: 1851 
   15500    46.823779     1694          351         1343 3.5358783e-13 1.2940498e-13          0.1 0.0090058731    15.195215  0.029889981 
number of iterations: 1797 
   15600     47.03757     1729          354         1375 3.5827363e-13 1.330665e-13          0.1 0.0090059437     15.38337  0.029889856 
number of iterations: 1862 
   15700    47.286138     1783          357         1426 3.6302153e-13 1.3684056e-13          0.1 0.0090060226    15.572498  0.029889717 
number of iterations: 1830 
   15800    47.498191     1835          364         1471 3.6783235e-13 1.4073072e-13          0.1 0.0090060998    15.762563  0.029889581 
number of iterations: 1820 
   15900    47.705282     1885          371         1514 3.7270693e-13 1.4474064e-13          0.1 0.0090061653    15.953528  0.029889463 
number of iterations: 1793 
   16000     47.92259     1938          377         1561 3.776461e-13 1.4887405e-13          0.1 0.0090062341    16.145352  0.029889341 
number of iterations: 1843 
   16100      48.1413     1978          377         1601 3.8265073e-13 1.5313488e-13          0.1 0.0090063172    16.337994  0.029889194 
number of iterations: 1840 
   16200    48.364869     2019          381         1638 3.8772168e-13 1.575272e-13          0.1 0.0090064031    16.531407  0.029889042 
number of iterations: 1824 
   16300    48.559633     2079          388         1691 3.9285983e-13 1.6205514e-13          0.1  0.009006478    16.725545  0.029888908 
number of iterations: 1912 
   16400    48.799066     2140          391         1749 3.9806607e-13  1.66723e-13          0.1  0.009006568    16.920358  0.029888749 
number of iterations: 1826 
   16500     49.16502     2195          395         1800 4.033413e-13 1.7153518e-13          0.1 0.0090066487    17.115793  0.029888605 
number of iterations: 1822 
   16600    49.388799     2262          401         1861 4.0868645e-13 1.7649621e-13          0.1  0.009006725    17.311797  0.029888468 
number of iterations: 1856 
   16700    49.635315     2312          406         1906 4.1410242e-13 1.8161085e-13          0.1 0.0090068149    17.508311  0.029888308 
number of iterations: 1835 
   16800    49.864639     2359          408         1951 4.1959017e-13 1.8688395e-13          0.1 0.0090068982    17.705275  0.029888158 
number of iterations: 1840 
   16900    50.085581     2415          413         2002 4.2515065e-13 1.9232054e-13          0.1 0.0090069801    17.902626  0.029888011 
number of iterations: 1879 
   17000    50.321058     2475          418         2057 4.3078481e-13 1.9792575e-13          0.1 0.0090070656    18.100296  0.029887857 
number of iterations: 1859 
   17100    50.561526     2538          423         2115 4.3649364e-13 2.0370492e-13          0.1 0.0090071545    18.298219  0.029887697 
number of iterations: 1786 
   17200    50.812032     2599          429         2170 4.4227812e-13 2.0966357e-13          0.1 0.0090072258    18.496319  0.029887567 
number of iterations: 1865 
   17300     51.04849     2675          434         2241 4.4813926e-13 2.1580738e-13          0.1 0.0090073242    18.694522  0.029887391 
number of iterations: 1872 
   17400    51.284456     2747          437         2310 4.5407807e-13 2.221422e-13          0.1 0.0090074187    18.892746  0.029887221 
number of iterations: 1918 
   17500    51.527091     2822          446         2376 4.6009558e-13 2.2867394e-13          0.1 0.0090075053    19.090911  0.029887063 
number of iterations: 1889 
   17600    51.744267     2902          452         2450 4.6619283e-13 2.3540895e-13          0.1 0.0090075958    19.288928  0.029886898 
number of iterations: 1893 
   17700    51.973196     2979          460         2519 4.7237089e-13 2.4235369e-13          0.1 0.0090076896    19.486707  0.029886728 
number of iterations: 1851 
   17800    52.201129     3072          466         2606 4.7863082e-13 2.4951477e-13          0.1 0.0090077697    19.684153   0.02988658 
number of iterations: 1868 
   17900    52.418896     3158          474         2684 4.8497371e-13 2.5689902e-13          0.1 0.0090078623    19.881167  0.029886411 
number of iterations: 1848 
   18000    52.646584     3244          481         2763 4.9140065e-13 2.6451343e-13          0.1 0.0090079448    20.077645  0.029886258 
number of iterations: 1915 
   18100     52.86863     3331          491         2840 4.9791276e-13 2.7223857e-13          0.1 0.0090080368    20.273568  0.029886089 
number of iterations: 1850 
   18200    53.110788     3433          500         2933 5.0451118e-13 2.8033157e-13          0.1 0.0090081266    20.468739  0.029885923 
number of iterations: 1930 
   18300    53.358009     3531          507         3024 5.1119703e-13 2.8867713e-13          0.1 0.0090082318    20.663042  0.029885731 
number of iterations: 1897 
   18400    53.624614     3626          510         3116 5.1797149e-13 2.972832e-13          0.1 0.0090083346    20.856355  0.029885543 
number of iterations: 1863 
   18500     53.87097     3735          521         3214 5.2483572e-13 3.0615791e-13          0.1 0.0090084158    21.048553  0.029885389 
number of iterations: 1938 
   18600    54.126575     3830          525         3305 5.3179092e-13 3.1517368e-13          0.1 0.0090085211    21.239597  0.029885196 
number of iterations: 1879 
   18700    54.364622     3936          534         3402 5.3883829e-13 3.2460734e-13          0.1 0.0090086153    21.429259   0.02988502 
number of iterations: 1857 
   18800    54.611225     4045          543         3502 5.4597905e-13 3.3421776e-13          0.1 0.0090086954    21.617478  0.029884866 
number of iterations: 1897 
   18900    54.850153     4148          549         3599 5.5321444e-13 3.441455e-13          0.1 0.0090087872      21.8041  0.029884694 
number of iterations: 1932 
   19000    55.090029     4265          555         3710 5.6054572e-13 3.5448476e-13          0.1 0.0090088996      21.9889  0.029884485 
number of iterations: 1949 
   19100    55.362003     4380          561         3819 5.6797415e-13 3.651472e-13          0.1 0.0090090012    22.171721  0.029884294 
number of iterations: 1882 
   19200    55.604397     4482          569         3913 5.7550102e-13 3.7614299e-13          0.1 0.0090090928    22.352397   0.02988412 
number of iterations: 1926 
   19300    55.848702     4611          575         4036 5.8312764e-13 3.8748246e-13          0.1 0.0090091977    22.530755  0.029883922 
number of iterations: 1960 
   19400    56.074386     4728          585         4143 5.9085532e-13 3.9917648e-13          0.1 0.0090093057    22.706618  0.029883719 
number of iterations: 1843 
   19500    56.305736     4840          592         4248 5.9868542e-13 4.1123602e-13          0.1  0.009009393      22.8798  0.029883549 
number of iterations: 1935 
   19600    56.565313     4983          598         4385 6.0661928e-13 4.2367254e-13          0.1 0.0090094949    23.050108  0.029883353 
number of iterations: 1943 
   19700    56.833785     5123          605         4518 6.1465828e-13 4.3649769e-13          0.1  0.009009616    23.217344  0.029883126 
number of iterations: 1938 
   19800    57.092483     5269          617         4652 6.2280381e-13 4.4972363e-13          0.1 0.0090097204    23.381302  0.029882926 
number of iterations: 1958 
   19900    57.340235     5438          628         4810 6.3105729e-13 4.6336286e-13          0.1 0.0090098513    23.541766   0.02988268 
number of iterations: 1912 
   20000    57.588979     5620          637         4983 6.3942014e-13 4.7716472e-13          0.1 0.0090099548      23.6987   0.02988248 
number of iterations: 1966 
   20100    57.850456     5753          647         5106 6.4789382e-13 4.9166118e-13          0.1 0.0090100859    23.851695  0.029882232 
number of iterations: 1977 
   20200    58.126598     5903          651         5252 6.564798e-13 5.0648817e-13          0.1 0.0090101952    24.000598  0.029882019 
number of iterations: 1923 
   20300    58.414608     6082          654         5428 6.6517955e-13 5.2190006e-13          0.1 0.0090103079    24.145082    0.0298818 
number of iterations: 1937 
   20400    58.665596     6275          668         5607 6.7399459e-13 5.3779278e-13          0.1  0.009010429    24.284891  0.029881566 
number of iterations: 1929 
   20500    58.905768     6466          676         5790 6.8292646e-13 5.5407177e-13          0.1 0.0090105452    24.419838  0.029881339 
number of iterations: 1969 
   20600    59.174189     6674          689         5985 6.9197668e-13 5.7088792e-13          0.1 0.0090106694    24.549633  0.029881098 
number of iterations: 1964 
   20700    59.451802     6872          699         6173 7.0114684e-13 5.882016e-13          0.1  0.009010795    24.674014  0.029880854 
number of iterations: 1965 
   20800     59.72847     7061          709         6352 7.1043853e-13 6.0580854e-13          0.1 0.0090109401    24.792866  0.029880577 
number of iterations: 1916 
   20900      60.0462     7260          718         6542 7.1985334e-13 6.242359e-13          0.1 0.0090110506    24.905703  0.029880355 
number of iterations: 1981 
   21000    60.309655     7466          720         6746 7.2939293e-13 6.4331571e-13          0.1 0.0090111747    25.012163  0.029880109 
number of iterations: 1942 
   21100    60.601592     7672          730         6942 7.3905893e-13 6.6250351e-13          0.1 0.0090112999    25.112265  0.029879861 
number of iterations: 1999 
   21200    60.924571     7867          736         7131 7.4885302e-13 6.8242732e-13          0.1 0.0090114203    25.205593   0.02987962 
number of iterations: 1966 
   21300    61.187559     8101          743         7358 7.5877691e-13 7.0331439e-13          0.1 0.0090115504     25.29157  0.029879361 
number of iterations: 1986 
   21400    61.455894     8337          753         7584 7.6883231e-13 7.2458174e-13          0.1 0.0090116803    25.370032  0.029879102 
number of iterations: 2012 
   21500     61.77104     8542          757         7785 7.7902096e-13 7.4641723e-13          0.1 0.0090118169    25.440689  0.029878831 
number of iterations: 2021 
   21600    62.063079     8794          771         8023 7.8934464e-13 7.6928581e-13          0.1 0.0090119713    25.502924  0.029878529 
number of iterations: 1971 
   21700    62.355323     9043          780         8263 7.9980512e-13 7.9277145e-13          0.1 0.0090121035    25.556417  0.029878262 
number of iterations: 2028 
   21800     62.65404     9306          789         8517 8.1040422e-13 8.1707076e-13          0.1 0.0090122494    25.600714  0.029877969 
number of iterations: 1993 
   21900    62.970129     9577          800         8777 8.2114379e-13 8.4180271e-13          0.1 0.0090123704    25.635633  0.029877717 
number of iterations: 1972 
   22000    63.263253     9847          811         9036 8.3202568e-13 8.6748318e-13          0.1 0.0090124801    25.660634  0.029877483 
number of iterations: 1954 
   22100    63.578888    10128          821         9307 8.4305177e-13 8.9359783e-13          0.1 0.0090126205     25.67554  0.029877197 
number of iterations: 1927 
   22200    63.900389    10428          838         9590 8.5422398e-13 9.207049e-13          0.1 0.0090127241    25.679789  0.029876969 
number of iterations: 2005 
   22300    64.214537    10718          852         9866 8.6554425e-13 9.4814398e-13          0.1 0.0090128691    25.673291  0.029876674 
number of iterations: 2008 
   22400    64.536042    11042          867        10175 8.7701453e-13 9.7712802e-13          0.1 0.0090130146    25.655098  0.029876372 
number of iterations: 2034 
   22500    64.853993    11358          875        10483 8.8863682e-13 1.0068691e-12          0.1 0.0090131746    25.624832  0.029876046 
number of iterations: 1992 
   22600    65.154323    11655          886        10769 9.0041312e-13 1.0373912e-12          0.1 0.0090133005    25.582101  0.029875776 
number of iterations: 2021 
   22700    65.460084    11984          898        11086 9.1234549e-13 1.0686861e-12          0.1 0.0090134343    25.526529   0.02987549 
number of iterations: 2060 
   22800    65.789117    12361          907        11454 9.2443598e-13 1.1009569e-12          0.1 0.0090135987    25.457605  0.029875153 
number of iterations: 1963 
   22900    66.112006    12724          920        11804 9.3541967e-13 1.1338327e-12          0.1 0.0090136869    25.374113  0.029874941 
number of iterations: 2008 
   23000    66.478349    13102          931        12171 9.4689684e-13 1.167996e-12          0.1 0.0090138104    25.275595  0.029874669 
number of iterations: 2006 
   23100    66.827732    13485          940        12545 9.594452e-13 1.203155e-12          0.1 0.0090139623     25.16225  0.029874347 
number of iterations: 1995 
   23200    67.159041    13882          954        12928 9.7124159e-13 1.2394573e-12          0.1 0.0090140663    25.032782  0.029874102 
number of iterations: 2054 
   23300    67.501698    14344          965        13379 9.8312924e-13 1.2767573e-12          0.1 0.0090142127    24.886658  0.029873787 
number of iterations: 2023 
   23400    67.849528    14771          975        13796 9.9615776e-13 1.314976e-12          0.1 0.0090143516    24.724221  0.029873483 
number of iterations: 2036 
   23500    68.239378    15177          991        14186 1.0093589e-12 1.3538371e-12          0.1 0.0090145215    24.545272  0.029873125 
number of iterations: 2026 
   23600    68.610485    15582         1000        14582 1.022735e-12 1.394265e-12          0.1  0.009014683    24.348979   0.02987278 
number of iterations: 2000 
   23700    68.969859    16023         1011        15012 1.0362884e-12 1.4357544e-12          0.1 0.0090148216    24.134884   0.02987247 
number of iterations: 2039 
   23800    69.342728    16469         1025        15444 1.0492166e-12 1.4782575e-12          0.1 0.0090149648    23.901962  0.029872151 
number of iterations: 2027 
   23900    69.741996    16906         1036        15870 1.0620846e-12 1.5215297e-12          0.1 0.0090151223    23.649818  0.029871805 
number of iterations: 2017 
   24000    70.120479    17424         1050        16374 1.0761595e-12 1.5667617e-12          0.1 0.0090152703    23.378215  0.029871475 
number of iterations: 2050 
   24100    70.503683    17916         1075        16841 1.0904208e-12  1.61311e-12          0.1 0.0090154031    23.086751  0.029871166 
number of iterations: 2055 
   24200    70.913722    18438         1093        17345 1.1048712e-12 1.6610634e-12          0.1  0.009015551    22.774711   0.02987083 
number of iterations: 2038 
   24300    71.291899    18965         1105        17860 1.1181748e-12 1.7096969e-12          0.1 0.0090156919    22.441034  0.029870505 
number of iterations: 2037 
   24400    71.706144    19505         1124        18381 1.131995e-12 1.760138e-12          0.1 0.0090158303    22.085188  0.029870183 
number of iterations: 2062 
   24500    72.105005    20018         1138        18880 1.1462277e-12 1.8119437e-12          0.1 0.0090159658    21.706917  0.029869862 
number of iterations: 2059 
   24600     72.53133    20580         1158        19422 1.1614176e-12 1.8645013e-12          0.1 0.0090161285    21.306848  0.029869495 
number of iterations: 2066 
   24700    72.955565    21150         1174        19976 1.1768088e-12 1.9192674e-12          0.1 0.0090163132    20.884065  0.029869092 
number of iterations: 2002 
   24800     73.38483    21739         1189        20550 1.1913813e-12 1.9748226e-12          0.1  0.009016425    20.437923  0.029868807 
number of iterations: 2007 
   24900    73.861346    22332         1201        21131 1.2059213e-12 2.0307526e-12          0.1 0.0090165555    19.968721  0.029868495 
number of iterations: 2032 
   25000    74.314133    22965         1210        21755 1.2219022e-12 2.0889453e-12          0.1  0.009016718    19.476668  0.029868124 
number of iterations: 2032 
   25100    74.776653    23661         1224        22437 1.2370713e-12 2.1472651e-12          0.1 0.0090168723    18.961788  0.029867773 
number of iterations: 2083 
   25200    75.287385    24304         1245        23059 1.253465e-12 2.2071976e-12          0.1 0.0090170447    18.424744  0.029867387 
number of iterations: 2073 
   25300    75.751814    25000         1261        23739 1.2692172e-12 2.2690752e-12          0.1 0.0090172208     17.86465  0.029866994 
number of iterations: 2088 
   25400    76.269337    25709         1273        24436 1.2847231e-12 2.332898e-12          0.1 0.0090173827    17.281067  0.029866622 
number of iterations: 2072 
   25500    76.759604    26371         1293        25078 1.3017484e-12 2.3969137e-12          0.1 0.0090175386    16.676253  0.029866267 
number of iterations: 2069 
   25600    77.271594    27107         1309        25798 1.3189992e-12 2.4631728e-12          0.1 0.0090177246    16.050238   0.02986586 
number of iterations: 2125 
   25700    77.769093    27804         1331        26473 1.3364787e-12 2.5305224e-12          0.1 0.0090179405    15.404029  0.029865406 
number of iterations: 2096 
   25800    78.303613    28501         1345        27156 1.3541898e-12 2.5978321e-12          0.1 0.0090181362    14.739599  0.029864989 
number of iterations: 2061 
   25900     78.84734    29270         1360        27910 1.3721356e-12 2.6668987e-12          0.1  0.009018327    14.057973  0.029864582 
number of iterations: 2084 
   26000    79.371419    30005         1373        28632 1.3893033e-12 2.7367097e-12          0.1 0.0090185305    13.360353  0.029864161 
number of iterations: 2053 
   26100    79.903169    30772         1386        29386 1.4062667e-12 2.8068117e-12          0.1 0.0090186939    12.649017  0.029863813 
number of iterations: 2068 
   26200    80.455256    31593         1404        30189 1.4249026e-12 2.8793591e-12          0.1 0.0090189179     11.92669  0.029863365 
number of iterations: 2098 
   26300    81.065443    32382         1426        30956 1.4437855e-12 2.9515201e-12          0.1 0.0090191001    11.197232     0.029863 
number of iterations: 2069 
   26400     81.64674    33224         1443        31781 1.4629186e-12 3.0240373e-12          0.1 0.0090193225    10.464476  0.029862576 
number of iterations: 2115 
   26500    82.245394    34012         1465        32547 1.4823053e-12 3.0963132e-12          0.1 0.0090195644    9.7331312   0.02986213 
number of iterations: 2104 
   26600    82.848141    34774         1478        33296 1.4985103e-12 3.1697126e-12          0.1 0.0090198418    9.0049695  0.029861638 
number of iterations: 2128 
   26700    83.477365    35535         1500        34035 1.5183686e-12 3.2421258e-12          0.1 0.0090201523    8.2890327  0.029861108 
number of iterations: 2191 
   26800    84.144407    36300         1514        34786 1.5377329e-12 3.3148276e-12          0.1 0.0090204397    7.5908152  0.029860633 
number of iterations: 2283 
   26900    84.792932    37010         1533        35477 1.558111e-12 3.3848764e-12          0.1 0.0090207824     6.919161  0.029860088 
number of iterations: 2383 
   27000    85.469986    37821         1548        36273 1.5777351e-12 3.4550573e-12          0.1 0.0090211479    6.2801254  0.029859524 
number of iterations: 2492 
   27100    86.136407    38552         1566        36986 1.5979539e-12 3.5230989e-12          0.1  0.009021508    5.6821569  0.029858991 
number of iterations: 2607 
   27200    86.849599    39354         1590        37764 1.618159e-12 3.5890639e-12          0.1 0.0090219321    5.1326458   0.02985837 
number of iterations: 2724 
   27300    87.565151    40098         1609        38489 1.638605e-12 3.6535184e-12          0.1 0.0090223412    4.6378589  0.029857793 
number of iterations: 2841 
   27400    88.384784    40825         1636        39189 1.6595315e-12 3.7162936e-12          0.1 0.0090227893    4.2026848   0.02985716 
number of iterations: 2954 
   27500    89.133707    41549         1654        39895 1.6815236e-12 3.7762063e-12          0.1 0.0090232243    3.8307039  0.029856559 
number of iterations: 3061 
   27600    89.936119    42260         1676        40584 1.7030431e-12 3.835728e-12          0.1 0.0090236611    3.5202939  0.029855951 
number of iterations: 3158 
   27700    90.731624    42902         1698        41204 1.7245533e-12 3.8931295e-12          0.1 0.0090241292    3.2684709  0.029855284 
number of iterations: 3249 
   27800    91.548168    43564         1717        41847 1.7474072e-12 3.9489646e-12          0.1 0.0090245303    3.0707208  0.029854716 
number of iterations: 3326 
   27900    92.356803    44191         1731        42460 1.7705639e-12 4.0053842e-12          0.1 0.0090249935    2.9190981  0.029854019 
number of iterations: 3394 
   28000    93.207462    44770         1748        43022 1.7940274e-12 4.0599447e-12          0.1 0.0090254349    2.8061856  0.029853336 
number of iterations: 3454 
   28100    94.079372    45394         1771        43623 1.8169599e-12 4.1155151e-12          0.1  0.009025842    2.7229545  0.029852688 
number of iterations: 3500 
   28200    94.931428    46011         1794        44217 1.8410383e-12 4.1704995e-12          0.1 0.0090262133    2.6634922  0.029852081 
number of iterations: 3540 
   28300    95.795435    46665         1824        44841 1.8643273e-12 4.2250414e-12          0.1 0.0090266492     2.621184  0.029851348 
number of iterations: 3569 
   28400    96.683585    47253         1847        45406 1.8881364e-12 4.2804626e-12          0.1     0.009027    2.5914089  0.029850745 
number of iterations: 3597 
   28500    97.559431    47862         1874        45988 1.913158e-12 4.3352237e-12          0.1 0.0090273748    2.5717229  0.029850093 
number of iterations: 3622 
   28600    98.453481    48447         1897        46550 1.9374976e-12 4.3927639e-12          0.1 0.0090277201    2.5575802  0.029849478 
number of iterations: 3640 
   28700     99.38713    49092         1917        47175 1.9617978e-12 4.4504728e-12          0.1  0.009028102    2.5472026  0.029848799 
number of iterations: 3658 
   28800    100.30881    49696         1948        47748 1.9855016e-12 4.5083098e-12          0.1 0.0090284744    2.5389166  0.029848131 
number of iterations: 3670 
   28900    101.29233    50312         1984        48328 2.0096702e-12 4.5650255e-12          0.1 0.0090288124    2.5328319   0.02984752 
number of iterations: 3682 
   29000    102.21403    50972         2005        48967 2.0354524e-12 4.6226215e-12          0.1 0.0090291667    2.5291837  0.029846879 
number of iterations: 3695 
   29100     103.1036    51621         2031        49590 2.0624262e-12 4.6808795e-12          0.1 0.0090294903    2.5278366  0.029846286 
number of iterations: 3711 
   29200    104.03629    52302         2063        50239 2.0888929e-12 4.7406409e-12          0.1 0.0090298462    2.5270716  0.029845635 
number of iterations: 3722 
   29300    104.96385    52998         2085        50913 2.114451e-12 4.8011666e-12          0.1 0.0090302208    2.5257208  0.029844954 
number of iterations: 3725 
   29400    105.90898    53698         2117        51581 2.1418344e-12 4.8626121e-12          0.1 0.0090305935    2.5251073  0.029844274 
number of iterations: 3740 
   29500    106.85228    54403         2142        52261 2.170218e-12 4.9243045e-12          0.1 0.0090309838    2.5256528  0.029843564 
number of iterations: 3753 
   29600    107.79399    55117         2180        52937 2.1981358e-12 4.9877056e-12          0.1 0.0090313732    2.5259695  0.029842853 
number of iterations: 3765 
   29700    108.76228    55850         2198        53652 2.2241573e-12 5.0508519e-12          0.1 0.0090317794    2.5247601  0.029842114 
number of iterations: 3775 
   29800    109.72689    56524         2228        54296 2.2536318e-12 5.1141049e-12          0.1 0.0090321824    2.5252663  0.029841383 
number of iterations: 3788 
   29900    110.74535    57235         2260        54975 2.2826592e-12 5.1801888e-12          0.1 0.0090325808    2.5254966  0.029840651 
number of iterations: 3807 
   30000    111.72249    57960         2297        55663 2.3129089e-12 5.2468965e-12          0.1 0.0090330042    2.5262914   0.02983988 
number of iterations: 3821 
   30100    112.68855    58670         2330        56340 2.3426281e-12 5.3130944e-12          0.1 0.0090333694    2.5271776  0.029839208 
number of iterations: 3830 
   30200    113.68428    59436         2352        57084 2.372819e-12 5.3813755e-12          0.1 0.0090337756    2.5277627  0.029838461 
number of iterations: 3842 
   30300    114.70917    60147         2379        57768 2.4028001e-12 5.4498647e-12          0.1 0.0090342003    2.5279324  0.029837687 
number of iterations: 3855 
   30400    115.72337    60966         2405        58561 2.433759e-12 5.5184809e-12          0.1 0.0090345866    2.5285724  0.029836977 
number of iterations: 3862 
   30500     116.7504    61727         2451        59276 2.4660111e-12 5.5881598e-12          0.1 0.0090350904    2.5301102  0.029836068 
number of iterations: 3874 
   30600    117.79302    62468         2478        59990 2.4949534e-12 5.6578651e-12          0.1 0.0090354578    2.5295755  0.029835386 
number of iterations: 3897 
   30700    118.83457    63273         2506        60767 2.5267689e-12 5.7308382e-12          0.1 0.0090358971    2.5289861  0.029834583 
number of iterations: 3907 
   30800    119.87364    64086         2531        61555 2.556698e-12 5.8040372e-12          0.1 0.0090362725    2.5268386  0.029833887 
number of iterations: 3918 
   30900    120.94884    64884         2565        62319 2.588542e-12 5.8759367e-12          0.1 0.0090367108    2.5257767  0.029833092 
number of iterations: 3917 
   31000    122.01665    65674         2603        63071 2.6204701e-12 5.9480721e-12          0.1 0.0090372237     2.525298  0.029832167 
number of iterations: 3930 
   31100    123.05508    66522         2636        63886 2.6528705e-12 6.0235478e-12          0.1 0.0090375993     2.524375  0.029831467 
number of iterations: 3933 
   31200    124.12898    67335         2659        64676 2.6841675e-12 6.099027e-12          0.1  0.009038019    2.5223681  0.029830695 
number of iterations: 3946 
   31300    125.21703    68197         2690        65507 2.717381e-12 6.175231e-12          0.1 0.0090384756    2.5210474  0.029829862 
number of iterations: 3954 
   31400    126.28755    69100         2722        66378 2.7521293e-12 6.2537212e-12          0.1 0.0090389725    2.5205091  0.029828959 
number of iterations: 3955 
   31500    127.37431    69927         2754        67173 2.7849487e-12 6.3308802e-12          0.1 0.0090394029    2.5193442  0.029828167 
number of iterations: 3965 
   31600    128.52744    70770         2787        67983 2.8218547e-12 6.4091111e-12          0.1 0.0090399129      2.52067  0.029827242 
number of iterations: 3978 
   31700    129.71965    71624         2812        68812 2.8583241e-12 6.4900575e-12          0.1 0.0090404305    2.5219711    0.0298263 
number of iterations: 3993 
   31800    130.84089    72573         2849        69724 2.892832e-12 6.5729922e-12          0.1 0.0090408734     2.521048  0.029825478 
number of iterations: 3998 
   31900    131.96545    73416         2875        70541 2.9254595e-12 6.653329e-12          0.1 0.0090412338    2.5184748  0.029824801 
number of iterations: 4020 
   32000    133.12161    74278         2910        71368 2.9642274e-12 6.7363562e-12          0.1 0.0090417101    2.5189738   0.02982393 
number of iterations: 4023 
   32100    134.28552    75266         2959        72307 3.0004696e-12 6.8213105e-12          0.1 0.0090422163     2.518317  0.029823004 
number of iterations: 4032 
   32200    135.47326    76223         2992        73231 3.0356209e-12 6.905642e-12          0.1 0.0090426824    2.5164917  0.029822147 
number of iterations: 4042 
   32300    136.61124    77175         3031        74144 3.0728479e-12 6.9919663e-12          0.1 0.0090431378    2.5150754  0.029821307 
number of iterations: 4056 
   32400    137.76383    78062         3065        74997 3.109333e-12 7.0790186e-12          0.1 0.0090436768    2.5130407  0.029820327 
number of iterations: 4057 
   32500    138.91345    79010         3096        75914 3.1444572e-12 7.1660917e-12          0.1 0.0090441431     2.509699  0.029819468 
number of iterations: 4060 
   32600    140.08235    79988         3136        76852 3.1779486e-12 7.2548953e-12          0.1 0.0090446516    2.5039667  0.029818539 
number of iterations: 4062 
   32700    141.28007    80965         3176        77789 3.2148851e-12 7.3428888e-12          0.1 0.0090452152    2.5002177  0.029817525 
number of iterations: 4066 
   32800    142.49206    81946         3208        78738 3.2519331e-12 7.434392e-12          0.1 0.0090456576    2.4962746  0.029816706 
number of iterations: 4070 
   32900    143.73072    82970         3238        79732 3.2872799e-12 7.5278022e-12          0.1 0.0090460585    2.4903434  0.029815954 
number of iterations: 4075 
   33000    144.96017    83996         3277        80719 3.3243584e-12 7.6214307e-12          0.1 0.0090465425    2.4849518  0.029815067 
number of iterations: 4074 
   33100    146.14674    85014         3315        81699 3.3630116e-12 7.7125774e-12          0.1  0.009047069     2.481925  0.029814113 
number of iterations: 4086 
   33200    147.37501    86093         3349        82744 3.401805e-12 7.805702e-12          0.1 0.0090475818      2.47932  0.029813172 
number of iterations: 4095 
   33300    148.58622    87152         3386        83766 3.4444683e-12 7.8995945e-12          0.1 0.0090480774    2.4796608  0.029812261 
number of iterations: 4095 
   33400    149.82078    88215         3416        84799 3.4866362e-12 7.9960234e-12          0.1 0.0090486481    2.4798648  0.029811216 
number of iterations: 4097 
   33500     151.0726    89294         3457        85837 3.5223999e-12 8.0925458e-12          0.1 0.0090490667    2.4750198  0.029810425 
number of iterations: 4088 
   33600    152.32325    90327         3498        86829 3.5580213e-12 8.190783e-12          0.1 0.0090494459    2.4677286  0.029809708 
number of iterations: 4098 
   33700    153.59673    91451         3538        87913 3.599321e-12 8.2888814e-12          0.1 0.0090499929    2.4641411  0.029808716 
number of iterations: 4099 
   33800    154.89705    92552         3577        88975 3.6401034e-12 8.3894005e-12          0.1 0.0090504964    2.4606734  0.029807787 
number of iterations: 4110 
   33900    156.19899    93696         3619        90077 3.6836333e-12 8.4913574e-12          0.1 0.0090510309    2.4589554  0.029806805 
number of iterations: 4111 
   34000    157.50492    94765         3664        91101 3.7239406e-12 8.594333e-12          0.1 0.0090515583    2.4549932  0.029805833 
number of iterations: 4115 
   34100    158.78149    95919         3703        92216 3.761911e-12 8.6995817e-12          0.1 0.0090519511     2.447807  0.029805083 
number of iterations: 4118 
   34200    160.07604    97044         3747        93297 3.8051366e-12 8.8020825e-12          0.1 0.0090524801    2.4447546  0.029804119 
number of iterations: 4122 
   34300    161.43683    98248         3783        94465 3.8452139e-12 8.9073024e-12          0.1 0.0090530246    2.4396357  0.029803117 
number of iterations: 4118 
   34400    162.75817    99468         3820        95648 3.8834301e-12 9.0128042e-12          0.1 0.0090536028     2.432462  0.029802063 
number of iterations: 4124 
   34500    164.09035   100642         3863        96779 3.9240092e-12 9.1177802e-12          0.1 0.0090540353    2.4268624  0.029801259 
number of iterations: 4130 
   34600    165.45454   101880         3901        97979 3.9674499e-12 9.2270377e-12          0.1 0.0090546421    2.4225784  0.029800156 
number of iterations: 4138 
   34700    166.81299   103061         3951        99110 4.0079927e-12 9.3354345e-12          0.1 0.0090551029    2.4167658  0.029799295 
number of iterations: 4146 
   34800    168.18708   104220         3986       100234 4.0497233e-12 9.4447642e-12          0.1 0.0090557045    2.4112771    0.0297982 
number of iterations: 4152 
   34900    169.57891   105477         4034       101443 4.0945949e-12 9.5569202e-12          0.1 0.0090563221    2.4074761  0.029797075 
number of iterations: 4154 
   35000    171.21066   106730         4083       102647 4.1404087e-12 9.6679711e-12          0.1 0.0090569979    2.4052298  0.029795854 
Loop time of 171.211 on 32 procs for 35000 steps with 106730 atoms

Performance: 176624463.065 tau/day, 204.426 timesteps/s
92.3% CPU use with 32 MPI tasks x no OpenMP threads

MPI task timing breakdown:
Section |  min time  |  avg time  |  max time  |%varavg| %total
---------------------------------------------------------------
Pair    | 0.3259     | 5.1349     | 14.18      | 143.7 |  3.00
Neigh   | 0.16572    | 1.6825     | 4.127      |  69.3 |  0.98
Comm    | 0.80462    | 1.5813     | 2.1118     |  23.7 |  0.92
Output  | 53.558     | 53.559     | 53.573     |   0.0 | 31.28
Modify  | 95.599     | 96.146     | 96.993     |   3.0 | 56.16
Other   |            | 13.11      |            |       |  7.66

Nlocal:    3335.31 ave 5726 max 805 min
Histogram: 2 3 2 2 4 7 4 4 3 1
Nghost:    1908.81 ave 2862 max 653 min
Histogram: 1 0 5 5 3 1 7 3 4 3
Neighs:    27588.5 ave 48142 max 5920 min
Histogram: 2 3 2 2 6 4 5 2 5 1

Total # of neighbors = 882833
Ave neighs/atom = 8.27165
Neighbor list builds = 802
Dangerous builds = 0
Total wall time: 0:02:51
