 NUFEB Simulation

     50 atoms 
     2 atom types 
     4 nutrients 

  0.0e-4   1.00e-04  xlo xhi 
  0.0e-4   1.00e-04  ylo yhi 
  0.0e-4   5.00e-05  zlo zhi 

 Atoms 

     1 1 1.91e-06  370 8.01e-05 8.70e-05 2.09e-05 1.91e-06 
     2 1 1.48e-06  370 8.59e-05 4.59e-05 1.24e-05 1.48e-06 
     3 1 1.74e-06  370 4.79e-05 7.78e-06 4.34e-06 1.74e-06 
     4 1 1.75e-06  370 7.37e-05 5.78e-05 3.79e-05 1.75e-06 
     5 1 1.89e-06  370 4.72e-05 3.67e-05 4.04e-06 1.89e-06 
     6 1 1.77e-06  370 9.51e-05 5.54e-05 1.75e-05 1.77e-06 
     7 1 1.55e-06  370 1.03e-05 8.49e-06 2.53e-05 1.55e-06 
     8 1 1.57e-06  370 3.24e-05 4.85e-05 2.21e-05 1.57e-06 
     9 1 1.64e-06  370 3.10e-05 3.74e-05 4.39e-05 1.64e-06 
     10 1 1.54e-06  370 6.94e-05 6.35e-05 3.62e-05 1.54e-06 
     11 1 1.56e-06  370 2.33e-05 1.11e-05 2.65e-05 1.56e-06 
     12 1 1.81e-06  370 3.35e-05 7.94e-05 3.14e-06 1.81e-06 
     13 1 1.90e-06  370 5.48e-05 4.26e-06 2.04e-05 1.90e-06 
     14 1 1.57e-06  370 8.63e-06 9.67e-05 4.64e-05 1.57e-06 
     15 1 1.75e-06  370 8.90e-05 5.12e-05 9.15e-06 1.75e-06 
     16 1 1.91e-06  370 2.24e-05 6.38e-05 2.51e-05 1.91e-06 
     17 1 1.66e-06  370 5.83e-05 7.12e-05 3.19e-05 1.66e-06 
     18 1 1.47e-06  370 8.26e-05 4.49e-05 2.75e-06 1.47e-06 
     19 1 1.50e-06  370 7.55e-05 6.87e-05 2.04e-05 1.50e-06 
     20 1 1.63e-06  370 8.93e-05 4.79e-05 4.63e-05 1.63e-06 
     21 1 1.82e-06  370 8.78e-05 1.16e-05 1.83e-05 1.82e-06 
     22 1 1.73e-06  370 5.88e-05 8.81e-05 4.15e-05 1.73e-06 
     23 1 1.68e-06  370 5.83e-05 8.26e-05 2.57e-05 1.68e-06 
     24 1 1.41e-06  370 7.97e-05 1.43e-05 3.59e-05 1.41e-06 
     25 1 1.91e-06  370 6.68e-05 3.11e-05 3.25e-05 1.91e-06 
     26 1 1.41e-06  370 4.81e-05 6.25e-06 1.95e-06 1.41e-06 
     27 1 1.90e-06  370 1.29e-05 6.49e-05 1.64e-05 1.90e-06 
     28 1 1.61e-06  370 7.88e-05 2.84e-05 4.28e-05 1.61e-06 
     29 1 1.60e-06  370 7.22e-06 2.24e-05 4.68e-05 1.60e-06 
     30 1 1.44e-06  370 8.19e-05 9.85e-05 1.53e-06 1.44e-06 
     31 1 1.42e-06  370 3.32e-05 7.86e-05 2.31e-05 1.42e-06 
     32 1 1.56e-06  370 7.18e-06 7.99e-05 4.09e-06 1.56e-06 
     33 1 1.45e-06  370 8.64e-05 2.86e-05 2.69e-05 1.45e-06 
     34 1 1.54e-06  370 8.17e-05 2.37e-05 1.44e-05 1.54e-06 
     35 1 1.66e-06  370 2.21e-05 4.15e-05 1.06e-05 1.66e-06 
     36 1 1.60e-06  370 6.41e-05 3.68e-05 2.95e-05 1.60e-06 
     37 1 1.51e-06  370 4.40e-05 6.55e-05 3.43e-05 1.51e-06 
     38 1 1.85e-06  370 7.98e-05 1.96e-05 4.07e-05 1.85e-06 
     39 1 1.50e-06  370 3.95e-05 6.24e-05 4.12e-05 1.50e-06 
     40 1 1.82e-06  370 5.23e-05 3.85e-05 1.64e-05 1.82e-06 
     41 1 1.42e-06  370 2.18e-05 3.77e-05 2.30e-05 1.42e-06 
     42 1 1.67e-06  370 7.06e-05 3.03e-05 3.24e-05 1.67e-06 
     43 1 1.68e-06  370 6.25e-05 5.32e-06 3.57e-05 1.68e-06 
     44 1 1.77e-06  370 3.33e-05 6.63e-05 4.54e-05 1.77e-06 
     45 1 1.85e-06  370 7.83e-05 7.00e-05 1.00e-05 1.85e-06 
     46 1 1.52e-06  370 3.01e-05 5.89e-06 4.57e-05 1.52e-06 
     47 1 1.38e-06  370 1.08e-05 5.38e-05 3.16e-05 1.38e-06 
     48 1 1.91e-06  370 1.62e-05 2.62e-05 2.52e-05 1.91e-06 
     49 1 1.83e-06  370 9.31e-05 5.05e-05 3.92e-05 1.83e-06 
     50 1 1.58e-06  370 5.54e-05 3.64e-05 4.11e-05 1.58e-06 

 Nutrients 

     1 sub g nn nn nn 1.00e-01 1.00e-01 
     2 o2 l nn nn nd 9.00e-03 9.00e-03 
     3 suc l nn nn nn 3.42e-20 3.42e-20 
     4 co2 l nn nn nd 2.99e-02 2.99e-02 

 Type Name 

     1 cyano  
     2 ecw  

 Diffusion Coeffs 

     sub 0 
     o2 2.3e-09 
     suc 5.2e-10 
     co2 1.9e-09 

 Growth Rate 

     cyano 2.047e-05 
     ecw 6.71e-05 

 Ks 

     cyano 0.00035 0.0002 0.01 0.000138 
     ecw 0 0.001 3.6 0.05 

 Yield 

     cyano 0.55 
     ecw 0.43 

 Maintenance 

     cyano 0 
     ecw 9.5e-07 

 Decay 

     cyano 0 
     ecw 0 



