LAMMPS (20 Nov 2019)
Reading data file ...
  orthogonal box = (0 0 0) to (0.0001 0.0001 1e-05)
  8 by 4 by 1 MPI processor grid
  reading atoms ...
  100 atoms
  4 nutrients
Lattice spacing in x,y,z = 100 100 100
50 atoms in group CYANO
50 atoms in group ECW
Model is defined as a closed system. 
Neighbor list info ...
  update every 1 steps, delay 0 steps, check yes
  max neighbors/atom: 5000, page size: 100000
  master list distance cutoff = 2.43e-06
  ghost atom cutoff = 2.43e-06
  binsize = 1.215e-06, bins = 83 83 9
  1 neighbor lists, perpetual/occasional/extra = 1 0 0
  (1) pair gran/hooke/history, perpetual
      attributes: half, newton off, size, history
      pair build: half/size/bin/newtoff
      stencil: half/bin/3d/newtoff
      bin: standard
Setting up Verlet run ...
  Unit style    : lj
  Current step  : 0
  Time step     : 10
Per MPI rank memory allocation (min/avg/max) = 6.792 | 10.35 | 12.11 Mbytes
Step CPU Atoms c_myNtypes[1] c_myNtypes[2] c_myMass[1] c_myMass[2] c_myCon[1] c_myCon[2] c_myCon[3] c_myCon[4] 
       0            0      100           50           50 4.4822419e-14 8.9649714e-15          0.1        0.009     3.42e-20       0.0299 
number of iterations: 325510 
     100    15.749403      134           50           84 4.5416415e-14 8.9581055e-15          0.1 0.0090007704  0.036016984  0.029898717 
number of iterations: 4592 
     200    16.144216      147           50           97 4.6018284e-14 8.9520045e-15          0.1 0.0090007806  0.071364069    0.0298987 
number of iterations: 2983 
     300    16.425091      147           50           97 4.6628128e-14 8.9466723e-15          0.1 0.0090007909   0.10715795  0.029898683 
number of iterations: 2387 
     400    16.702903      147           50           97 4.7246054e-14 8.9421019e-15          0.1 0.0090008013   0.14340754  0.029898665 
number of iterations: 2050 
     500    16.965249      148           51           97 4.7872169e-14 8.9382865e-15          0.1 0.0090008119   0.18011987  0.029898647 
number of iterations: 1820 
     600    17.201786      148           51           97 4.8506581e-14 8.9352197e-15          0.1 0.0090008226   0.21730173   0.02989863 
number of iterations: 1654 
     700    17.432079      149           52           97 4.9149401e-14 8.9328949e-15          0.1 0.0090008335   0.25495986  0.029898611 
number of iterations: 1524 
     800     17.66528      149           52           97 4.9800739e-14 8.9313066e-15          0.1 0.0090008445   0.29310103  0.029898593 
number of iterations: 1449 
     900    17.897353      151           54           97 5.046071e-14 8.9304492e-15          0.1 0.0090008556   0.33173213  0.029898574 
number of iterations: 1420 
    1000    18.131523      151           54           97 5.1129426e-14 8.9303171e-15          0.1  0.009000867   0.37085995  0.029898556 
number of iterations: 1423 
    1100     18.37217      152           55           97 5.1807004e-14 8.930905e-15          0.1 0.0090008784   0.41049147  0.029898536 
number of iterations: 1426 
    1200    18.585041      152           55           97 5.2493562e-14 8.9322078e-15          0.1   0.00900089   0.45063369  0.029898517 
number of iterations: 1415 
    1300    18.800501      153           56           97 5.3189218e-14 8.9342207e-15          0.1 0.0090009018   0.49129371  0.029898497 
number of iterations: 1431 
    1400     18.99065      153           56           97 5.3894093e-14 8.9369388e-15          0.1 0.0090009137   0.53247876  0.029898478 
number of iterations: 1449 
    1500     19.18308      154           57           97 5.4608309e-14 8.9403567e-15          0.1 0.0090009258   0.57419607  0.029898457 
number of iterations: 1436 
    1600    19.373327      155           58           97 5.533199e-14 8.9444708e-15          0.1  0.009000938    0.6164529  0.029898437 
number of iterations: 1436 
    1700     19.59308      156           59           97 5.6065261e-14 8.9492772e-15          0.1 0.0090009504    0.6592568  0.029898416 
number of iterations: 1436 
    1800    19.794671      158           61           97 5.680825e-14 8.9547715e-15          0.1  0.009000963   0.70261539  0.029898395 
number of iterations: 1444 
    1900    19.980942      158           61           97 5.7561085e-14  8.96095e-15          0.1 0.0090009757    0.7465363  0.029898374 
number of iterations: 1447 
    2000    20.185046      160           63           97 5.8323897e-14 8.9678088e-15          0.1 0.0090009886   0.79102728  0.029898352 
number of iterations: 1450 
    2100    20.377833      160           63           97 5.9096818e-14 8.9753444e-15          0.1 0.0090010017   0.83609617  0.029898331 
number of iterations: 1452 
    2200    20.570885      160           63           97 5.9879981e-14 8.9835535e-15          0.1  0.009001015   0.88175092  0.029898309 
number of iterations: 1541 
    2300    20.759447      160           63           97 6.0673524e-14 8.9924327e-15          0.1 0.0090010332   0.92799957  0.029898278 
number of iterations: 1459 
    2400    20.942868      160           63           97 6.1477582e-14 9.0019789e-15          0.1 0.0090010469   0.97485026  0.029898255 
number of iterations: 1456 
    2500    21.126306      162           65           97 6.2292296e-14 9.0121886e-15          0.1 0.0090010607    1.0223112  0.029898232 
number of iterations: 1464 
    2600    21.319556      162           65           97 6.3117807e-14 9.0230594e-15          0.1 0.0090010748    1.0703909  0.029898209 
number of iterations: 1467 
    2700    21.513604      163           66           97 6.3954257e-14 9.0345886e-15          0.1  0.009001089    1.1190976  0.029898185 
number of iterations: 1469 
    2800    21.697784      163           66           97 6.4801793e-14 9.0467736e-15          0.1 0.0090011034      1.16844  0.029898161 
number of iterations: 1472 
    2900    21.877242      165           68           97 6.566056e-14 9.059612e-15          0.1  0.009001118    1.2184268  0.029898137 
number of iterations: 1475 
    3000    22.073113      165           68           97 6.6530708e-14 9.0731015e-15          0.1 0.0090011328    1.2690667  0.029898112 
number of iterations: 1480 
    3100    22.259333      166           69           97 6.7412387e-14 9.087239e-15          0.1 0.0090011478    1.3203686  0.029898087 
number of iterations: 1480 
    3200    22.434614      166           69           97 6.830575e-14 9.1020233e-15          0.1  0.009001163    1.3723416  0.029898062 
number of iterations: 1482 
    3300    22.639997      168           71           97 6.9210952e-14 9.1174521e-15          0.1 0.0090011784    1.4249946  0.029898036 
number of iterations: 1486 
    3400    22.838405      168           71           97 7.012815e-14 9.1335239e-15          0.1  0.009001194    1.4783371   0.02989801 
number of iterations: 1489 
    3500    23.013829      168           71           97 7.1057503e-14 9.1502367e-15          0.1 0.0090012098    1.5323783  0.029897984 
number of iterations: 1491 
    3600    23.198657      168           71           97 7.1999172e-14 9.1675891e-15          0.1 0.0090012258    1.5871279  0.029897957 
number of iterations: 1486 
    3700    23.411047      169           72           97 7.295332e-14 9.185581e-15          0.1 0.0090012421    1.6425955   0.02989793 
number of iterations: 1517 
    3800    23.600414      170           73           97 7.3920113e-14 9.2042106e-15          0.1 0.0090012585    1.6987908  0.029897902 
number of iterations: 1484 
    3900     23.78223      172           74           98 7.4899717e-14 9.2234752e-15          0.1 0.0090012752    1.7557235  0.029897875 
number of iterations: 1502 
    4000    23.979179      173           74           99 7.5892304e-14 9.2433754e-15          0.1 0.0090012921    1.8134038  0.029897846 
number of iterations: 1505 
    4100    24.159618      174           74          100 7.6898045e-14 9.2639094e-15          0.1 0.0090013092    1.8718416  0.029897818 
number of iterations: 1508 
    4200    24.356176      177           75          102 7.7917114e-14 9.2850754e-15          0.1 0.0090013265    1.9310472  0.029897789 
number of iterations: 1511 
    4300    24.541279      177           75          102 7.8949687e-14 9.3068731e-15          0.1 0.0090013441    1.9910309   0.02989776 
number of iterations: 1509 
    4400    24.731483      178           76          102 7.9995945e-14 9.3293018e-15          0.1 0.0090013619    2.0518034   0.02989773 
number of iterations: 1516 
    4500    24.915178      178           76          102 8.1056068e-14 9.3523609e-15          0.1 0.0090013799    2.1133753    0.0298977 
number of iterations: 1512 
    4600    25.083682      180           78          102 8.213024e-14 9.3760495e-15          0.1 0.0090013982    2.1757575  0.029897669 
number of iterations: 1524 
    4700    25.255483      181           79          102 8.3218646e-14 9.4003682e-15          0.1 0.0090014167    2.2389608  0.029897639 
number of iterations: 1526 
    4800    25.432663      184           82          102 8.4321477e-14 9.4253156e-15          0.1 0.0090014355    2.3029964  0.029897607 
number of iterations: 1527 
    4900    25.614652      184           82          102 8.5438923e-14 9.4508916e-15          0.1 0.0090014545    2.3678754  0.029897576 
number of iterations: 1530 
    5000    25.831664      185           83          102 8.6571177e-14 9.477097e-15          0.1 0.0090014708    2.4336094  0.029897548 
number of iterations: 1596 
    5100    26.025419      188           86          102 8.7718436e-14 9.5039295e-15          0.1 0.0090014929    2.5002099  0.029897511 
number of iterations: 1537 
    5200    26.204196      188           86          102 8.8880899e-14 9.5313909e-15          0.1 0.0090015127    2.5676883  0.029897478 
number of iterations: 1470 
    5300    26.394032      189           87          102 9.0058767e-14 9.559479e-15          0.1 0.0090015283    2.6360566  0.029897452 
number of iterations: 1687 
    5400    26.574516      194           91          103 9.1252244e-14 9.5881963e-15          0.1  0.009001542    2.7053265   0.02989743 
number of iterations: 1653 
    5500    26.756928      198           95          103 9.2461537e-14 9.6175437e-15          0.1 0.0090015587      2.77551  0.029897402 
number of iterations: 1540 
    5600    26.954005      199           96          103 9.3686857e-14 9.6475203e-15          0.1 0.0090015794    2.8466198  0.029897367 
number of iterations: 1468 
    5700    27.138119      200           97          103 9.4928414e-14 9.6781257e-15          0.1 0.0090015958    2.9186683   0.02989734 
number of iterations: 1627 
    5800    27.352484      202           99          103 9.6186425e-14 9.709361e-15          0.1 0.0090016235    2.9916682  0.029897294 
number of iterations: 1536 
    5900    27.538326      207          103          104 9.7461108e-14 9.7412263e-15          0.1 0.0090016384    3.0656322  0.029897269 
number of iterations: 1556 
    6000    27.737387      207          103          104 9.8752682e-14 9.7737221e-15          0.1 0.0090016602    3.1405732  0.029897233 
number of iterations: 1583 
    6100    28.019326      209          105          104 1.0006137e-13 9.8068488e-15          0.1 0.0090016822    3.2165045  0.029897196 
number of iterations: 1562 
    6200     28.23072      209          105          104 1.0138741e-13 9.8406081e-15          0.1 0.0090017044    3.2934391  0.029897159 
number of iterations: 1565 
    6300    28.411883      209          105          104 1.0273101e-13 9.8750009e-15          0.1  0.009001727    3.3713908  0.029897121 
number of iterations: 1568 
    6400      28.5862      209          105          104 1.0409243e-13 9.9100281e-15          0.1 0.0090017499     3.450373  0.029897083 
number of iterations: 1573 
    6500    28.798047      209          105          104 1.0547188e-13 9.9456901e-15          0.1 0.0090017731    3.5303996  0.029897044 
number of iterations: 1573 
    6600    28.989785      210          106          104 1.0686961e-13 9.9819899e-15          0.1 0.0090017966    3.6114844  0.029897005 
number of iterations: 1576 
    6700    29.177238      210          106          104 1.0828587e-13 1.0018927e-14          0.1 0.0090018204    3.6936417  0.029896965 
number of iterations: 1579 
    6800    29.362374      213          107          106 1.097209e-13 1.0056503e-14          0.1 0.0090018445    3.7768862  0.029896925 
number of iterations: 1744 
    6900    29.562296      216          108          108 1.1117494e-13 1.0094721e-14          0.1 0.0090018848    3.8612323  0.029896858 
number of iterations: 1585 
    7000    29.769413      218          108          110 1.1264826e-13 1.013358e-14          0.1 0.0090019097    3.9466947  0.029896817 
number of iterations: 1588 
    7100    29.979862      219          109          110 1.1414109e-13 1.0173082e-14          0.1  0.009001935    4.0332884  0.029896774 
number of iterations: 1721 
    7200    30.173829      223          110          113 1.1565371e-13 1.0213229e-14          0.1 0.0090019647    4.1210286  0.029896725 
number of iterations: 1578 
    7300    30.360922      227          113          114 1.1718638e-13 1.0254022e-14          0.1 0.0090019873    4.2099301  0.029896687 
number of iterations: 1577 
    7400    30.553264      230          114          116 1.1873936e-13 1.0295462e-14          0.1 0.0090020137    4.3000087  0.029896643 
number of iterations: 1609 
    7500    30.741644      232          115          117 1.2031292e-13 1.0337553e-14          0.1 0.0090020403    4.3912804  0.029896599 
number of iterations: 1605 
    7600    30.940447      236          118          118 1.2190733e-13 1.0380294e-14          0.1 0.0090020674    4.4837613  0.029896554 
number of iterations: 1603 
    7700    31.130519      241          122          119 1.2352287e-13 1.0423689e-14          0.1 0.0090020948     4.577467  0.029896508 
number of iterations: 1643 
    7800    31.332091      243          124          119 1.2515982e-13 1.046774e-14          0.1 0.0090021252    4.6724144  0.029896458 
number of iterations: 1590 
    7900    31.510177      245          125          120 1.2681846e-13 1.0512448e-14          0.1 0.0090021533    4.7686203  0.029896411 
number of iterations: 1720 
    8000    31.725103      247          127          120 1.2849908e-13 1.0557816e-14          0.1 0.0090021869    4.8661015  0.029896355 
number of iterations: 1608 
    8100    31.917799      248          128          120 1.3020198e-13 1.0603847e-14          0.1 0.0090022112    4.9648749  0.029896314 
number of iterations: 1555 
    8200    32.101136      253          132          121 1.3192744e-13 1.0650541e-14          0.1 0.0090022324    5.0649577  0.029896279 
number of iterations: 1620 
    8300    32.340032      256          134          122 1.3367577e-13 1.0697901e-14          0.1  0.009002262    5.1663675   0.02989623 
number of iterations: 1595 
    8400    32.545344      257          135          122 1.3544727e-13 1.0745929e-14          0.1 0.0090022853    5.2691211  0.029896191 
number of iterations: 1624 
    8500    32.733788      258          136          122 1.3724224e-13 1.0794629e-14          0.1 0.0090023156    5.3732372   0.02989614 
number of iterations: 1733 
    8600    32.930874      262          140          122  1.39061e-13 1.0844003e-14          0.1 0.0090023534    5.4787342  0.029896077 
number of iterations: 1569 
    8700     33.12182      264          142          122 1.4090387e-13 1.0894053e-14          0.1 0.0090023787    5.5856305  0.029896035 
number of iterations: 1591 
    8800    33.329098      268          145          123 1.4277115e-13 1.0944783e-14          0.1 0.0090024052    5.6939449  0.029895991 
number of iterations: 1635 
    8900    33.518023      269          145          124 1.4466318e-13 1.0996194e-14          0.1 0.0090024371    5.8036961  0.029895938 
number of iterations: 1620 
    9000    33.716318      271          147          124 1.4658029e-13 1.104829e-14          0.1 0.0090024694    5.9149033  0.029895884 
number of iterations: 1640 
    9100    33.910309      273          149          124 1.485228e-13 1.1101073e-14          0.1 0.0090025022    6.0275861  0.029895829 
number of iterations: 1645 
    9200    34.110346      273          149          124 1.5049105e-13 1.1154547e-14          0.1 0.0090025353     6.141764  0.029895774 
number of iterations: 1646 
    9300    34.299619      274          150          124 1.5248539e-13 1.1208713e-14          0.1 0.0090025689    6.2574571  0.029895718 
number of iterations: 1655 
    9400    34.499392      277          153          124 1.5450616e-13 1.1263576e-14          0.1 0.0090026079    6.3746856  0.029895653 
number of iterations: 1633 
    9500    34.759541      278          154          124 1.565537e-13 1.1319138e-14          0.1 0.0090026425    6.4934698  0.029895595 
number of iterations: 1645 
    9600    34.961557      281          157          124 1.5862838e-13 1.1375403e-14          0.1  0.009002672    6.6138306  0.029895546 
number of iterations: 1654 
    9700    35.143253      282          158          124 1.6073056e-13 1.1432373e-14          0.1 0.0090027074    6.7357891  0.029895487 
number of iterations: 1642 
    9800    35.347002      283          159          124 1.6286059e-13 1.1490052e-14          0.1 0.0090027387    6.8593666  0.029895435 
number of iterations: 1687 
    9900    35.553314      287          163          124 1.6501885e-13 1.1548443e-14          0.1 0.0090027829    6.9845847  0.029895361 
number of iterations: 1665 
   10000    35.739532      290          166          124 1.6720571e-13 1.1607549e-14          0.1 0.0090028198    7.1114651    0.0298953 
number of iterations: 1668 
   10100     36.00028      293          169          124 1.6942155e-13 1.1667375e-14          0.1 0.0090028572      7.24003  0.029895238 
number of iterations: 1680 
   10200    36.213324      294          170          124 1.7166676e-13 1.1727924e-14          0.1 0.0090028951    7.3703014  0.029895174 
number of iterations: 1619 
   10300    36.415996      297          173          124 1.7394172e-13 1.1789199e-14          0.1 0.0090029299    7.5023027  0.029895116 
number of iterations: 1677 
   10400    36.656475      300          175          125 1.7624683e-13 1.1851204e-14          0.1 0.0090029651    7.6360569  0.029895058 
number of iterations: 1655 
   10500    36.837122      306          181          125 1.7858249e-13 1.1913943e-14          0.1 0.0090030011    7.7715872  0.029894998 
number of iterations: 1626 
   10600    37.021151      308          182          126 1.8094909e-13 1.1977421e-14          0.1 0.0090030359    7.9089172   0.02989494 
number of iterations: 1682 
   10700    37.210099      308          182          126 1.8334707e-13 1.2041639e-14          0.1 0.0090030761    8.0480712  0.029894873 
number of iterations: 1711 
   10800    37.395898      313          187          126 1.8577682e-13 1.2106603e-14          0.1  0.009003113    8.1890739  0.029894811 
number of iterations: 1684 
   10900    37.613098      315          188          127 1.8823877e-13 1.2172316e-14          0.1 0.0090031476    8.3319499  0.029894754 
number of iterations: 1690 
   11000    37.873035      316          189          127 1.9073334e-13 1.2238782e-14          0.1 0.0090031893    8.4767238  0.029894684 
number of iterations: 1718 
   11100    38.139125      321          192          129 1.9326098e-13 1.2306005e-14          0.1 0.0090032327    8.6234204  0.029894612 
number of iterations: 1696 
   11200    38.333935      323          194          129 1.9582211e-13 1.2373989e-14          0.1 0.0090032744     8.772066  0.029894542 
number of iterations: 1699 
   11300    38.551484      325          196          129 1.9841718e-13 1.2442738e-14          0.1 0.0090033179    8.9226863   0.02989447 
number of iterations: 1716 
   11400    38.767779      330          199          131 2.0104664e-13 1.2512257e-14          0.1 0.0090033619    9.0753076  0.029894397 
number of iterations: 1709 
   11500    38.960202      332          200          132 2.0371095e-13 1.258255e-14          0.1 0.0090034064    9.2299565  0.029894322 
number of iterations: 1695 
   11600     39.15541      337          204          133 2.0641057e-13 1.2653622e-14          0.1 0.0090034516    9.3866604  0.029894247 
number of iterations: 1712 
   11700    39.361213      340          206          134 2.0914596e-13 1.2725478e-14          0.1 0.0090034942    9.5454465  0.029894176 
number of iterations: 1716 
   11800    39.562319      345          209          136 2.119176e-13 1.2798121e-14          0.1 0.0090035394    9.7063426  0.029894101 
number of iterations: 1749 
   11900    39.788845      349          212          137 2.1472597e-13 1.2871557e-14          0.1 0.0090035903    9.8693771  0.029894016 
number of iterations: 1636 
   12000    39.991409      354          215          139 2.1757156e-13 1.2945789e-14          0.1 0.0090036295    10.034578  0.029893951 
number of iterations: 1800 
   12100    40.228141      359          220          139 2.2045486e-13 1.3020823e-14          0.1 0.0090036864    10.201975  0.029893856 
number of iterations: 1737 
   12200      40.4143      363          224          139 2.2337637e-13 1.3096663e-14          0.1 0.0090037303    10.371595  0.029893783 
number of iterations: 1727 
   12300    40.628475      367          226          141 2.2633659e-13 1.3173314e-14          0.1 0.0090037798    10.543469    0.0298937 
number of iterations: 1719 
   12400     40.85605      370          229          141 2.2933605e-13 1.325078e-14          0.1 0.0090038264    10.717627  0.029893623 
number of iterations: 1731 
   12500    41.060113      372          231          141 2.3237525e-13 1.3329068e-14          0.1 0.0090038704      10.8941  0.029893549 
number of iterations: 1760 
   12600    41.271324      376          235          141 2.3545473e-13 1.3408181e-14          0.1 0.0090039187    11.072918  0.029893469 
number of iterations: 1749 
   12700    41.468303      380          238          142 2.3857502e-13 1.3488126e-14          0.1 0.0090039706    11.254112  0.029893382 
number of iterations: 1723 
   12800    41.672937      383          240          143 2.4173666e-13 1.3568907e-14          0.1   0.00900402    11.437715    0.0298933 
number of iterations: 1757 
   12900    41.862668      390          245          145 2.449402e-13 1.365053e-14          0.1 0.0090040755    11.623759  0.029893207 
number of iterations: 1698 
   13000    42.058093      392          247          145 2.4818619e-13 1.3732999e-14          0.1 0.0090041165    11.812275  0.029893139 
number of iterations: 1750 
   13100    42.280369      395          248          147 2.514752e-13 1.3816319e-14          0.1 0.0090041735    12.003297  0.029893044 
number of iterations: 1749 
   13200    42.487365      398          249          149 2.5480779e-13 1.3900498e-14          0.1 0.0090042288    12.196859  0.029892952 
number of iterations: 1750 
   13300    42.696664      400          251          149 2.5818455e-13 1.3985538e-14          0.1 0.0090042849    12.392993  0.029892859 
number of iterations: 1699 
   13400      42.8757      408          258          150 2.6160606e-13 1.4071447e-14          0.1 0.0090043325    12.591734  0.029892779 
number of iterations: 1769 
   13500    43.065163      416          262          154 2.6507291e-13 1.4158229e-14          0.1 0.0090043841    12.793117  0.029892693 
number of iterations: 1723 
   13600    43.243118      420          266          154 2.685857e-13 1.4245891e-14          0.1 0.0090044286    12.997177  0.029892619 
number of iterations: 1785 
   13700    43.426925      426          271          155 2.7214505e-13 1.4334439e-14          0.1  0.009004496     13.20395  0.029892507 
number of iterations: 1759 
   13800     43.65207      430          273          157 2.7575156e-13 1.4423878e-14          0.1  0.009004548    13.413471   0.02989242 
number of iterations: 1762 
   13900    43.863788      432          275          157 2.7940587e-13 1.4514213e-14          0.1 0.0090046043    13.625777  0.029892326 
number of iterations: 1811 
   14000    44.100131      436          279          157 2.8310861e-13 1.4605452e-14          0.1 0.0090046641    13.840905  0.029892227 
number of iterations: 1775 
   14100    44.323972      438          280          158 2.8686041e-13 1.4697599e-14          0.1 0.0090047259    14.058892  0.029892124 
number of iterations: 1773 
   14200    44.520861      441          283          158 2.9066194e-13 1.4790661e-14          0.1 0.0090047846    14.279777  0.029892026 
number of iterations: 1694 
   14300    44.786781      445          286          159 2.9451384e-13 1.4884643e-14          0.1 0.0090048324    14.503599  0.029891946 
number of iterations: 1798 
   14400    44.988458      452          293          159 2.9841679e-13 1.4979554e-14          0.1 0.0090048986    14.730395  0.029891836 
number of iterations: 1867 
   14500    45.205109      456          296          160 3.0237146e-13 1.5075397e-14          0.1 0.0090049705    14.960207  0.029891716 
number of iterations: 1812 
   14600    45.417014      463          301          162 3.0637854e-13 1.517218e-14          0.1 0.0090050413    15.193074  0.029891598 
number of iterations: 1804 
   14700    45.640141      470          306          164 3.1043872e-13 1.5269909e-14          0.1 0.0090051043    15.429036  0.029891493 
number of iterations: 1825 
   14800    45.841596      475          311          164 3.1455271e-13 1.536859e-14          0.1 0.0090051705    15.668135  0.029891383 
number of iterations: 1726 
   14900    46.034373      482          318          164 3.1872122e-13 1.5468231e-14          0.1  0.009005226    15.910412   0.02989129 
number of iterations: 1852 
   15000    46.247628      489          323          166 3.2294497e-13 1.5568837e-14          0.1 0.0090052962    16.155911  0.029891174 
number of iterations: 1819 
   15100    46.473767      498          330          168 3.2722469e-13 1.5670415e-14          0.1 0.0090053675    16.404674  0.029891055 
number of iterations: 1767 
   15200    46.669728      498          330          168 3.3156113e-13 1.5772973e-14          0.1  0.009005433    16.656745  0.029890945 
number of iterations: 1745 
   15300    46.881346      506          337          169 3.3595503e-13 1.5876515e-14          0.1 0.0090054954    16.912167  0.029890842 
number of iterations: 1768 
   15400    47.071239      515          344          171 3.4040717e-13 1.5981052e-14          0.1 0.0090055597    17.170985  0.029890734 
number of iterations: 1803 
   15500    47.260433      520          346          174 3.449183e-13 1.6086587e-14          0.1 0.0090056392    17.433243  0.029890602 
number of iterations: 1807 
   15600    47.455665      523          347          176 3.4948922e-13 1.6193129e-14          0.1  0.009005709    17.698988  0.029890486 
number of iterations: 1863 
   15700    47.673503      529          352          177 3.5412071e-13 1.6300684e-14          0.1  0.009005791    17.968266  0.029890349 
number of iterations: 1870 
   15800    47.934289      530          353          177 3.5881357e-13 1.6409259e-14          0.1 0.0090058797    18.241124  0.029890201 
number of iterations: 1857 
   15900    48.119785      533          355          178 3.6356863e-13 1.6518863e-14          0.1 0.0090059598    18.517609  0.029890068 
number of iterations: 1832 
   16000    48.313661      536          358          178 3.683867e-13 1.6629502e-14          0.1 0.0090060411     18.79777  0.029889932 
number of iterations: 1825 
   16100     48.55923      546          368          178 3.7326863e-13 1.6741184e-14          0.1 0.0090061112    19.081655  0.029889816 
number of iterations: 1834 
   16200    48.766399      554          375          179 3.7821524e-13 1.6853916e-14          0.1 0.0090062012    19.369314  0.029889666 
number of iterations: 1813 
   16300    48.954919      560          380          180 3.8322741e-13 1.6967706e-14          0.1 0.0090062774    19.660798  0.029889539 
number of iterations: 1879 
   16400    49.151262      575          391          184 3.8830601e-13 1.708256e-14          0.1 0.0090063648    19.956158  0.029889393 
number of iterations: 1858 
   16500    49.366085      580          396          184 3.934519e-13 1.7198487e-14          0.1 0.0090064574    20.255444  0.029889239 
number of iterations: 1793 
   16600    49.571811      590          403          187 3.9866599e-13 1.7315495e-14          0.1 0.0090065258     20.55871  0.029889125 
number of iterations: 1850 
   16700     49.79001      598          410          188 4.0394918e-13 1.7433592e-14          0.1 0.0090066102    20.866008  0.029888984 
number of iterations: 1850 
   16800    50.000701      603          414          189 4.0930238e-13 1.7552785e-14          0.1 0.0090066958     21.17739  0.029888842 
number of iterations: 1884 
   16900    50.197691      612          420          192 4.1472652e-13 1.7673081e-14          0.1 0.0090067924    21.492913  0.029888681 
number of iterations: 1857 
   17000    50.400688      620          425          195 4.2022254e-13 1.7794489e-14          0.1 0.0090068842     21.81263  0.029888528 
number of iterations: 1828 
   17100    50.631507      623          427          196 4.257914e-13 1.7917017e-14          0.1 0.0090069605    22.136597  0.029888401 
number of iterations: 1788 
   17200    50.832269      627          429          198 4.3143406e-13 1.8040674e-14          0.1 0.0090070407    22.464872  0.029888267 
number of iterations: 1805 
   17300    51.033274      629          431          198 4.3715149e-13 1.8165466e-14          0.1 0.0090071268     22.79751  0.029888124 
number of iterations: 1905 
   17400    51.256154      639          438          201 4.4294469e-13 1.8291403e-14          0.1 0.0090072296     23.13457  0.029887952 
number of iterations: 1861 
   17500    51.441147      644          443          201 4.4881467e-13 1.8418493e-14          0.1  0.009007332     23.47611  0.029887782 
number of iterations: 1896 
   17600    51.673757      649          448          201 4.5476243e-13 1.8546744e-14          0.1 0.0090074163    23.822191  0.029887641 
number of iterations: 1841 
   17700    51.863188      655          453          202 4.6078901e-13 1.8676166e-14          0.1 0.0090075074    24.172873  0.029887489 
number of iterations: 1908 
   17800     52.08378      663          461          202 4.6689546e-13 1.8806767e-14          0.1 0.0090076137    24.528218  0.029887312 
number of iterations: 1887 
   17900    52.286504      668          466          202 4.7308283e-13 1.8938555e-14          0.1 0.0090077011    24.888286  0.029887167 
number of iterations: 1887 
   18000    52.538463      672          470          202 4.793522e-13 1.9071539e-14          0.1 0.0090077998     25.25314  0.029887002 
number of iterations: 1926 
   18100    52.782328      676          472          204 4.8570465e-13 1.9205729e-14          0.1 0.0090079098    25.622844  0.029886819 
number of iterations: 1832 
   18200    53.006126      684          479          205 4.9214128e-13 1.9341132e-14          0.1 0.0090080006    25.997463  0.029886668 
number of iterations: 1872 
   18300    53.215041      693          486          207 4.9866321e-13 1.9477759e-14          0.1 0.0090080953    26.377062   0.02988651 
number of iterations: 1916 
   18400    53.427125      705          495          210 5.0527157e-13 1.9615617e-14          0.1 0.0090082166    26.761708  0.029886308 
number of iterations: 1904 
   18500    53.671284      711          500          211 5.1196751e-13 1.9754717e-14          0.1 0.0090083233    27.151466   0.02988613 
number of iterations: 1893 
   18600    53.887867      722          509          213 5.1875218e-13 1.9895068e-14          0.1 0.0090084268    27.546406  0.029885958 
number of iterations: 1898 
   18700    54.104653      732          518          214 5.2562676e-13 2.0036678e-14          0.1 0.0090085453    27.946595   0.02988576 
number of iterations: 1892 
   18800    54.305348      742          526          216 5.3259245e-13 2.0179558e-14          0.1 0.0090086572    28.352105  0.029885574 
number of iterations: 1932 
   18900    54.559284      752          535          217 5.3965044e-13 2.0323717e-14          0.1 0.0090087903    28.763005  0.029885352 
number of iterations: 1896 
   19000    54.859092      764          546          218 5.4680197e-13 2.0469165e-14          0.1 0.0090089024    29.179368  0.029885166 
number of iterations: 1887 
   19100    55.055242      775          555          220 5.5404827e-13 2.0615911e-14          0.1  0.009009014    29.601266   0.02988498 
number of iterations: 1947 
   19200    55.271114      780          559          221 5.613906e-13 2.0763966e-14          0.1 0.0090091418    30.028771  0.029884767 
number of iterations: 1931 
   19300    55.500343      788          565          223 5.6883023e-13 2.0913338e-14          0.1 0.0090092715    30.461959  0.029884551 
number of iterations: 1911 
   19400    55.695596      797          573          224 5.7636845e-13 2.1064039e-14          0.1 0.0090093933    30.900905  0.029884348 
number of iterations: 1916 
   19500    55.926911      808          584          224 5.8400657e-13 2.1216077e-14          0.1 0.0090095209    31.345686  0.029884135 
number of iterations: 1905 
   19600    56.128622      821          593          228 5.917459e-13 2.1369464e-14          0.1 0.0090096456     31.79638  0.029883927 
number of iterations: 1925 
   19700    56.330315      828          599          229 5.995878e-13 2.1524209e-14          0.1 0.0090097742    32.253065  0.029883713 
number of iterations: 1921 
   19800    56.529983      836          604          232 6.0753363e-13 2.1680324e-14          0.1 0.0090099055     32.71582  0.029883494 
number of iterations: 1961 
   19900    56.785142      845          612          233 6.1558475e-13 2.1837817e-14          0.1   0.00901004    33.184725   0.02988327 
number of iterations: 1957 
   20000    56.997645      858          622          236 6.2374256e-13  2.19967e-14          0.1 0.0090101697    33.659864  0.029883054 
number of iterations: 1923 
   20100    57.199416      862          626          236 6.3200848e-13 2.2156983e-14          0.1 0.0090103012    34.141318  0.029882835 
number of iterations: 1955 
   20200    57.414504      869          631          238 6.4038395e-13 2.2318678e-14          0.1 0.0090104438    34.629172  0.029882598 
number of iterations: 1959 
   20300    57.611671      878          639          239 6.488704e-13 2.2481794e-14          0.1 0.0090105905    35.123511  0.029882353 
number of iterations: 1975 
   20400    57.922171      886          646          240 6.5746932e-13 2.2646343e-14          0.1 0.0090107351    35.624419  0.029882112 
number of iterations: 1973 
   20500    58.143777      900          658          242 6.6618219e-13 2.2812336e-14          0.1 0.0090108869    36.131986   0.02988186 
number of iterations: 1973 
   20600    58.358363      911          667          244 6.7501052e-13 2.2979783e-14          0.1 0.0090110195    36.646297  0.029881639 
number of iterations: 1955 
   20700    58.564864      920          675          245 6.8395585e-13 2.3148696e-14          0.1 0.0090111744    37.167446  0.029881381 
number of iterations: 1929 
   20800    58.785455      928          683          245 6.9301972e-13 2.3319086e-14          0.1 0.0090113152    37.695521  0.029881146 
number of iterations: 1993 
   20900    59.026672      940          694          246 7.0220371e-13 2.3490965e-14          0.1 0.0090114739    38.230615  0.029880882 
number of iterations: 1971 
   21000     59.24578      953          707          246 7.115094e-13 2.3664344e-14          0.1 0.0090116287    38.772821  0.029880624 
number of iterations: 1989 
   21100    59.464407      963          716          247 7.2093841e-13 2.3839235e-14          0.1 0.0090117791    39.322232  0.029880373 
number of iterations: 1993 
   21200    59.691984      977          728          249 7.3049238e-13 2.4015649e-14          0.1 0.0090119553    39.878946   0.02988008 
number of iterations: 1986 
   21300    59.916222      990          740          250 7.4017296e-13 2.4193599e-14          0.1 0.0090121206    40.443059  0.029879804 
number of iterations: 1976 
   21400    60.126116     1001          749          252 7.4998182e-13 2.4373095e-14          0.1 0.0090122834    41.014669  0.029879533 
number of iterations: 2001 
   21500    60.339966     1014          757          257 7.5992067e-13 2.4554151e-14          0.1 0.0090124384    41.593875  0.029879275 
number of iterations: 1967 
   21600    60.549788     1023          764          259 7.6999123e-13 2.4736778e-14          0.1 0.0090125875    42.180779  0.029879027 
number of iterations: 1966 
   21700    60.793067     1036          773          263 7.8019525e-13 2.4920988e-14          0.1 0.0090127494    42.775483  0.029878757 
number of iterations: 1992 
   21800    61.039402     1051          785          266 7.9053449e-13 2.5106794e-14          0.1 0.0090129198    43.378091  0.029878473 
number of iterations: 2015 
   21900    61.269083     1057          789          268 8.0101075e-13 2.5294208e-14          0.1 0.0090130961    43.988707   0.02987818 
number of iterations: 1968 
   22000    61.497851     1071          797          274 8.1162583e-13 2.5483243e-14          0.1 0.0090132597    44.607437  0.029877907 
number of iterations: 2021 
   22100    61.728173     1077          801          276 8.2238159e-13 2.5673911e-14          0.1 0.0090134411     45.23439  0.029877605 
number of iterations: 2008 
   22200    61.936474     1092          814          278 8.3327989e-13 2.5866225e-14          0.1 0.0090136049    45.869674  0.029877332 
number of iterations: 1982 
   22300    62.138333     1103          823          280 8.4432261e-13 2.6060198e-14          0.1  0.009013786      46.5134   0.02987703 
number of iterations: 2058 
   22400    62.347474     1115          832          283 8.5551166e-13 2.6255843e-14          0.1 0.0090139957    47.165681  0.029876681 
number of iterations: 1991 
   22500    62.556366     1127          843          284  8.66849e-13 2.6453172e-14          0.1 0.0090141648    47.826628  0.029876399 
number of iterations: 2004 
   22600     62.79342     1138          851          287 8.7833658e-13  2.66522e-14          0.1 0.0090143599    48.496359  0.029876074 
number of iterations: 2013 
   22700    63.023692     1150          861          289 8.8997639e-13 2.6852939e-14          0.1 0.0090145573    49.174989  0.029875745 
number of iterations: 2000 
   22800    63.245252     1171          879          292 9.0177045e-13 2.7055401e-14          0.1 0.0090147441    49.862636  0.029875434 
number of iterations: 2010 
   22900    63.460322     1186          894          292 9.1372081e-13 2.7259602e-14          0.1 0.0090149383    50.559419  0.029875111 
number of iterations: 2045 
   23000    63.677827     1201          908          293 9.2582953e-13 2.7465555e-14          0.1 0.0090151465    51.265461  0.029874764 
number of iterations: 2030 
   23100    63.897949     1218          923          295 9.3809872e-13 2.7673273e-14          0.1 0.0090153485    51.980885  0.029874427 
number of iterations: 2028 
   23200    64.107205     1235          938          297 9.505305e-13 2.788277e-14          0.1 0.0090155624    52.705816  0.029874071 
number of iterations: 2059 
   23300    64.332121     1255          954          301 9.6312702e-13 2.8094061e-14          0.1 0.0090157805    53.440377  0.029873708 
number of iterations: 2036 
   23400    64.575214     1269          967          302 9.7589047e-13 2.8307159e-14          0.1 0.0090159919    54.184699  0.029873356 
number of iterations: 2045 
   23500     64.79627     1286          981          305 9.8882307e-13 2.8522078e-14          0.1 0.0090162072     54.93891  0.029872997 
number of iterations: 2029 
   23600    65.044111     1305          997          308 1.001927e-12 2.8738833e-14          0.1 0.0090164253    55.703145  0.029872634 
number of iterations: 2073 
   23700    65.327878     1316         1008          308 1.0152047e-12 2.8957438e-14          0.1 0.0090166594    56.477532  0.029872244 
number of iterations: 2019 
   23800    65.538764     1328         1018          310 1.0286583e-12 2.9177908e-14          0.1 0.0090168552    57.262207  0.029871918 
number of iterations: 2063 
   23900    65.750934     1351         1040          311 1.0422901e-12 2.9400258e-14          0.1 0.0090170781    58.057308  0.029871546 
number of iterations: 2069 
   24000    65.989493     1363         1050          313 1.0561027e-12 2.9624502e-14          0.1 0.0090173213    58.862973  0.029871141 
number of iterations: 2055 
   24100    66.220055     1378         1062          316 1.0700982e-12 2.9850655e-14          0.1 0.0090175599    59.679342  0.029870744 
number of iterations: 2038 
   24200    66.449298     1395         1073          322 1.0842793e-12 3.0078732e-14          0.1 0.0090177834     60.50656  0.029870372 
number of iterations: 2053 
   24300    66.698171     1414         1088          326 1.0986482e-12 3.0308749e-14          0.1 0.0090179941    61.344767  0.029870021 
number of iterations: 2084 
   24400     66.94743     1423         1096          327 1.1132076e-12 3.054072e-14          0.1 0.0090182579    62.194111  0.029869581 
number of iterations: 2056 
   24500    67.202063     1445         1115          330 1.1265653e-12 3.0774661e-14          0.1 0.0090184695    63.053675  0.029869229 
number of iterations: 2073 
   24600    67.468875     1464         1132          332 1.1414946e-12 3.1010588e-14          0.1 0.0090187063    63.924658  0.029868834 
number of iterations: 2083 
   24700    67.707721     1480         1146          334 1.1566218e-12 3.1248517e-14          0.1  0.009018966    64.807212  0.029868402 
number of iterations: 2051 
   24800    68.004133     1493         1157          336 1.1719494e-12 3.1488463e-14          0.1  0.009019197    65.701493  0.029868017 
number of iterations: 2081 
   24900    68.215273     1513         1172          341 1.1874802e-12 3.1730442e-14          0.1 0.0090194483    66.607655  0.029867598 
number of iterations: 2086 
   25000    68.434986     1529         1187          342 1.2032168e-12 3.1974471e-14          0.1 0.0090196952    67.525854  0.029867187 
number of iterations: 2055 
   25100    68.668252     1553         1211          342 1.2191619e-12 3.2220565e-14          0.1 0.0090199389    68.456253  0.029866781 
number of iterations: 2072 
   25200    68.897961     1575         1231          344 1.2353183e-12 3.2468741e-14          0.1 0.0090201899    69.399012  0.029866363 
number of iterations: 2085 
   25300    69.129161     1602         1252          350 1.2516888e-12 3.2719016e-14          0.1 0.0090204388    70.354295  0.029865948 
number of iterations: 2028 
   25400    69.354627     1620         1268          352 1.2682763e-12 3.2971406e-14          0.1 0.0090206689     71.32227  0.029865565 
number of iterations: 2077 
   25500    69.597163     1638         1281          357 1.2850836e-12 3.3225927e-14          0.1 0.0090209199    72.303107  0.029865147 
number of iterations: 2079 
   25600    69.814419     1653         1292          361 1.3021136e-12 3.3482598e-14          0.1 0.0090212011    73.296974  0.029864679 
number of iterations: 2066 
   25700    70.035005     1681         1315          366 1.3193693e-12 3.3741435e-14          0.1 0.0090214612    74.304043  0.029864245 
number of iterations: 2091 
   25800    70.272885     1701         1333          368 1.3368537e-12 3.4002454e-14          0.1 0.0090217248    75.324489  0.029863806 
number of iterations: 2091 
   25900    70.545002     1723         1352          371 1.3545697e-12 3.4265674e-14          0.1 0.0090220192    76.358491  0.029863316 
number of iterations: 2103 
   26000    70.769791     1742         1367          375 1.3725206e-12 3.4531113e-14          0.1  0.009022304    77.406229  0.029862842 
number of iterations: 2133 
   26100    70.998491     1762         1384          378 1.3907093e-12 3.4798787e-14          0.1  0.009022615    78.467885  0.029862324 
number of iterations: 2089 
   26200    71.234266     1771         1391          380 1.4091391e-12 3.5068715e-14          0.1 0.0090229157    79.543644  0.029861823 
number of iterations: 2113 
   26300       71.486     1795         1412          383 1.427813e-12 3.5340914e-14          0.1 0.0090232152    80.633693  0.029861324 
number of iterations: 2131 
   26400    71.750876     1814         1428          386 1.4467345e-12 3.5615403e-14          0.1 0.0090235155     81.73822  0.029860824 
number of iterations: 2131 
   26500    71.976406     1828         1436          392 1.4659067e-12  3.58922e-14          0.1 0.0090238233    82.857418  0.029860311 
number of iterations: 2125 
   26600    72.204276     1843         1450          393 1.485333e-12 3.6171324e-14          0.1 0.0090241444    83.991483  0.029859776 
number of iterations: 2132 
   26700    72.435461     1863         1469          394 1.5050167e-12 3.6452793e-14          0.1 0.0090244613     85.14061  0.029859248 
number of iterations: 2114 
   26800    72.665512     1878         1484          394 1.5249612e-12 3.6736625e-14          0.1 0.0090247677    86.305001  0.029858738 
number of iterations: 2122 
   26900    72.911067     1903         1505          398 1.5451701e-12 3.702284e-14          0.1 0.0090250761    87.484858  0.029858224 
number of iterations: 2109 
   27000    73.137163     1922         1518          404 1.5644113e-12 3.7311457e-14          0.1 0.0090254019    88.679444  0.029857682 
number of iterations: 2145 
   27100    73.381011     1948         1540          408 1.585143e-12 3.7602494e-14          0.1 0.0090257395    89.889897  0.029857119 
number of iterations: 2142 
   27200    73.608969     1967         1557          410 1.6061493e-12 3.7895972e-14          0.1 0.0090260891    91.116427  0.029856537 
number of iterations: 2113 
   27300    73.867794     2002         1589          413 1.6265156e-12 3.8191909e-14          0.1 0.0090264181    92.358548  0.029855989 
number of iterations: 2188 
   27400    74.137284     2029         1613          416 1.6480702e-12 3.8490325e-14          0.1 0.0090268109    93.617166  0.029855335 
number of iterations: 2140 
   27500    74.369086     2050         1632          418 1.6699105e-12 3.879124e-14          0.1 0.0090271139    94.892499   0.02985483 
number of iterations: 2145 
   27600    74.624162     2076         1657          419 1.6920402e-12 3.9094674e-14          0.1 0.0090274874    96.184769  0.029854208 
number of iterations: 2187 
   27700    74.857348     2108         1684          424 1.7144632e-12 3.9400648e-14          0.1 0.0090278787    97.494207  0.029853556 
number of iterations: 2132 
   27800    75.093113     2127         1698          429 1.7371833e-12 3.9709181e-14          0.1 0.0090282243    98.821035   0.02985298 
number of iterations: 2170 
   27900     75.33878     2160         1729          431 1.7602045e-12 4.0020294e-14          0.1 0.0090286205    100.16548  0.029852321 
number of iterations: 2146 
   28000    75.568714     2191         1755          436 1.7835307e-12 4.0334008e-14          0.1 0.0090289917    101.52779  0.029851702 
number of iterations: 2129 
   28100    75.824622     2220         1784          436 1.8071661e-12 4.0650344e-14          0.1 0.0090293448    102.90819  0.029851114 
number of iterations: 2149 
   28200    76.056657     2244         1805          439 1.8311147e-12 4.0969323e-14          0.1 0.0090297094    104.30692  0.029850507 
number of iterations: 2159 
   28300    76.291681     2276         1834          442 1.8553807e-12 4.1290965e-14          0.1 0.0090300781    105.72423  0.029849893 
number of iterations: 2191 
   28400    76.523757     2293         1850          443 1.8799682e-12 4.1615293e-14          0.1 0.0090304883    107.16036  0.029849209 
number of iterations: 2161 
   28500    76.776231     2318         1873          445 1.9048816e-12 4.1942329e-14          0.1 0.0090308852    108.61556  0.029848548 
number of iterations: 2188 
   28600    77.104844     2356         1909          447 1.9301251e-12 4.2272093e-14          0.1  0.009031312    110.09009  0.029847838 
number of iterations: 2179 
   28700    77.352271     2388         1936          452 1.9557031e-12 4.2604607e-14          0.1 0.0090317205    111.58421  0.029847157 
number of iterations: 2190 
   28800    77.588161     2415         1957          458 1.9816201e-12 4.2939894e-14          0.1 0.0090321549    113.09816  0.029846434 
number of iterations: 2186 
   28900    77.935042     2443         1981          462 2.0078805e-12 4.3277976e-14          0.1 0.0090325976    114.63221  0.029845696 
number of iterations: 2195 
   29000    78.205026     2470         2002          468 2.0344889e-12 4.3618875e-14          0.1 0.0090330389    116.18664  0.029844961 
number of iterations: 2217 
   29100    78.448121     2516         2040          476  2.06145e-12 4.3962614e-14          0.1 0.0090334881    117.76171  0.029844213 
number of iterations: 2192 
   29200    78.692123     2541         2059          482 2.0872844e-12 4.4309215e-14          0.1 0.0090339175    119.35656  0.029843498 
number of iterations: 2193 
   29300    78.930422     2572         2088          484 2.1149451e-12 4.4658703e-14          0.1 0.0090343474    120.97259  0.029842782 
number of iterations: 2171 
   29400    79.155268     2599         2112          487 2.1429723e-12 4.5011099e-14          0.1 0.0090347971    122.61009  0.029842033 
number of iterations: 2227 
   29500     79.40597     2624         2135          489 2.1713709e-12 4.5366428e-14          0.1 0.0090353058    124.26932  0.029841186 
number of iterations: 2236 
   29600    79.652222     2656         2163          493 2.2001459e-12 4.5724712e-14          0.1 0.0090357969    125.95059  0.029840368 
number of iterations: 2199 
   29700    80.242456     2689         2193          496 2.2293022e-12 4.6085977e-14          0.1 0.0090362685     127.6542  0.029839582 
number of iterations: 2234 
   29800    80.511275     2732         2232          500 2.2588449e-12 4.6450246e-14          0.1 0.0090367364    129.38041  0.029838803 
number of iterations: 2202 
   29900    80.754676     2772         2270          502 2.288779e-12 4.6817544e-14          0.1 0.0090372195    131.12956  0.029837998 
number of iterations: 2215 
   30000    81.006236     2799         2294          505 2.3191098e-12 4.7187894e-14          0.1 0.0090377309    132.90193  0.029837146 
number of iterations: 2225 
   30100    81.257642     2838         2329          509 2.3498426e-12 4.7561321e-14          0.1 0.0090382418    134.69784  0.029836295 
number of iterations: 2210 
   30200    81.488985     2872         2361          511 2.3809827e-12 4.7937849e-14          0.1   0.00903871    136.51759  0.029835516 
number of iterations: 2233 
   30300    81.727929     2911         2396          515 2.4125353e-12 4.8317506e-14          0.1 0.0090392189    138.36151  0.029834668 
number of iterations: 2243 
   30400    81.963141     2949         2427          522 2.4445062e-12 4.8700314e-14          0.1 0.0090397304    140.22992  0.029833816 
number of iterations: 2218 
   30500    82.203331     2984         2460          524 2.4769007e-12  4.90863e-14          0.1 0.0090402264    142.12313   0.02983299 
number of iterations: 2250 
   30600    82.529516     3021         2494          527 2.5097244e-12 4.947549e-14          0.1 0.0090407775    144.04148  0.029832072 
number of iterations: 2252 
   30700    82.777963     3064         2533          531 2.5429832e-12 4.986791e-14          0.1 0.0090413479    145.98529  0.029831122 
number of iterations: 2230 
   30800    83.038178     3105         2568          537 2.5766827e-12 5.0263584e-14          0.1 0.0090418725    147.95492  0.029830248 
number of iterations: 2234 
   30900    83.305973     3148         2609          539 2.6108287e-12 5.066254e-14          0.1 0.0090424199    149.95069  0.029829336 
number of iterations: 2263 
   31000    83.575972     3173         2631          542 2.6454273e-12 5.1064804e-14          0.1 0.0090430195    151.97297  0.029828338 
number of iterations: 2244 
   31100    83.844853     3205         2657          548 2.6804843e-12 5.1470402e-14          0.1 0.0090435419     154.0221  0.029827468 
number of iterations: 2243 
   31200    84.087179     3241         2689          552 2.7134453e-12 5.1879362e-14          0.1 0.0090440962    156.09648  0.029826545 
number of iterations: 2260 
   31300    84.361856     3274         2720          554 2.7480749e-12 5.229171e-14          0.1 0.0090446842     158.1974  0.029825565 
number of iterations: 2249 
   31400    84.689532     3305         2748          557 2.7844922e-12 5.2707474e-14          0.1 0.0090452728    160.32621  0.029824585 
number of iterations: 2265 
   31500    84.966216     3341         2778          563 2.8213921e-12 5.3126681e-14          0.1 0.0090458746    162.48329  0.029823583 
number of iterations: 2220 
   31600    85.210539     3388         2817          571 2.858781e-12 5.3549359e-14          0.1 0.0090463736      164.669  0.029822752 
number of iterations: 2271 
   31700     85.46595     3435         2862          573 2.8966653e-12 5.3975537e-14          0.1 0.0090470247    166.88373  0.029821667 
number of iterations: 2275 
   31800    85.716062     3471         2897          574 2.9350517e-12 5.4405242e-14          0.1 0.0090476846    169.12787  0.029820568 
number of iterations: 2268 
   31900    85.983295     3511         2928          583 2.9739468e-12 5.4838504e-14          0.1 0.0090483151    171.40179  0.029819518 
number of iterations: 2262 
   32000    86.234081     3549         2962          587 3.0133572e-12 5.5275352e-14          0.1 0.0090489795     173.7059  0.029818411 
number of iterations: 2291 
   32100    86.475283     3587         2995          592  3.05329e-12 5.5715815e-14          0.1 0.0090496412     176.0406  0.029817309 
number of iterations: 2259 
   32200     86.76891     3634         3039          595 3.0937519e-12 5.6159921e-14          0.1 0.0090502907    178.40629  0.029816228 
number of iterations: 2297 
   32300    87.016993     3671         3071          600  3.13475e-12 5.6607701e-14          0.1 0.0090509784    180.80339  0.029815082 
number of iterations: 2280 
   32400    87.273626     3720         3117          603 3.1762914e-12 5.7059183e-14          0.1 0.0090516535    183.23231  0.029813958 
number of iterations: 2300 
   32500    87.576434     3771         3162          609 3.2183832e-12 5.7514399e-14          0.1 0.0090523785    185.69347   0.02981275 
number of iterations: 2283 
   32600    87.947791     3833         3215          618 3.2610329e-12 5.7973378e-14          0.1 0.0090530592    188.18731  0.029811617 
number of iterations: 2279 
   32700    88.206174     3897         3273          624 3.3042477e-12 5.8436151e-14          0.1 0.0090537112    190.71426  0.029810531 
number of iterations: 2326 
   32800    88.488926     3950         3315          635 3.3480352e-12 5.8902749e-14          0.1 0.0090544895    193.27475  0.029809234 
number of iterations: 2311 
   32900    88.797941     4000         3359          641 3.392403e-12 5.9373202e-14          0.1 0.0090552108    195.86923  0.029808033 
number of iterations: 2321 
   33000    89.061024     4059         3410          649 3.4373587e-12 5.9847542e-14          0.1 0.0090559853    198.49816  0.029806743 
number of iterations: 2291 
   33100    89.327542     4104         3445          659 3.4829101e-12  6.03258e-14          0.1 0.0090566975    201.16197  0.029805557 
number of iterations: 2297 
   33200    89.605794     4151         3488          663 3.5280457e-12 6.0808008e-14          0.1 0.0090574199    203.86038  0.029804354 
number of iterations: 2299 
   33300    89.884126     4191         3525          666 3.5747988e-12 6.1294198e-14          0.1 0.0090581672    206.59461  0.029803109 
number of iterations: 2317 
   33400    90.184302     4231         3563          668 3.6221716e-12 6.1784402e-14          0.1 0.0090589262    209.36514  0.029801845 
number of iterations: 2314 
   33500     90.45741     4280         3603          677 3.6701721e-12 6.2278653e-14          0.1 0.0090597015    212.17246  0.029800554 
number of iterations: 2316 
   33600    90.821199     4331         3652          679 3.7188086e-12 6.2776984e-14          0.1 0.0090604816    215.01703  0.029799255 
number of iterations: 2329 
   33700    91.105267     4399         3712          687 3.7669601e-12 6.3279427e-14          0.1 0.0090612647    217.89849   0.02979795 
number of iterations: 2348 
   33800    91.423988     4442         3751          691 3.8157145e-12 6.3786016e-14          0.1 0.0090621093    220.81734  0.029796544 
number of iterations: 2312 
   33900    91.696946     4503         3808          695 3.8662798e-12 6.4296785e-14          0.1 0.0090629021    223.77495  0.029795223 
number of iterations: 2356 
   34000    91.987668     4542         3844          698 3.9175151e-12 6.4811768e-14          0.1 0.0090637786    226.77179  0.029793763 
number of iterations: 2312 
   34100    92.267365     4604         3903          701 3.9670616e-12 6.5330997e-14          0.1 0.0090645359    229.80662  0.029792502 
number of iterations: 2314 
   34200    92.540642     4667         3962          705 4.0196324e-12 6.5854509e-14          0.1 0.0090653349    232.88172  0.029791171 
number of iterations: 2331 
   34300    92.852068     4725         4019          706 4.0717954e-12 6.6382337e-14          0.1 0.0090661349     235.9968  0.029789839 
number of iterations: 2343 
   34400    93.157835     4780         4068          712 4.1232773e-12 6.6914517e-14          0.1 0.0090670013    239.15138  0.029788396 
number of iterations: 2350 
   34500    93.442438     4847         4133          714 4.1779182e-12 6.7451084e-14          0.1 0.0090678765    242.34783  0.029786939 
number of iterations: 2336 
   34600     93.70769     4915         4194          721 4.2321877e-12 6.7992075e-14          0.1 0.0090687874    245.58587  0.029785421 
number of iterations: 2321 
   34700    93.981826     4975         4248          727 4.2871029e-12 6.8537524e-14          0.1 0.0090696432      248.866  0.029783996 
number of iterations: 2362 
   34800    94.268477     5054         4321          733 4.3439147e-12 6.9087468e-14          0.1 0.0090705925    252.18966  0.029782415 
number of iterations: 2336 
   34900    94.566092     5117         4372          745 4.4014794e-12 6.9641946e-14          0.1 0.0090714801    255.55743  0.029780937 
number of iterations: 2372 
   35000    94.930391     5179         4432          747 4.4598069e-12 7.0200992e-14          0.1  0.009072466     258.9699  0.029779295 
Loop time of 94.9304 on 32 procs for 35000 steps with 5179 atoms

Performance: 318549056.056 tau/day, 368.691 timesteps/s
91.7% CPU use with 32 MPI tasks x no OpenMP threads

MPI task timing breakdown:
Section |  min time  |  avg time  |  max time  |%varavg| %total
---------------------------------------------------------------
Pair    | 0.010532   | 0.073548   | 0.21191    |  16.1 |  0.08
Neigh   | 0.0050074  | 0.021917   | 0.05429    |   7.8 |  0.02
Comm    | 0.022639   | 0.18329    | 0.2979     |  16.2 |  0.19
Output  | 23.861     | 23.861     | 23.868     |   0.0 | 25.14
Modify  | 70.297     | 70.345     | 70.403     |   0.3 | 74.10
Other   |            | 0.446      |            |       |  0.47

Nlocal:    161.844 ave 361 max 18 min
Histogram: 3 4 4 4 7 3 2 2 1 2
Nghost:    98.4375 ave 216 max 0 min
Histogram: 2 3 8 1 3 6 2 4 1 2
Neighs:    581.469 ave 1545 max 41 min
Histogram: 3 6 6 5 5 1 3 1 1 1

Total # of neighbors = 18607
Ave neighs/atom = 3.59278
Neighbor list builds = 657
Dangerous builds = 0
Total wall time: 0:01:35
