LAMMPS (20 Nov 2019)
# NUFEB simulation

atom_style	bio
atom_modify	map array sort 1000 5.0e-7
boundary	ff ff ff
newton		off
processors  * * *

comm_modify	vel yes

read_data_bio atom_1_1_15_1_2021-12-13.in
  orthogonal box = (0 0 0) to (0.001 0.001 0.0001)
  2 by 3 by 1 MPI processor grid
  reading atoms ...
  2 atoms
  4 nutrients

##############Define initial particle distribution##############

lattice sc 1e-6 origin 0 0 0
Lattice spacing in x,y,z = 100 100 100
region reg block 0 1000 0 1000 0 100

group CYANO type 1
1 atoms in group CYANO
group ECW type 2
1 atoms in group ECW

neighbor	5e-7 bin
neigh_modify	delay 0 one 5000

##############Define DEM Variables&Commands##############

pair_style  gran/hooke/history 1.e-4 NULL 1.e-5 NULL 0.0 1
pair_coeff  * *

timestep 10

fix 1 all nve/limit 1e-8
fix fv all viscous 1e-5

fix zw all wall/gran hooke/history 2000 NULL 500.0 NULL 1.5 0 zplane  0.0  0.0001

variable kanc equal 50

variable ke equal 5e+10


##############Define IBm Variables##############

#variables used in fix eps_extract
variable EPSdens equal 30
variable EPSratio equal 1.3

#variables used in fix division
variable divDia1 equal 1.96e-6
variable divDia2 equal 1.04e-6

#variables used in fix kinetics
variable diffT equal 1e-4
variable tol equal 1e-11
variable etaHET equal 0.6
variable layer equal -1

#variables used in fix death
#variable deadDia equal 9e-7


##############Define IBm Commands##############

fix k1 all kinetics 100 10 10 1 v_diffT v_layer niter 1000000
fix kgm all kinetics/growth/monod sucexp 0.153
fix g1 all kinetics/diffusion v_tol
fix d1 CYANO divide 100 v_EPSdens v_divDia1 274230
fix d2 ECW divide 100 v_EPSdens v_divDia2 470607
#fix d2 all death 1 v_deadDia demflag 0


##############Define IBm Computes##############

compute myNtypes all ntypes
compute myMass all biomass
compute myCon all avg_con

##############Simulation exit condition##############
variable co2 equal c_myCon[4]
fix 10 all halt 1000 v_co2 <= 1e-19

variable light equal c_myCon[1]
fix 11 all halt 1000 v_light <= 1e-19

##############Simulation Output##############


dump    du3 all bio 100 ntypes biomass avg_con
dump    traj all bio/hdf5 100 trajectory.h5 id type radius x y z con
thermo_style    custom step cpu atoms c_myNtypes[*] c_myMass[*] c_myCon[*]
thermo		100
thermo_modify	lost ignore


run 35000
Model is defined as a closed system. 
Neighbor list info ...
  update every 1 steps, delay 0 steps, check yes
  max neighbors/atom: 5000, page size: 100000
  master list distance cutoff = 1.89e-06
  ghost atom cutoff = 1.89e-06
  binsize = 9.45e-07, bins = 1059 1059 106
  1 neighbor lists, perpetual/occasional/extra = 1 0 0
  (1) pair gran/hooke/history, perpetual
      attributes: half, newton off, size, history
      pair build: half/size/bin/newtoff
      stencil: half/bin/3d/newtoff
      bin: standard
Per MPI rank memory allocation (min/avg/max) = 84.25 | 92.35 | 108.5 Mbytes
Step CPU Atoms c_myNtypes[1] c_myNtypes[2] c_myMass[1] c_myMass[2] c_myCon[1] c_myCon[2] c_myCon[3] c_myCon[4] 
       0            0        2            1            1 5.2028912e-16 1.3941014e-16          0.1        0.009     3.42e-20       0.0299 
number of iterations: 578271 
     100    4.9203493        3            1            2 5.2974479e-16 1.3941014e-16          0.1 0.0090000002 5.9334916e-09       0.0299 
number of iterations: 265449 
     200    6.7037533        3            1            2 5.3937231e-16 1.3941014e-16          0.1 0.0090000003 2.4502766e-08       0.0299 
number of iterations: 172227 
     300    7.8388258        3            1            2 5.491748e-16 1.3941014e-16          0.1 0.0090000003 5.353459e-08       0.0299 
number of iterations: 147179 
     400    8.8204361        3            1            2 5.5915543e-16 1.3941014e-16          0.1 0.0090000003 8.7039003e-08       0.0299 
number of iterations: 128206 
     500    9.6770474        3            1            2 5.6931746e-16 1.3941014e-16          0.1 0.0090000003 1.2466163e-07       0.0299 
number of iterations: 113239 
     600    10.499438        3            1            2 5.7966416e-16 1.3941014e-16          0.1 0.0090000003 1.6611951e-07       0.0299 
number of iterations: 101050 
     700    11.293103        3            1            2 5.9019891e-16 1.3941014e-16          0.1 0.0090000003 2.1118921e-07       0.0299 
number of iterations: 90872 
     800    11.917243        3            1            2 6.0092511e-16 1.3941014e-16          0.1 0.0090000003 2.5969379e-07       0.0299 
number of iterations: 82202 
     900    12.489609        3            1            2 6.1184625e-16 1.3941014e-16          0.1 0.0090000003 3.1149239e-07       0.0299 
number of iterations: 74697 
    1000    13.430631        3            1            2 6.2296587e-16 1.3941014e-16          0.1 0.0090000003 3.664722e-07       0.0299 
number of iterations: 68111 
    1100    13.921777        3            1            2 6.3428758e-16 1.3941014e-16          0.1 0.0090000003 4.2454355e-07       0.0299 
number of iterations: 62269 
    1200    14.375578        3            1            2 6.4581504e-16 1.3941014e-16          0.1 0.0090000003 4.8563405e-07       0.0299 
number of iterations: 57038 
    1300    14.811075        3            1            2 6.5755201e-16 1.3941014e-16          0.1 0.0090000003 5.4968597e-07  0.029899999 
number of iterations: 52313 
    1400    15.198932        3            1            2 6.6950228e-16 1.3941014e-16          0.1 0.0090000003 6.1665494e-07  0.029899999 
number of iterations: 48020 
    1500    15.579356        3            1            2 6.8166973e-16 1.3941015e-16          0.1 0.0090000004 6.8650485e-07  0.029899999 
number of iterations: 44093 
    1600    16.087025        3            1            2 6.9405831e-16 1.3941015e-16          0.1 0.0090000004 7.5920937e-07  0.029899999 
number of iterations: 40483 
    1700    16.612388        3            1            2 7.0667204e-16 1.3941015e-16          0.1 0.0090000004 8.3474893e-07  0.029899999 
number of iterations: 37148 
    1800    16.957335        3            1            2 7.1951502e-16 1.3941015e-16          0.1 0.0090000004 9.1311068e-07  0.029899999 
number of iterations: 34056 
    1900    17.275873        3            1            2 7.3259139e-16 1.3941015e-16          0.1 0.0090000004 9.9428645e-07  0.029899999 
number of iterations: 31177 
    2000    17.983694        3            1            2 7.4590542e-16 1.3941016e-16          0.1 0.0090000004 1.0782737e-06  0.029899999 
number of iterations: 28487 
    2100    18.387738        3            1            2 7.5946142e-16 1.3941016e-16          0.1 0.0090000004 1.1650745e-06  0.029899999 
number of iterations: 25968 
    2200     18.79367        3            1            2 7.7326378e-16 1.3941016e-16          0.1 0.0090000004 1.2546936e-06  0.029899999 
number of iterations: 24643 
    2300    19.418041        3            1            2 7.8731698e-16 1.3941016e-16          0.1 0.0090000004 1.337328e-06  0.029899999 
number of iterations: 22652 
    2400    19.724832        3            1            2 8.0162558e-16 1.3941017e-16          0.1 0.0090000004 1.4230044e-06  0.029899999 
number of iterations: 20739 
    2500    19.958011        3            1            2 8.1619423e-16 1.3941017e-16          0.1 0.0090000004 1.5117869e-06  0.029899999 
number of iterations: 18898 
    2600    20.165243        3            1            2 8.3102764e-16 1.3941017e-16          0.1 0.0090000004 1.603742e-06  0.029899999 
number of iterations: 17126 
    2700    20.355506        3            1            2 8.4613064e-16 1.3941018e-16          0.1 0.0090000004 1.6989365e-06  0.029899999 
number of iterations: 15418 
    2800    20.517854        3            1            2 8.6150811e-16 1.3941018e-16          0.1 0.0090000004 1.7974395e-06  0.029899999 
number of iterations: 13769 
    2900    20.689834        3            1            2 8.7716505e-16 1.3941019e-16          0.1 0.0090000004 1.899323e-06  0.029899999 
number of iterations: 12177 
    3000    21.268594        3            1            2 8.9310655e-16 1.3941019e-16          0.1 0.0090000004 2.004659e-06  0.029899999 
number of iterations: 10638 
    3100    21.430007        3            1            2 9.0933775e-16 1.394102e-16          0.1 0.0090000004 2.1135222e-06  0.029899999 
number of iterations: 9148 
    3200    21.578535        3            1            2 9.2586395e-16 1.394102e-16          0.1 0.0090000004  2.22599e-06  0.029899999 
number of iterations: 7706 
    3300    21.722424        3            1            2 9.4269049e-16 1.3941021e-16          0.1 0.0090000004 2.3421401e-06  0.029899999 
number of iterations: 6309 
    3400    21.851494        3            1            2 9.5982283e-16 1.3941021e-16          0.1 0.0090000004 2.462052e-06  0.029899999 
number of iterations: 4954 
    3500    21.958439        3            1            2 9.7726653e-16 1.3941022e-16          0.1 0.0090000004 2.5858082e-06  0.029899999 
number of iterations: 4423 
    3600    22.052196        3            1            2 9.9502726e-16 1.3941022e-16          0.1 0.0090000005 2.7134927e-06  0.029899999 
number of iterations: 4487 
    3700    22.146404        3            1            2 1.0131108e-15 1.3941023e-16          0.1 0.0090000005 2.8451901e-06  0.029899999 
number of iterations: 4551 
    3800    22.235746        3            1            2 1.0315229e-15 1.3941024e-16          0.1 0.0090000005 2.9809885e-06  0.029899999 
number of iterations: 4615 
    3900    22.315522        3            1            2 1.0502697e-15 1.3941024e-16          0.1 0.0090000005 3.1208543e-06  0.029899999 
number of iterations: 4678 
    4000    22.789318        3            1            2 1.0693572e-15 1.3941025e-16          0.1 0.0090000005 3.2632621e-06  0.029899999 
number of iterations: 4743 
    4100    22.872951        3            1            2 1.0887915e-15 1.3941026e-16          0.1 0.0090000005 3.4082579e-06  0.029899999 
number of iterations: 4808 
    4200    22.966929        3            1            2 1.1085791e-15 1.3941027e-16          0.1 0.0090000005 3.5558889e-06  0.029899999 
number of iterations: 4874 
    4300    23.064483        3            1            2 1.1287263e-15 1.3941027e-16          0.1 0.0090000005 3.7062029e-06  0.029899999 
number of iterations: 4939 
    4400    23.157876        3            1            2 1.1492396e-15 1.3941028e-16          0.1 0.0090000005 3.8592486e-06  0.029899999 
number of iterations: 5006 
    4500    23.248144        3            1            2 1.1701257e-15 1.3941029e-16          0.1 0.0090000005 4.0150758e-06  0.029899999 
number of iterations: 5073 
    4600    23.332454        3            1            2 1.1913915e-15 1.394103e-16          0.1 0.0090000005 4.173735e-06  0.029899999 
number of iterations: 5141 
    4700    23.419322        3            1            2 1.2130437e-15 1.3941031e-16          0.1 0.0090000006 4.3352776e-06  0.029899999 
number of iterations: 5209 
    4800    23.509514        3            1            2 1.2350894e-15 1.3941032e-16          0.1 0.0090000006 4.4997561e-06  0.029899999 
number of iterations: 5278 
    4900    23.610374        3            1            2 1.2575357e-15 1.3941033e-16          0.1 0.0090000006 4.6672238e-06  0.029899999 
number of iterations: 5348 
    5000     24.13908        3            1            2  1.28039e-15 1.3941034e-16          0.1 0.0090000006 4.837735e-06  0.029899999 
number of iterations: 5418 
    5100     24.27848        3            1            2 1.3036597e-15 1.3941035e-16          0.1 0.0090000006 5.0113451e-06  0.029899999 
number of iterations: 5489 
    5200    24.403286        3            1            2 1.3273522e-15 1.3941037e-16          0.1 0.0090000006 5.1881103e-06  0.029899999 
number of iterations: 5560 
    5300    24.503808        3            1            2 1.3514754e-15 1.3941038e-16          0.1 0.0090000006 5.3680881e-06  0.029899999 
number of iterations: 5633 
    5400     24.62613        3            1            2 1.3760369e-15 1.3941039e-16          0.1 0.0090000006 5.5513367e-06  0.029899999 
number of iterations: 5705 
    5500    24.732935        3            1            2 1.4010449e-15 1.394104e-16          0.1 0.0090000006 5.7379156e-06  0.029899999 
number of iterations: 5779 
    5600    24.841766        3            1            2 1.4265073e-15 1.3941042e-16          0.1 0.0090000007 5.9278854e-06  0.029899999 
number of iterations: 5853 
    5700    24.971754        3            1            2 1.4524325e-15 1.3941043e-16          0.1 0.0090000007 6.1213077e-06  0.029899999 
number of iterations: 5928 
    5800    25.092535        3            1            2 1.4788288e-15 1.3941044e-16          0.1 0.0090000007 6.3182453e-06  0.029899999 
number of iterations: 23385 
    5900    25.475866        4            2            2 1.5057048e-15 1.3941046e-16          0.1 0.0090000007 6.5187644e-06  0.029899999 
number of iterations: 3525 
    6000    26.022915        4            2            2 1.5330693e-15 1.3941047e-16          0.1 0.0090000008 6.7229278e-06  0.029899999 
number of iterations: 3798 
    6100    26.123699        4            2            2 1.5609311e-15 1.3941049e-16          0.1 0.0090000008 6.9308016e-06  0.029899999 
number of iterations: 4000 
    6200    26.202905        4            2            2 1.5892993e-15 1.3941051e-16          0.1 0.0090000008 7.1424532e-06  0.029899999 
number of iterations: 4147 
    6300    26.283367        4            2            2 1.6181831e-15 1.3941052e-16          0.1 0.0090000008 7.3579514e-06  0.029899999 
number of iterations: 4683 
    6400     26.37479        4            2            2 1.6475917e-15 1.3941054e-16          0.1 0.0090000008 7.5773661e-06  0.029899999 
number of iterations: 4915 
    6500    26.458297        4            2            2 1.6775348e-15 1.3941056e-16          0.1 0.0090000008 7.8007683e-06  0.029899999 
number of iterations: 4976 
    6600    26.559158        4            2            2 1.7080222e-15 1.3941058e-16          0.1 0.0090000008 8.0282306e-06  0.029899999 
number of iterations: 5042 
    6700    26.650192        4            2            2 1.7390635e-15 1.394106e-16          0.1 0.0090000008 8.2598268e-06  0.029899999 
number of iterations: 5109 
    6800    26.740999        4            2            2 1.7706691e-15 1.3941061e-16          0.1 0.0090000009 8.495632e-06  0.029899999 
number of iterations: 5177 
    6900     26.83212        4            2            2 1.802849e-15 1.3941063e-16          0.1 0.0090000009 8.7357226e-06  0.029899999 
number of iterations: 5247 
    7000     27.29569        4            2            2 1.8356138e-15 1.3941065e-16          0.1 0.0090000009 8.9801767e-06  0.029899999 
number of iterations: 5318 
    7100    27.378051        4            2            2 1.868974e-15 1.3941068e-16          0.1 0.0090000009 9.2290734e-06  0.029899999 
number of iterations: 5390 
    7200    27.460947        4            2            2 1.9029405e-15 1.394107e-16          0.1 0.0090000009 9.4824935e-06  0.029899999 
number of iterations: 5463 
    7300    27.548267        4            2            2 1.9375243e-15 1.3941072e-16          0.1  0.009000001 9.7405193e-06  0.029899998 
number of iterations: 5536 
    7400    27.635813        4            2            2 1.9727366e-15 1.3941074e-16          0.1  0.009000001 1.0003234e-05  0.029899998 
number of iterations: 5611 
    7500    27.724798        4            2            2 2.0085889e-15 1.3941077e-16          0.1  0.009000001 1.0270724e-05  0.029899998 
number of iterations: 5686 
    7600    27.820615        4            2            2 2.0450928e-15 1.3941079e-16          0.1  0.009000001 1.0543075e-05  0.029899998 
number of iterations: 5762 
    7700    27.931253        4            2            2  2.08226e-15 1.3941081e-16          0.1  0.009000001 1.0820376e-05  0.029899998 
number of iterations: 5839 
    7800    28.027401        4            2            2 2.1201028e-15 1.3941084e-16          0.1  0.009000001 1.1102716e-05  0.029899998 
number of iterations: 5917 
    7900    28.125751        4            2            2 2.1586332e-15 1.3941087e-16          0.1 0.0090000011 1.1390187e-05  0.029899998 
number of iterations: 5995 
    8000    28.614882        4            2            2 2.197864e-15 1.3941089e-16          0.1 0.0090000011 1.1682883e-05  0.029899998 
number of iterations: 6074 
    8100    28.702956        4            2            2 2.2378077e-15 1.3941092e-16          0.1 0.0090000011 1.1980898e-05  0.029899998 
number of iterations: 6154 
    8200    28.791716        4            2            2 2.2784773e-15 1.3941095e-16          0.1 0.0090000011 1.228433e-05  0.029899998 
number of iterations: 6234 
    8300    28.883658        4            2            2 2.3198861e-15 1.3941098e-16          0.1 0.0090000011 1.2593276e-05  0.029899998 
number of iterations: 6315 
    8400    28.978578        4            2            2 2.3620474e-15 1.3941101e-16          0.1 0.0090000012 1.2907836e-05  0.029899998 
number of iterations: 6398 
    8500     29.07304        4            2            2 2.404975e-15 1.3941104e-16          0.1 0.0090000012 1.3228114e-05  0.029899998 
number of iterations: 6480 
    8600    29.166756        4            2            2 2.4486827e-15 1.3941107e-16          0.1 0.0090000012 1.3554212e-05  0.029899998 
number of iterations: 6563 
    8700    29.261574        4            2            2 2.4931848e-15 1.394111e-16          0.1 0.0090000012 1.3886237e-05  0.029899998 
number of iterations: 6648 
    8800    29.352665        4            2            2 2.5384956e-15 1.3941113e-16          0.1 0.0090000013 1.4224295e-05  0.029899998 
number of iterations: 6733 
    8900    29.449882        4            2            2 2.5846299e-15 1.3941116e-16          0.1 0.0090000013 1.4568498e-05  0.029899998 
number of iterations: 6818 
    9000    29.928911        5            3            2 2.6316027e-15 1.394112e-16          0.1 0.0090000013 1.4918956e-05  0.029899998 
number of iterations: 6905 
    9100    30.027679        5            3            2 2.6794291e-15 1.3941123e-16          0.1 0.0090000013 1.5275783e-05  0.029899998 
number of iterations: 6992 
    9200    30.124404        5            3            2 2.7281247e-15 1.3941127e-16          0.1 0.0090000014 1.5639096e-05  0.029899998 
number of iterations: 7079 
    9300    30.224923        5            3            2 2.7777053e-15 1.3941131e-16          0.1 0.0090000014 1.6009011e-05  0.029899998 
number of iterations: 7168 
    9400    30.325783        5            3            2 2.828187e-15 1.3941134e-16          0.1 0.0090000014 1.6385648e-05  0.029899998 
number of iterations: 7258 
    9500    30.427374        5            3            2 2.8795861e-15 1.3941138e-16          0.1 0.0090000014 1.6769131e-05  0.029899998 
number of iterations: 7347 
    9600    30.528685        5            3            2 2.9319194e-15 1.3941142e-16          0.1 0.0090000015 1.7159583e-05  0.029899998 
number of iterations: 7438 
    9700    30.631926        5            3            2 2.9852037e-15 1.3941146e-16          0.1 0.0090000015 1.7557131e-05  0.029899998 
number of iterations: 7530 
    9800    30.755707        5            3            2 3.0394565e-15 1.394115e-16          0.1 0.0090000015 1.7961904e-05  0.029899998 
number of iterations: 7622 
    9900    30.874272        5            3            2 3.0946952e-15 1.3941154e-16          0.1 0.0090000015 1.8374034e-05  0.029899998 
number of iterations: 7715 
   10000    31.406557        5            3            2 3.1509378e-15 1.3941159e-16          0.1 0.0090000016 1.8793653e-05  0.029899997 
number of iterations: 7808 
   10100     31.52068        5            3            2 3.2082025e-15 1.3941163e-16          0.1 0.0090000016 1.9220899e-05  0.029899997 
number of iterations: 7903 
   10200    31.637359        5            3            2 3.266508e-15 1.3941168e-16          0.1 0.0090000016 1.9655909e-05  0.029899997 
number of iterations: 7998 
   10300    31.754265        5            3            2 3.3258731e-15 1.3941172e-16          0.1 0.0090000017 2.0098825e-05  0.029899997 
number of iterations: 8094 
   10400    31.863538        5            3            2 3.3863172e-15 1.3941177e-16          0.1 0.0090000017 2.054979e-05  0.029899997 
number of iterations: 8190 
   10500    31.979599        5            3            2 3.4478597e-15 1.3941182e-16          0.1 0.0090000017 2.1008952e-05  0.029899997 
number of iterations: 8288 
   10600    32.086032        6            4            2 3.5105207e-15 1.3941187e-16          0.1 0.0090000018 2.1476458e-05  0.029899997 
number of iterations: 8386 
   10700     32.19479        6            4            2 3.5743204e-15 1.3941192e-16          0.1 0.0090000018 2.195246e-05  0.029899997 
number of iterations: 8484 
   10800    32.313065        6            4            2 3.6392797e-15 1.3941197e-16          0.1 0.0090000018 2.2437114e-05  0.029899997 
number of iterations: 8584 
   10900    32.428062        6            4            2 3.7054195e-15 1.3941202e-16          0.1 0.0090000018 2.2930575e-05  0.029899997 
number of iterations: 8684 
   11000    32.906885        6            4            2 3.7727614e-15 1.3941207e-16          0.1 0.0090000019 2.3433004e-05  0.029899997 
number of iterations: 8785 
   11100    33.020499        6            4            2 3.8413271e-15 1.3941213e-16          0.1 0.0090000019 2.3944565e-05  0.029899997 
number of iterations: 8886 
   11200    33.135611        6            4            2 3.9111389e-15 1.3941218e-16          0.1  0.009000002 2.4465422e-05  0.029899997 
number of iterations: 8989 
   11300     33.25831        6            4            2 3.9822194e-15 1.3941224e-16          0.1  0.009000002 2.4995746e-05  0.029899997 
number of iterations: 9091 
   11400    33.375222        6            4            2 4.0545918e-15 1.394123e-16          0.1  0.009000002 2.5535707e-05  0.029899997 
number of iterations: 9195 
   11500    33.497634        6            4            2 4.1282795e-15 1.3941236e-16          0.1 0.0090000021 2.6085482e-05  0.029899997 
number of iterations: 9300 
   11600    33.622128        6            4            2 4.2033063e-15 1.3941242e-16          0.1 0.0090000021 2.6645248e-05  0.029899997 
number of iterations: 9404 
   11700    33.751444        6            4            2 4.2796967e-15 1.3941248e-16          0.1 0.0090000021 2.7215187e-05  0.029899997 
number of iterations: 9510 
   11800     33.88538        6            4            2 4.3574754e-15 1.3941255e-16          0.1 0.0090000022 2.7795485e-05  0.029899996 
number of iterations: 9617 
   11900    34.012898        6            4            2 4.4366676e-15 1.3941261e-16          0.1 0.0090000022 2.8386328e-05  0.029899996 
number of iterations: 9724 
   12000     34.51778        6            4            2 4.5172991e-15 1.3941268e-16          0.1 0.0090000023 2.898791e-05  0.029899996 
number of iterations: 9832 
   12100    34.645177        6            4            2 4.5993959e-15 1.3941275e-16          0.1 0.0090000023 2.9600424e-05  0.029899996 
number of iterations: 9940 
   12200    34.773398        6            4            2 4.6829848e-15 1.3941281e-16          0.1 0.0090000023 3.0224071e-05  0.029899996 
number of iterations: 10049 
   12300     34.90382        6            4            2 4.7680928e-15 1.3941289e-16          0.1 0.0090000024 3.0859051e-05  0.029899996 
number of iterations: 10159 
   12400    35.047931        6            4            2 4.8547475e-15 1.3941296e-16          0.1 0.0090000024 3.1505572e-05  0.029899996 
number of iterations: 10270 
   12500    35.177498        6            4            2 4.9429771e-15 1.3941303e-16          0.1 0.0090000025 3.2163842e-05  0.029899996 
number of iterations: 26626 
   12600    35.480434        7            5            2 5.0328101e-15 1.3941311e-16          0.1 0.0090000026 3.2834076e-05  0.029899996 
number of iterations: 10674 
   12700    35.654044        7            5            2 5.1242758e-15 1.3941318e-16          0.1 0.0090000026 3.3516491e-05  0.029899996 
number of iterations: 11050 
   12800    35.814625        7            5            2 5.2174038e-15 1.3941326e-16          0.1 0.0090000027 3.4211308e-05  0.029899996 
number of iterations: 11230 
   12900    35.989949        7            5            2 5.3122242e-15 1.3941334e-16          0.1 0.0090000027 3.4918752e-05  0.029899996 
number of iterations: 11363 
   13000    36.641792        7            5            2 5.408768e-15 1.3941342e-16          0.1 0.0090000028 3.5639054e-05  0.029899995 
number of iterations: 27705 
   13100    37.054622        8            6            2 5.5070662e-15 1.3941352e-16          0.1 0.0090000029 3.6372446e-05  0.029899995 
number of iterations: 5981 
   13200    37.141685        8            6            2 5.607151e-15 1.3941361e-16          0.1 0.0090000029 3.7119167e-05  0.029899995 
number of iterations: 10736 
   13300    37.274774        8            6            2 5.7090547e-15 1.3941371e-16          0.1 0.0090000029 3.7879459e-05  0.029899995 
number of iterations: 11258 
   13400    37.417719        8            6            2 5.8128103e-15 1.3941381e-16          0.1  0.009000003 3.8653568e-05  0.029899995 
number of iterations: 11506 
   13500    37.559224        9            7            2 5.9184516e-15 1.3941391e-16          0.1 0.0090000031 3.9441745e-05  0.029899995 
number of iterations: 11668 
   13600    37.707353        9            7            2 6.0260129e-15 1.3941401e-16          0.1 0.0090000031 4.0244247e-05  0.029899995 
number of iterations: 11803 
   13700    37.862321        9            7            2 6.1355289e-15 1.3941412e-16          0.1 0.0090000032 4.1061333e-05  0.029899995 
number of iterations: 11929 
   13800    38.011845        9            7            2 6.2470352e-15 1.3941423e-16          0.1 0.0090000032 4.1893269e-05  0.029899995 
number of iterations: 12052 
   13900    38.161729        9            7            2 6.3605681e-15 1.3941434e-16          0.1 0.0090000033 4.2740325e-05  0.029899995 
number of iterations: 12174 
   14000    38.769403        9            7            2 6.4761643e-15 1.3941445e-16          0.1 0.0090000033 4.3602775e-05  0.029899995 
number of iterations: 12297 
   14100    38.922317        9            7            2 6.5938613e-15 1.3941456e-16          0.1 0.0090000034 4.4480899e-05  0.029899994 
number of iterations: 12420 
   14200    39.075827        9            7            2 6.7136973e-15 1.3941468e-16          0.1 0.0090000035 4.5374981e-05  0.029899994 
number of iterations: 12544 
   14300    39.225373        9            7            2 6.8357112e-15 1.394148e-16          0.1 0.0090000035 4.6285313e-05  0.029899994 
number of iterations: 12668 
   14400    39.375486        9            7            2 6.9599426e-15 1.3941492e-16          0.1 0.0090000036 4.7212189e-05  0.029899994 
number of iterations: 12793 
   14500    39.525443        9            7            2 7.0864318e-15 1.3941504e-16          0.1 0.0090000037 4.815591e-05  0.029899994 
number of iterations: 12918 
   14600    39.685769        9            7            2 7.2152197e-15 1.3941517e-16          0.1 0.0090000037 4.9116782e-05  0.029899994 
number of iterations: 13045 
   14700    39.846093        9            7            2 7.3463482e-15 1.394153e-16          0.1 0.0090000038 5.0095117e-05  0.029899994 
number of iterations: 13171 
   14800    40.009602        9            7            2 7.4798599e-15 1.3941543e-16          0.1 0.0090000039 5.1091231e-05  0.029899994 
number of iterations: 13298 
   14900    40.179804        9            7            2 7.6157979e-15 1.3941556e-16          0.1 0.0090000039 5.2105449e-05  0.029899994 
number of iterations: 13427 
   15000    40.712195        9            7            2 7.7542065e-15 1.394157e-16          0.1  0.009000004  5.31381e-05  0.029899993 
number of iterations: 13555 
   15100    40.882885        9            7            2 7.8951305e-15 1.3941584e-16          0.1 0.0090000041 5.4189517e-05  0.029899993 
number of iterations: 13684 
   15200    41.057844        9            7            2 8.0386157e-15 1.3941598e-16          0.1 0.0090000042 5.5260043e-05  0.029899993 
number of iterations: 13814 
   15300    41.244456        9            7            2 8.1847085e-15 1.3941612e-16          0.1 0.0090000042 5.6350025e-05  0.029899993 
number of iterations: 13944 
   15400    41.419292        9            7            2 8.3334564e-15 1.3941627e-16          0.1 0.0090000043 5.7459816e-05  0.029899993 
number of iterations: 14075 
   15500      41.5995       10            8            2 8.4849076e-15 1.3941642e-16          0.1 0.0090000044 5.8589776e-05  0.029899993 
number of iterations: 14207 
   15600    41.772237       10            8            2 8.6391113e-15 1.3941657e-16          0.1 0.0090000045 5.9740271e-05  0.029899993 
number of iterations: 29117 
   15700    42.087137       11            9            2 8.7961174e-15 1.3941674e-16          0.1 0.0090000045 6.0911675e-05  0.029899992 
number of iterations: 7597 
   15800    42.188178       11            9            2 8.955977e-15 1.3941691e-16          0.1 0.0090000046 6.2104369e-05  0.029899992 
number of iterations: 12989 
   15900    42.329447       11            9            2 9.1187418e-15 1.3941709e-16          0.1 0.0090000047 6.3318737e-05  0.029899992 
number of iterations: 13558 
   16000    42.889647       11            9            2 9.2844647e-15 1.3941726e-16          0.1 0.0090000047 6.4555176e-05  0.029899992 
number of iterations: 13796 
   16100    43.072333       11            9            2 9.4531994e-15 1.3941745e-16          0.1 0.0090000048 6.5814086e-05  0.029899992 
number of iterations: 13959 
   16200    43.243164       11            9            2 9.6250007e-15 1.3941763e-16          0.1 0.0090000049 6.7095875e-05  0.029899992 
number of iterations: 14100 
   16300    43.418608       11            9            2 9.7999243e-15 1.3941782e-16          0.1  0.009000005 6.8400958e-05  0.029899992 
number of iterations: 14236 
   16400    43.598998       11            9            2 9.9780269e-15 1.3941801e-16          0.1 0.0090000051 6.9729761e-05  0.029899992 
number of iterations: 14370 
   16500    43.767964       11            9            2 1.0159366e-14 1.394182e-16          0.1 0.0090000052 7.1082713e-05  0.029899991 
number of iterations: 14505 
   16600    43.940803       11            9            2 1.0344001e-14 1.394184e-16          0.1 0.0090000053 7.2460253e-05  0.029899991 
number of iterations: 29359 
   16700    44.275721       12           10            2 1.0531992e-14 1.3941862e-16          0.1 0.0090000054 7.3862828e-05  0.029899991 
number of iterations: 10700 
   16800    44.404855       12           10            2 1.0723399e-14 1.3941884e-16          0.1 0.0090000055 7.5290894e-05  0.029899991 
number of iterations: 14195 
   16900    44.569546       13           11            2 1.0918285e-14 1.3941906e-16          0.1 0.0090000056 7.6744913e-05  0.029899991 
number of iterations: 14602 
   17000    45.114508       13           11            2 1.1116713e-14 1.3941929e-16          0.1 0.0090000057 7.8225357e-05  0.029899991 
number of iterations: 14802 
   17100     45.28998       13           11            2 1.1318746e-14 1.3941952e-16          0.1 0.0090000058 7.9732707e-05   0.02989999 
number of iterations: 29818 
   17200    45.624751       14           12            2 1.1524452e-14 1.3941976e-16          0.1 0.0090000059 8.1267451e-05   0.02989999 
number of iterations: 27683 
   17300    45.981422       15           13            2 1.1733896e-14 1.3942001e-16          0.1  0.009000006 8.2830088e-05   0.02989999 
number of iterations: 14897 
   17400    46.176447       15           13            2 1.1947146e-14 1.3942025e-16          0.1 0.0090000061 8.4421123e-05   0.02989999 
number of iterations: 15326 
   17500    46.390411       15           13            2 1.2164272e-14 1.3942051e-16          0.1 0.0090000062 8.6041074e-05   0.02989999 
number of iterations: 15436 
   17600    46.587194       15           13            2 1.2385344e-14 1.3942076e-16          0.1 0.0090000063 8.7690466e-05   0.02989999 
number of iterations: 15566 
   17700    46.788099       15           13            2 1.2610434e-14 1.3942102e-16          0.1 0.0090000065 8.9369833e-05  0.029899989 
number of iterations: 15702 
   17800    46.974104       16           14            2 1.2839614e-14 1.3942129e-16          0.1 0.0090000066 9.1079721e-05  0.029899989 
number of iterations: 25672 
   17900    47.273054       16           14            2 1.307296e-14 1.3942156e-16          0.1 0.0090000067 9.2820684e-05  0.029899989 
number of iterations: 11904 
   18000    47.789759       16           14            2 1.3310546e-14 1.3942184e-16          0.1 0.0090000067 9.4593286e-05  0.029899989 
number of iterations: 15362 
   18100     47.97252       16           14            2 1.3552451e-14 1.3942212e-16          0.1 0.0090000069 9.6398104e-05  0.029899989 
number of iterations: 15597 
   18200    48.150041       16           14            2 1.3798751e-14 1.3942241e-16          0.1  0.009000007 9.8235722e-05  0.029899988 
number of iterations: 15760 
   18300    48.329051       16           14            2 1.4049528e-14 1.394227e-16          0.1 0.0090000071 0.00010010674  0.029899988 
number of iterations: 15906 
   18400    48.508909       16           14            2 1.4304862e-14  1.39423e-16          0.1 0.0090000072 0.00010201176  0.029899988 
number of iterations: 16049 
   18500    48.707617       17           15            2 1.4564837e-14 1.394233e-16          0.1 0.0090000074 0.0001039514  0.029899988 
number of iterations: 16191 
   18600    48.992523       17           15            2 1.4829537e-14 1.3942361e-16          0.1 0.0090000075 0.00010592629  0.029899988 
number of iterations: 16333 
   18700    49.207735       17           15            2 1.5099047e-14 1.3942393e-16          0.1 0.0090000076 0.00010793707  0.029899987 
number of iterations: 16475 
   18800    49.480993       17           15            2 1.5373455e-14 1.3942425e-16          0.1 0.0090000078 0.00010998439  0.029899987 
number of iterations: 16618 
   18900    49.697148       17           15            2 1.565285e-14 1.3942458e-16          0.1 0.0090000079 0.00011206893  0.029899987 
number of iterations: 16762 
   19000    50.297393       17           15            2 1.5937323e-14 1.3942491e-16          0.1 0.0090000081 0.00011419135  0.029899987 
number of iterations: 30134 
   19100    50.653047       17           15            2 1.6226966e-14 1.3942525e-16          0.1 0.0090000083 0.00011635234  0.029899986 
number of iterations: 27020 
   19200    51.015448       18           16            2 1.6521873e-14 1.394256e-16          0.1 0.0090000085 0.0001185526  0.029899986 
number of iterations: 29719 
   19300    51.473821       18           16            2 1.682214e-14 1.3942595e-16          0.1 0.0090000087 0.00012079286  0.029899986 
number of iterations: 17745 
   19400    51.757473       18           16            2 1.7127863e-14 1.3942631e-16          0.1 0.0090000089 0.00012307382  0.029899985 
number of iterations: 18086 
   19500    51.991506       18           16            2 1.7439143e-14 1.3942668e-16          0.1  0.009000009 0.00012539624  0.029899985 
number of iterations: 18255 
   19600    52.227126       18           16            2 1.775608e-14 1.3942706e-16          0.1 0.0090000092 0.00012776087  0.029899985 
number of iterations: 33058 
   19700    52.612762       18           16            2 1.8078777e-14 1.3942745e-16          0.1 0.0090000094 0.00013016847  0.029899984 
number of iterations: 14413 
   19800    52.785172       18           16            2 1.8407338e-14 1.3942786e-16          0.1 0.0090000095 0.00013261983  0.029899984 
number of iterations: 17680 
   19900    52.993007       18           16            2 1.8741871e-14 1.3942827e-16          0.1 0.0090000097 0.00013511574  0.029899984 
number of iterations: 18035 
   20000    53.616325       19           17            2 1.9082483e-14 1.3942869e-16          0.1 0.0090000099 0.00013765701  0.029899984 
number of iterations: 18222 
   20100    53.850061       19           17            2 1.9429286e-14 1.3942912e-16          0.1   0.00900001 0.00014024446  0.029899983 
number of iterations: 31749 
   20200    54.206969       21           19            2 1.9782391e-14 1.3942954e-16          0.1 0.0090000103 0.00014287894  0.029899983 
number of iterations: 18818 
   20300    54.465015       21           19            2 2.0141914e-14 1.3942998e-16          0.1 0.0090000104 0.0001455613  0.029899983 
number of iterations: 25701 
   20400    54.801965       23           21            2 2.0507971e-14 1.3943041e-16          0.1 0.0090000106 0.0001482924  0.029899982 
number of iterations: 16855 
   20500    55.026325       23           21            2 2.088068e-14 1.3943086e-16          0.1 0.0090000107 0.00015107314  0.029899982 
number of iterations: 18860 
   20600    55.247352       24           22            2 2.1260163e-14 1.3943132e-16          0.1 0.0090000109 0.00015390442  0.029899982 
number of iterations: 31410 
   20700    55.610314       24           22            2 2.1646543e-14 1.3943177e-16          0.1 0.0090000112 0.00015678715  0.029899981 
number of iterations: 19433 
   20800    55.931987       24           22            2 2.2039944e-14 1.3943223e-16          0.1 0.0090000113 0.00015972227  0.029899981 
number of iterations: 28884 
   20900    56.353225       25           23            2 2.2440496e-14 1.394327e-16          0.1 0.0090000116 0.00016271074  0.029899981 
number of iterations: 29392 
   21000    57.138443       26           24            2 2.2848326e-14 1.3943318e-16          0.1 0.0090000117 0.00016575351   0.02989998 
number of iterations: 17642 
   21100    57.392463       26           24            2 2.3263569e-14 1.3943367e-16          0.1 0.0090000119 0.00016885159   0.02989998 
number of iterations: 19620 
   21200    57.642039       26           24            2 2.3686358e-14 1.3943416e-16          0.1 0.0090000121 0.00017200597   0.02989998 
number of iterations: 19926 
   21300     57.87867       26           24            2 2.4116831e-14 1.3943467e-16          0.1 0.0090000123 0.00017521767   0.02989998 
number of iterations: 20099 
   21400    58.148948       26           24            2 2.4555128e-14 1.3943518e-16          0.1 0.0090000126 0.00017848775  0.029899979 
number of iterations: 32496 
   21500    58.562456       27           25            2 2.500139e-14 1.3943572e-16          0.1 0.0090000128 0.00018181726  0.029899979 
number of iterations: 31895 
   21600    58.983796       28           26            2 2.5455762e-14 1.3943628e-16          0.1 0.0090000131 0.00018520727  0.029899978 
number of iterations: 17046 
   21700    59.210928       28           26            2 2.5918392e-14 1.3943686e-16          0.1 0.0090000132 0.0001886589  0.029899978 
number of iterations: 19692 
   21800    59.440209       28           26            2 2.6389429e-14 1.3943744e-16          0.1 0.0090000135 0.00019217325  0.029899978 
number of iterations: 19987 
   21900    59.678143       28           26            2 2.6869028e-14 1.3943803e-16          0.1 0.0090000137 0.00019575148  0.029899977 
number of iterations: 20168 
   22000    60.284424       29           27            2 2.7357342e-14 1.3943864e-16          0.1  0.009000014 0.00019939473  0.029899977 
number of iterations: 20331 
   22100    60.543042       29           27            2 2.7854531e-14 1.3943926e-16          0.1 0.0090000142 0.0002031042  0.029899976 
number of iterations: 20491 
   22200     60.78708       29           27            2 2.8360756e-14 1.3943988e-16          0.1 0.0090000145 0.00020688108  0.029899976 
number of iterations: 20651 
   22300    61.069956       31           29            2 2.8876181e-14 1.3944052e-16          0.1 0.0090000148 0.0002107266  0.029899976 
number of iterations: 20811 
   22400    61.368241       32           30            2 2.9400973e-14 1.3944118e-16          0.1  0.009000015 0.00021464201  0.029899975 
number of iterations: 20971 
   22500    61.618464       32           30            2 2.9935302e-14 1.3944184e-16          0.1 0.0090000153 0.00021862858  0.029899975 
number of iterations: 21132 
   22600    61.856845       32           30            2 3.0479343e-14 1.3944251e-16          0.1 0.0090000156 0.0002226876  0.029899974 
number of iterations: 21294 
   22700    62.099421       32           30            2 3.1033271e-14 1.394432e-16          0.1 0.0090000159 0.00022682039  0.029899974 
number of iterations: 21455 
   22800     62.36341       33           31            2 3.1597266e-14 1.394439e-16          0.1 0.0090000162 0.00023102828  0.029899973 
number of iterations: 24381 
   22900    62.645982       33           31            2 3.217151e-14 1.3944462e-16          0.1 0.0090000164 0.00023531265  0.029899973 
number of iterations: 21474 
   23000    63.272648       33           31            2 3.2756192e-14 1.3944534e-16          0.1 0.0090000167 0.00023967489  0.029899972 
number of iterations: 21933 
   23100    63.525505       34           32            2 3.3351499e-14 1.3944608e-16          0.1  0.009000017 0.0002441164  0.029899972 
number of iterations: 26562 
   23200    63.825628       35           33            2 3.3957625e-14 1.3944683e-16          0.1 0.0090000173 0.00024863863  0.029899971 
number of iterations: 21005 
   23300     64.06882       37           35            2 3.4574766e-14 1.394476e-16          0.1 0.0090000176 0.00025324305  0.029899971 
number of iterations: 22214 
   23400    64.366459       37           35            2 3.5203124e-14 1.3944838e-16          0.1 0.0090000179 0.00025793115   0.02989997 
number of iterations: 22403 
   23500    64.622802       38           36            2 3.5842901e-14 1.3944917e-16          0.1 0.0090000182 0.00026270445   0.02989997 
number of iterations: 22573 
   23600    64.882045       38           36            2 3.6494305e-14 1.3944998e-16          0.1 0.0090000186 0.00026756449  0.029899969 
number of iterations: 22740 
   23700    65.133845       38           36            2 3.7157548e-14 1.3945081e-16          0.1 0.0090000189 0.00027251287  0.029899969 
number of iterations: 22907 
   23800    65.388809       38           36            2 3.7832845e-14 1.3945165e-16          0.1 0.0090000192 0.00027755117  0.029899968 
number of iterations: 30626 
   23900    65.732321       39           37            2 3.8520415e-14 1.394525e-16          0.1 0.0090000197 0.00028268105  0.029899967 
number of iterations: 23333 
   24000    66.416296       39           37            2 3.922048e-14 1.3945337e-16          0.1   0.00900002 0.00028790415  0.029899967 
number of iterations: 23631 
   24100    66.722017       39           37            2 3.9933268e-14 1.3945426e-16          0.1 0.0090000204 0.00029322217  0.029899966 
number of iterations: 31770 
   24200    67.071622       41           39            2 4.065901e-14 1.3945515e-16          0.1 0.0090000208 0.00029863685  0.029899965 
number of iterations: 29642 
   24300    67.417258       41           39            2 4.1397942e-14 1.3945607e-16          0.1 0.0090000212 0.00030414993  0.029899965 
number of iterations: 22933 
   24400    67.669393       41           39            2 4.2150303e-14 1.3945701e-16          0.1 0.0090000215 0.0003097632  0.029899964 
number of iterations: 24260 
   24500    67.932046       41           39            2 4.2916338e-14 1.3945796e-16          0.1 0.0090000219 0.00031547849  0.029899964 
number of iterations: 34295 
   24600    68.317077       44           42            2 4.3696294e-14 1.3945892e-16          0.1 0.0090000224 0.00032129765  0.029899963 
number of iterations: 25006 
   24700    68.599811       45           43            2 4.4490425e-14 1.394599e-16          0.1 0.0090000227 0.00032722256  0.029899962 
number of iterations: 25126 
   24800      68.8905       48           46            2 4.5298988e-14 1.394609e-16          0.1 0.0090000231 0.00033325515  0.029899962 
number of iterations: 30708 
   24900    69.282143       49           47            2 4.6122247e-14 1.3946191e-16          0.1 0.0090000236 0.00033939738  0.029899961 
number of iterations: 25507 
   25000    69.989862       50           48            2 4.6960467e-14 1.3946294e-16          0.1 0.0090000241 0.00034565124   0.02989996 
number of iterations: 27738 
   25100     70.31353       51           49            2 4.781392e-14 1.3946399e-16          0.1 0.0090000245 0.00035201875  0.029899959 
number of iterations: 25937 
   25200    70.613394       52           50            2 4.8682885e-14 1.3946507e-16          0.1  0.009000025 0.00035850199  0.029899959 
number of iterations: 32040 
   25300    71.023814       53           51            2 4.9567641e-14 1.3946616e-16          0.1 0.0090000255 0.00036510305  0.029899958 
number of iterations: 29845 
   25400    71.439897       53           51            2 5.0468477e-14 1.3946727e-16          0.1 0.0090000259 0.00037182408  0.029899957 
number of iterations: 25712 
   25500    71.724422       53           51            2 5.1385685e-14 1.394684e-16          0.1 0.0090000263 0.00037866726  0.029899956 
number of iterations: 26618 
   25600    72.020186       54           52            2 5.2319562e-14 1.3946955e-16          0.1 0.0090000268 0.0003856348  0.029899956 
number of iterations: 26811 
   25700    72.348532       55           53            2 5.3270412e-14 1.3947072e-16          0.1 0.0090000273 0.00039272897  0.029899955 
number of iterations: 26988 
   25800    72.663078       56           54            2 5.4238541e-14 1.3947192e-16          0.1 0.0090000278 0.00039995207  0.029899954 
number of iterations: 27164 
   25900    73.001525       57           55            2 5.5224266e-14 1.3947313e-16          0.1 0.0090000283 0.00040730644  0.029899953 
number of iterations: 31245 
   26000     73.73786       59           57            2 5.6227905e-14 1.3947437e-16          0.1 0.0090000289 0.00041479447  0.029899952 
number of iterations: 27543 
   26100    74.035314       59           57            2 5.7249784e-14 1.3947563e-16          0.1 0.0090000294 0.00042241858  0.029899951 
number of iterations: 31995 
   26200    74.390246       60           58            2 5.8290234e-14 1.3947693e-16          0.1 0.0090000299 0.00043018125   0.02989995 
number of iterations: 27012 
   26300    74.689764       61           59            2 5.9349594e-14 1.3947825e-16          0.1 0.0090000305 0.00043808501  0.029899949 
number of iterations: 32276 
   26400    75.041711       63           61            2 6.0428206e-14 1.3947959e-16          0.1 0.0090000311 0.0004461324  0.029899948 
number of iterations: 28222 
   26500    75.346439       63           61            2 6.1526421e-14 1.3948096e-16          0.1 0.0090000316 0.00045432605  0.029899947 
number of iterations: 43571 
   26600    75.818964       64           62            2 6.2644594e-14 1.3948231e-16          0.1 0.0090000323 0.0004626686  0.029899946 
number of iterations: 33236 
   26700    76.254748       64           62            2 6.3783089e-14 1.394837e-16          0.1 0.0090000328 0.00047116278  0.029899946 
number of iterations: 35936 
   26800     76.70601       65           63            2 6.4942275e-14 1.3948514e-16          0.1 0.0090000334 0.00047981132  0.029899945 
number of iterations: 27692 
   26900    77.039382       66           64            2 6.6122528e-14 1.394866e-16          0.1 0.0090000339 0.00048861704  0.029899944 
number of iterations: 29001 
   27000    77.760585       69           67            2 6.732423e-14 1.3948809e-16          0.1 0.0090000345 0.0004975828  0.029899943 
number of iterations: 32500 
   27100    78.160266       69           67            2 6.8547772e-14 1.394896e-16          0.1 0.0090000351 0.0005067115  0.029899942 
number of iterations: 33292 
   27200    78.541811       70           68            2 6.9793551e-14 1.3949114e-16          0.1 0.0090000358 0.0005160061  0.029899941 
number of iterations: 29426 
   27300    78.898558       70           68            2 7.106197e-14 1.3949271e-16          0.1 0.0090000364 0.00052546962   0.02989994 
number of iterations: 29677 
   27400    79.227837       71           69            2 7.2353442e-14 1.3949431e-16          0.1 0.0090000371 0.00053510513  0.029899938 
number of iterations: 29861 
   27500    79.549812       71           69            2 7.3668384e-14 1.3949594e-16          0.1 0.0090000377 0.00054491576  0.029899937 
number of iterations: 33409 
   27600    79.910927       73           71            2 7.5007224e-14 1.394976e-16          0.1 0.0090000386 0.00055490468  0.029899936 
number of iterations: 33040 
   27700    80.311254       77           75            2 7.6370396e-14 1.3949931e-16          0.1 0.0090000393 0.00056507514  0.029899935 
number of iterations: 29675 
   27800    80.657819       78           76            2 7.7758342e-14 1.3950104e-16          0.1   0.00900004 0.00057543043  0.029899934 
number of iterations: 34023 
   27900    81.068229       80           78            2 7.9171512e-14 1.3950282e-16          0.1 0.0090000407 0.00058597393  0.029899932 
number of iterations: 29796 
   28000    81.803343       82           80            2 8.0610366e-14 1.3950462e-16          0.1 0.0090000414 0.00059670904  0.029899931 
number of iterations: 34449 
   28100    82.232485       82           80            2 8.2075368e-14 1.3950646e-16          0.1 0.0090000422 0.00060763924   0.02989993 
number of iterations: 30875 
   28200    82.577033       83           81            2 8.3566996e-14 1.3950834e-16          0.1  0.009000043 0.00061876809  0.029899929 
number of iterations: 32139 
   28300    82.937949       86           84            2 8.5085732e-14 1.3951024e-16          0.1 0.0090000437 0.0006300992  0.029899927 
number of iterations: 30922 
   28400    83.266482       88           86            2 8.6632069e-14 1.3951218e-16          0.1 0.0090000445 0.00064163623  0.029899926 
number of iterations: 31376 
   28500    83.648555       88           86            2 8.820651e-14 1.3951416e-16          0.1 0.0090000453 0.00065338294  0.029899925 
number of iterations: 31567 
   28600      84.0173       89           87            2 8.9809564e-14 1.3951618e-16          0.1 0.0090000461 0.00066534313  0.029899923 
number of iterations: 33099 
   28700    84.437475       90           88            2 9.1441751e-14 1.3951823e-16          0.1  0.009000047 0.00067752068  0.029899922 
number of iterations: 31946 
   28800    84.838762       92           90            2 9.3103602e-14 1.3952031e-16          0.1 0.0090000478 0.00068991955  0.029899921 
number of iterations: 32150 
   28900    85.254057       95           93            2 9.4795655e-14 1.3952244e-16          0.1 0.0090000487 0.00070254375  0.029899919 
number of iterations: 35742 
   29000    86.172231       97           95            2 9.651846e-14 1.395246e-16          0.1 0.0090000496 0.00071539739  0.029899918 
number of iterations: 39467 
   29100     86.87713       98           96            2 9.8272574e-14 1.3952683e-16          0.1 0.0090000505 0.00072848462  0.029899916 
number of iterations: 37177 
   29200     87.42959      100           98            2 1.0005857e-13 1.3952908e-16          0.1 0.0090000514 0.0007418097  0.029899915 
number of iterations: 32726 
   29300    87.865421      103          101            2 1.0187702e-13 1.3953138e-16          0.1 0.0090000523 0.00075537694  0.029899913 
number of iterations: 33955 
   29400    88.330557      103          101            2 1.0372852e-13 1.3953372e-16          0.1 0.0090000531 0.00076919076  0.029899912 
number of iterations: 32741 
   29500    88.702783      105          103            2 1.0561367e-13 1.395361e-16          0.1 0.0090000541 0.00078325562   0.02989991 
number of iterations: 37581 
   29600    89.160301      107          105            2 1.0753308e-13 1.3953855e-16          0.1 0.0090000551 0.0007975761  0.029899908 
number of iterations: 32618 
   29700     89.56663      108          106            2 1.0948737e-13 1.3954104e-16          0.1 0.0090000561 0.00081215684  0.029899907 
number of iterations: 33401 
   29800    89.976981      112          110            2 1.1147718e-13 1.3954357e-16          0.1 0.0090000571 0.00082700257  0.029899905 
number of iterations: 34834 
   29900    90.438981      114          112            2 1.1350315e-13 1.3954615e-16          0.1  0.009000058 0.00084211809  0.029899903 
number of iterations: 38072 
   30000    91.427528      116          114            2 1.1556594e-13 1.3954878e-16          0.1 0.0090000592 0.00085750833  0.029899902 
number of iterations: 33947 
   30100    91.853806      118          116            2 1.1766622e-13 1.3955146e-16          0.1 0.0090000603 0.00087317827    0.0298999 
number of iterations: 37617 
   30200     92.30272      121          119            2 1.1980468e-13 1.3955417e-16          0.1 0.0090000614 0.00088913299  0.029899898 
number of iterations: 34475 
   30300    92.708372      122          120            2 1.2198199e-13 1.3955694e-16          0.1 0.0090000625 0.00090537767  0.029899896 
number of iterations: 34629 
   30400    93.099535      127          125            2 1.2419888e-13 1.3955975e-16          0.1 0.0090000636 0.00092191758  0.029899894 
number of iterations: 34520 
   30500    93.534278      130          128            2 1.2645605e-13 1.3956262e-16          0.1 0.0090000647 0.00093875808  0.029899892 
number of iterations: 35751 
   30600    93.979011      130          128            2 1.2875425e-13 1.3956555e-16          0.1 0.0090000659 0.00095590464   0.02989989 
number of iterations: 34605 
   30700     94.42441      132          130            2 1.3109421e-13 1.3956853e-16          0.1  0.009000067 0.00097336282  0.029899889 
number of iterations: 35113 
   30800    94.826257      133          131            2 1.334767e-13 1.3957157e-16          0.1 0.0090000682 0.00099113828  0.029899887 
number of iterations: 40353 
   30900    95.311364      136          134            2 1.3590249e-13 1.3957465e-16          0.1 0.0090000695 0.0010092368  0.029899884 
number of iterations: 42197 
   31000    96.281274      139          137            2 1.3837236e-13 1.395778e-16          0.1 0.0090000711 0.0010276642  0.029899882 
number of iterations: 35513 
   31100     96.74957      141          139            2 1.4088712e-13 1.3958101e-16          0.1 0.0090000723 0.0010464265   0.02989988 
number of iterations: 35746 
   31200    97.211457      144          142            2 1.4344759e-13 1.3958428e-16          0.1 0.0090000735 0.0010655299  0.029899878 
number of iterations: 45042 
   31300    97.762446      146          144            2 1.4605459e-13 1.3958759e-16          0.1  0.009000075 0.0010849804  0.029899875 
number of iterations: 43159 
   31400    98.291792      147          145            2 1.4870896e-13 1.3959098e-16          0.1 0.0090000765 0.0011047843  0.029899873 
number of iterations: 45976 
   31500    98.799164      150          148            2 1.5141158e-13 1.3959439e-16          0.1 0.0090000778 0.0011249482  0.029899871 
number of iterations: 45020 
   31600    99.328343      153          151            2 1.5416332e-13 1.3959791e-16          0.1 0.0090000792 0.0011454786  0.029899868 
number of iterations: 39541 
   31700    99.824472      157          155            2 1.5696506e-13 1.396015e-16          0.1 0.0090000804 0.0011663821  0.029899866 
number of iterations: 39737 
   31800     100.2609      161          159            2 1.5981772e-13 1.3960517e-16          0.1 0.0090000818 0.0011876654  0.029899864 
number of iterations: 36680 
   31900     100.7121      164          162            2 1.6272223e-13 1.3960891e-16          0.1 0.0090000833 0.0012093356  0.029899862 
number of iterations: 39449 
   32000    101.63002      165          163            2 1.6567952e-13 1.3961272e-16          0.1 0.0090000849 0.0012313996  0.029899859 
number of iterations: 38606 
   32100    102.15856      167          165            2 1.6869056e-13 1.396166e-16          0.1 0.0090000865 0.0012538646  0.029899856 
number of iterations: 37752 
   32200    102.65893      169          167            2 1.7175632e-13 1.3962054e-16          0.1 0.0090000881 0.0012767378  0.029899854 
number of iterations: 36646 
   32300    103.14456      174          172            2 1.748778e-13 1.3962457e-16          0.1 0.0090000896 0.0013000268  0.029899851 
number of iterations: 37969 
   32400    103.64658      175          173            2  1.78056e-13 1.3962868e-16          0.1 0.0090000913  0.001323739  0.029899848 
number of iterations: 42697 
   32500    104.15906      180          178            2 1.8129197e-13 1.3963275e-16          0.1 0.0090000929 0.0013478822  0.029899845 
number of iterations: 48532 
   32600    104.73706      185          183            2 1.8458675e-13 1.3963688e-16          0.1 0.0090000946 0.0013724641  0.029899843 
number of iterations: 42439 
   32700     105.2252      186          184            2 1.879414e-13 1.3964116e-16          0.1 0.0090000964 0.0013974928   0.02989984 
number of iterations: 38479 
   32800    105.67616      187          185            2 1.9135703e-13 1.3964552e-16          0.1 0.0090000981 0.0014229763  0.029899837 
number of iterations: 38857 
   32900    106.13577      191          189            2 1.9483472e-13 1.3964996e-16          0.1 0.0090000999  0.001448923  0.029899834 
number of iterations: 37714 
   33000    106.99167      193          191            2 1.9837562e-13 1.3965447e-16          0.1 0.0090001017 0.0014753412  0.029899831 
number of iterations: 41779 
   33100    107.47874      201          199            2 2.0198088e-13 1.3965907e-16          0.1 0.0090001036 0.0015022396  0.029899828 
number of iterations: 40384 
   33200    107.96433      205          203            2 2.0565165e-13 1.3966367e-16          0.1 0.0090001053 0.0015296267  0.029899825 
number of iterations: 41490 
   33300    108.46152      207          205            2 2.0938914e-13 1.3966835e-16          0.1 0.0090001073 0.0015575117  0.029899821 
number of iterations: 42798 
   33400    108.98243      210          208            2 2.1319455e-13 1.3967316e-16          0.1 0.0090001094 0.0015859034  0.029899818 
number of iterations: 49831 
   33500    109.56739      214          212            2 2.1706912e-13 1.3967802e-16          0.1 0.0090001114 0.0016148111  0.029899815 
number of iterations: 39666 
   33600    110.03759      217          215            2 2.210141e-13 1.3968296e-16          0.1 0.0090001134 0.0016442441  0.029899811 
number of iterations: 39742 
   33700    110.49519      221          219            2 2.2503078e-13  1.39688e-16          0.1 0.0090001154 0.0016742121  0.029899808 
number of iterations: 44662 
   33800    111.04541      227          225            2 2.2912046e-13 1.3969319e-16          0.1 0.0090001177 0.0017047247  0.029899804 
number of iterations: 43271 
   33900    111.61429      230          228            2 2.3328447e-13 1.3969843e-16          0.1 0.0090001198 0.0017357918  0.029899801 
number of iterations: 40882 
   34000    112.48585      234          232            2 2.3752415e-13 1.3970377e-16          0.1  0.009000122 0.0017674236  0.029899797 
number of iterations: 48241 
   34100    113.04758      240          238            2 2.4184088e-13 1.3970915e-16          0.1 0.0090001242 0.0017996302  0.029899793 
number of iterations: 43488 
   34200    113.64414      245          243            2 2.4623607e-13 1.3971467e-16          0.1 0.0090001265 0.0018324221   0.02989979 
number of iterations: 41502 
   34300    114.18525      247          245            2 2.5071113e-13 1.3972026e-16          0.1 0.0090001287   0.00186581  0.029899786 
number of iterations: 41945 
   34400    114.71762      252          250            2 2.5526752e-13 1.3972596e-16          0.1  0.009000131 0.0018998047  0.029899782 
number of iterations: 41693 
   34500    115.26224      259          257            2 2.5990672e-13 1.3973176e-16          0.1 0.0090001334 0.0019344172  0.029899778 
number of iterations: 43803 
   34600    115.80201      264          262            2 2.6463023e-13 1.3973763e-16          0.1 0.0090001358 0.0019696587  0.029899774 
number of iterations: 41683 
   34700    116.41262      268          266            2 2.6943958e-13 1.3974367e-16          0.1 0.0090001382 0.0020055407   0.02989977 
number of iterations: 45834 
   34800    117.04935      273          271            2 2.7433634e-13 1.3974979e-16          0.1 0.0090001408 0.0020420748  0.029899766 
number of iterations: 50650 
   34900    117.70191      277          275            2 2.7932209e-13 1.3975599e-16          0.1 0.0090001435 0.0020792729  0.029899761 
number of iterations: 46450 
   35000    118.64308      282          280            2 2.8439846e-13 1.3976232e-16          0.1  0.009000146  0.002117147  0.029899757 
Loop time of 118.643 on 6 procs for 35000 steps with 282 atoms

Performance: 254881993.234 tau/day, 295.002 timesteps/s
99.7% CPU use with 6 MPI tasks x no OpenMP threads

MPI task timing breakdown:
Section |  min time  |  avg time  |  max time  |%varavg| %total
---------------------------------------------------------------
Pair    | 0.0033375  | 0.018695   | 0.059469   |  16.4 |  0.02
Neigh   | 12.525     | 13.274     | 14.634     |  26.4 | 11.19
Comm    | 13.776     | 13.817     | 13.898     |   1.5 | 11.65
Output  | 1.1233     | 1.1254     | 1.1265     |   0.1 |  0.95
Modify  | 88.712     | 89.853     | 90.472     |   8.5 | 75.73
Other   |            | 0.5549     |            |       |  0.47

Nlocal:    47 ave 167 max 0 min
Histogram: 4 0 0 0 0 0 1 0 0 1
Nghost:    19.1667 ave 60 max 0 min
Histogram: 4 0 0 0 0 0 0 0 0 2
Neighs:    188.333 ave 669 max 0 min
Histogram: 4 0 0 0 0 0 1 0 0 1

Total # of neighbors = 1130
Ave neighs/atom = 4.00709
Neighbor list builds = 425
Dangerous builds = 0

Total wall time: 0:01:59
