 NUFEB Simulation

     50 atoms 
     2 atom types 
     4 nutrients 

  0.0e-4   1.00e-04  xlo xhi 
  0.0e-4   1.00e-04  ylo yhi 
  0.0e-4   5.00e-05  zlo zhi 

 Atoms 

     1 1 1.72e-06  370 6.67e-06 9.53e-05 3.93e-05 1.72e-06 
     2 1 1.72e-06  370 1.99e-05 5.64e-06 1.69e-05 1.72e-06 
     3 1 1.67e-06  370 1.22e-05 5.73e-05 4.18e-05 1.67e-06 
     4 1 1.72e-06  370 3.03e-05 7.83e-05 2.29e-05 1.72e-06 
     5 1 1.55e-06  370 8.43e-06 1.00e-05 3.41e-05 1.55e-06 
     6 1 1.39e-06  370 8.85e-05 8.85e-06 3.78e-05 1.39e-06 
     7 1 1.72e-06  370 2.38e-06 2.18e-06 4.51e-05 1.72e-06 
     8 1 1.77e-06  370 8.30e-05 9.00e-05 4.97e-06 1.77e-06 
     9 1 1.77e-06  370 2.54e-05 1.73e-05 4.24e-05 1.77e-06 
     10 1 1.62e-06  370 7.01e-05 3.85e-05 2.06e-05 1.62e-06 
     11 1 1.54e-06  370 6.51e-05 2.88e-05 4.94e-06 1.54e-06 
     12 1 1.71e-06  370 6.20e-06 8.89e-05 2.53e-05 1.71e-06 
     13 1 1.80e-06  370 3.26e-05 1.19e-05 4.77e-05 1.80e-06 
     14 1 1.66e-06  370 8.98e-05 4.37e-05 2.35e-05 1.66e-06 
     15 1 1.61e-06  370 7.79e-05 5.69e-05 3.20e-05 1.61e-06 
     16 1 1.37e-06  370 7.36e-05 3.31e-05 1.52e-05 1.37e-06 
     17 1 1.65e-06  370 8.70e-05 9.31e-05 5.13e-06 1.65e-06 
     18 1 1.80e-06  370 8.65e-05 1.09e-05 4.03e-05 1.80e-06 
     19 1 1.62e-06  370 1.57e-05 8.92e-05 4.78e-05 1.62e-06 
     20 1 1.85e-06  370 4.18e-05 8.20e-05 4.32e-05 1.85e-06 
     21 1 1.76e-06  370 1.12e-05 4.06e-05 4.20e-06 1.76e-06 
     22 1 1.87e-06  370 4.14e-05 9.63e-05 2.51e-05 1.87e-06 
     23 1 1.63e-06  370 1.09e-05 4.09e-05 3.07e-05 1.63e-06 
     24 1 1.92e-06  370 1.84e-05 5.80e-05 2.11e-05 1.92e-06 
     25 1 1.53e-06  370 1.02e-05 4.10e-05 6.22e-06 1.53e-06 
     26 1 1.62e-06  370 4.03e-05 9.67e-05 4.28e-05 1.62e-06 
     27 1 1.59e-06  370 3.35e-05 3.25e-05 4.69e-05 1.59e-06 
     28 1 1.88e-06  370 3.12e-05 3.64e-05 3.86e-05 1.88e-06 
     29 1 1.93e-06  370 1.33e-05 9.23e-06 1.43e-05 1.93e-06 
     30 1 1.45e-06  370 1.42e-05 6.43e-05 1.63e-05 1.45e-06 
     31 1 1.61e-06  370 3.26e-05 7.94e-05 3.73e-05 1.61e-06 
     32 1 1.87e-06  370 9.26e-05 3.04e-05 8.07e-06 1.87e-06 
     33 1 1.56e-06  370 7.44e-05 9.11e-05 5.86e-06 1.56e-06 
     34 1 1.54e-06  370 1.28e-05 6.23e-05 5.14e-06 1.54e-06 
     35 1 1.43e-06  370 4.26e-05 9.40e-05 2.96e-05 1.43e-06 
     36 1 1.87e-06  370 8.49e-05 2.55e-05 1.15e-05 1.87e-06 
     37 1 1.65e-06  370 8.51e-05 2.80e-05 3.05e-05 1.65e-06 
     38 1 1.55e-06  370 3.58e-05 5.28e-05 1.15e-05 1.55e-06 
     39 1 1.39e-06  370 3.00e-05 5.53e-05 1.54e-06 1.39e-06 
     40 1 1.83e-06  370 5.67e-05 7.55e-05 3.65e-05 1.83e-06 
     41 1 1.88e-06  370 6.09e-05 6.02e-05 4.58e-05 1.88e-06 
     42 1 1.72e-06  370 8.68e-05 5.02e-05 3.47e-05 1.72e-06 
     43 1 1.84e-06  370 6.57e-05 3.34e-05 4.10e-05 1.84e-06 
     44 1 1.74e-06  370 9.19e-05 7.10e-05 3.01e-05 1.74e-06 
     45 1 1.48e-06  370 3.90e-05 9.01e-05 4.08e-06 1.48e-06 
     46 1 1.68e-06  370 4.32e-06 2.90e-05 2.04e-05 1.68e-06 
     47 1 1.77e-06  370 4.69e-05 2.15e-05 4.51e-05 1.77e-06 
     48 1 1.54e-06  370 1.27e-05 4.84e-05 4.36e-05 1.54e-06 
     49 1 1.51e-06  370 1.57e-05 4.87e-05 1.08e-05 1.51e-06 
     50 1 1.68e-06  370 6.93e-05 3.47e-05 2.03e-05 1.68e-06 

 Nutrients 

     1 sub g nn nn nn 1.00e-01 1.00e-01 
     2 o2 l nn nn nd 9.00e-03 9.00e-03 
     3 suc l nn nn nn 3.42e-20 3.42e-20 
     4 co2 l nn nn nd 2.99e-02 2.99e-02 

 Type Name 

     1 cyano  
     2 ecw  

 Diffusion Coeffs 

     sub 0 
     o2 2.3e-09 
     suc 5.2e-10 
     co2 1.9e-09 

 Growth Rate 

     cyano 2.047e-05 
     ecw 6.71e-05 

 Ks 

     cyano 0.00035 0.0002 0.01 0.000138 
     ecw 0 0.001 3.6 0.05 

 Yield 

     cyano 0.55 
     ecw 0.43 

 Maintenance 

     cyano 0 
     ecw 9.5e-07 

 Decay 

     cyano 0 
     ecw 0 



