LAMMPS (20 Nov 2019)
Reading data file ...
  orthogonal box = (0 0 0) to (0.0001 0.0001 5e-05)
  2 by 2 by 2 MPI processor grid
  reading atoms ...
  50 atoms
  4 nutrients
Lattice spacing in x,y,z = 100 100 100
50 atoms in group CYANO
0 atoms in group ECW
Model is defined as a closed system. 
Neighbor list info ...
  update every 1 steps, delay 0 steps, check yes
  max neighbors/atom: 5000, page size: 100000
  master list distance cutoff = 2.42e-06
  ghost atom cutoff = 2.42e-06
  binsize = 1.21e-06, bins = 83 83 42
  1 neighbor lists, perpetual/occasional/extra = 1 0 0
  (1) pair gran/hooke/history, perpetual
      attributes: half, newton off, size, history
      pair build: half/size/bin/newtoff
      stencil: half/bin/3d/newtoff
      bin: standard
Setting up Verlet run ...
  Unit style    : lj
  Current step  : 0
  Time step     : 10
Per MPI rank memory allocation (min/avg/max) = 6.973 | 10.33 | 12.35 Mbytes
Step CPU Atoms c_myNtypes[1] c_myNtypes[2] c_myMass[1] c_myMass[2] c_myCon[1] c_myCon[2] c_myCon[3] c_myCon[4] 
       0            0       50           50            0 4.4352994e-14            0          0.1        0.009     3.42e-20       0.0299 
number of iterations: 327781 
     100    4.8879733       50           50            0 4.5127494e-14            0          0.1 0.0090033784 0.0061530177  0.029894375 
number of iterations: 24486 
     200    5.4688153       50           50            0 4.5915519e-14            0          0.1 0.0090034374  0.012218453  0.029894277 
number of iterations: 24578 
     300    6.0522109       50           50            0 4.6717304e-14            0          0.1 0.0090034974  0.018389055  0.029894177 
number of iterations: 24670 
     400     6.615234       50           50            0 4.753309e-14            0          0.1 0.0090035585  0.024667032  0.029894075 
number of iterations: 24762 
     500    7.2218211       52           52            0 4.8363122e-14            0          0.1 0.0090036206   0.03105438  0.029893972 
number of iterations: 24854 
     600    7.8184478       53           53            0 4.9207647e-14            0          0.1 0.0090036839  0.037553072  0.029893867 
number of iterations: 24945 
     700    8.4098938       53           53            0 5.006692e-14            0          0.1 0.0090037482  0.044165089  0.029893759 
number of iterations: 25037 
     800    9.0112768       54           54            0 5.0941198e-14            0          0.1 0.0090038137  0.050892439   0.02989365 
number of iterations: 25131 
     900    9.6047423       57           57            0 5.1830743e-14            0          0.1 0.0090038803  0.057737163   0.02989354 
number of iterations: 25221 
    1000    10.197833       57           57            0 5.273582e-14            0          0.1  0.009003948  0.064701315  0.029893427 
number of iterations: 25313 
    1100     10.79444       57           57            0 5.3656703e-14            0          0.1  0.009004017  0.071786995  0.029893312 
number of iterations: 25416 
    1200    11.401704       58           58            0 5.4593666e-14            0          0.1 0.0090040871  0.078996346  0.029893195 
number of iterations: 25497 
    1300    12.007497       60           60            0 5.554699e-14            0          0.1 0.0090041585  0.086331523  0.029893076 
number of iterations: 25590 
    1400    12.643182       60           60            0 5.6516962e-14            0          0.1 0.0090042311  0.093794731  0.029892955 
number of iterations: 25682 
    1500    13.236437       61           61            0 5.7503871e-14            0          0.1  0.009004305   0.10138821  0.029892832 
number of iterations: 25774 
    1600    13.844574       61           61            0 5.8508014e-14            0          0.1 0.0090043802   0.10911424  0.029892707 
number of iterations: 25866 
    1700    14.456752       61           61            0 5.9529691e-14            0          0.1 0.0090044567   0.11697513   0.02989258 
number of iterations: 25958 
    1800    15.054057       63           63            0 6.0569209e-14            0          0.1 0.0090045345   0.12497326   0.02989245 
number of iterations: 26050 
    1900    15.656259       66           66            0 6.162688e-14            0          0.1 0.0090046137     0.133111  0.029892318 
number of iterations: 26142 
    2000    16.273544       66           66            0 6.2703019e-14            0          0.1 0.0090046943   0.14139082  0.029892184 
number of iterations: 26235 
    2100    16.883177       67           67            0 6.379795e-14            0          0.1 0.0090047762   0.14981518  0.029892048 
number of iterations: 26327 
    2200    17.527031       68           68            0 6.4912001e-14            0          0.1 0.0090048596   0.15838662  0.029891909 
number of iterations: 26419 
    2300    18.129911       69           69            0 6.6045506e-14            0          0.1 0.0090049445    0.1671077  0.029891768 
number of iterations: 26511 
    2400     18.73883       69           69            0 6.7198804e-14            0          0.1 0.0090050309   0.17598104  0.029891624 
number of iterations: 26604 
    2500    19.371292       69           69            0 6.8372241e-14            0          0.1 0.0090051187    0.1850093  0.029891477 
number of iterations: 26696 
    2600    19.978277       69           69            0 6.9566169e-14            0          0.1 0.0090052081   0.19419518  0.029891329 
number of iterations: 26788 
    2700    20.583577       69           69            0 7.0780946e-14            0          0.1  0.009005299   0.20354145  0.029891177 
number of iterations: 26881 
    2800    21.202721       71           71            0 7.2016935e-14            0          0.1 0.0090053916   0.21305089  0.029891023 
number of iterations: 26973 
    2900    21.826955       73           73            0 7.3274507e-14            0          0.1 0.0090054857   0.22272637  0.029890866 
number of iterations: 27065 
    3000    22.479532       73           73            0 7.4554039e-14            0          0.1 0.0090055815   0.23257078  0.029890707 
number of iterations: 27169 
    3100    23.108367       74           74            0 7.5855914e-14            0          0.1  0.009005679   0.24258707  0.029890545 
number of iterations: 27250 
    3200    23.733667       76           76            0 7.7180523e-14            0          0.1 0.0090057782   0.25277824  0.029890379 
number of iterations: 28985 
    3300    24.400156       77           77            0 7.8528262e-14            0          0.1 0.0090059113   0.26314737  0.029890158 
number of iterations: 27468 
    3400    25.028567       77           77            0 7.9899536e-14            0          0.1 0.0090060145   0.27369754  0.029889986 
number of iterations: 27560 
    3500    25.637672       77           77            0 8.1294755e-14            0          0.1 0.0090061195   0.28443192  0.029889811 
number of iterations: 27652 
    3600    26.281877       78           78            0 8.2714338e-14            0          0.1 0.0090062264   0.29535373  0.029889633 
number of iterations: 27745 
    3700    26.911869       79           79            0 8.4158709e-14            0          0.1 0.0090063351   0.30646623  0.029889452 
number of iterations: 27837 
    3800    27.591045       79           79            0 8.5628303e-14            0          0.1 0.0090064457   0.31777277  0.029889268 
number of iterations: 27930 
    3900    28.217265       79           79            0 8.7123558e-14            0          0.1 0.0090065583   0.32927673   0.02988908 
number of iterations: 28025 
    4000    28.893038       80           80            0 8.8644924e-14            0          0.1 0.0090066728   0.34098153   0.02988889 
number of iterations: 28115 
    4100     29.54946       81           81            0 9.0192856e-14            0          0.1 0.0090067894    0.3528907  0.029888696 
number of iterations: 28208 
    4200     30.25564       82           82            0 9.1767819e-14            0          0.1 0.0090069079   0.36500782  0.029888498 
number of iterations: 28300 
    4300    30.924322       82           82            0 9.3370283e-14            0          0.1 0.0090070285   0.37733651  0.029888297 
number of iterations: 27258 
    4400    31.546708       85           85            0 9.500073e-14            0          0.1 0.0090071302   0.38988047  0.029888128 
number of iterations: 28468 
    4500    32.239966       86           86            0 9.6659648e-14            0          0.1 0.0090072547   0.40264345  0.029887921 
number of iterations: 28564 
    4600    32.920028       91           91            0 9.8347535e-14            0          0.1 0.0090073814    0.4156293   0.02988771 
number of iterations: 28653 
    4700    33.580233       95           95            0 1.0006489e-13            0          0.1 0.0090075103   0.42884188  0.029887495 
number of iterations: 28762 
    4800    34.225883      100          100            0 1.0181224e-13            0          0.1 0.0090076414   0.44228517  0.029887277 
number of iterations: 28838 
    4900    34.906212      103          103            0 1.0359011e-13            0          0.1 0.0090077749    0.4559632  0.029887055 
number of iterations: 28931 
    5000    35.570598      107          107            0 1.0539901e-13            0          0.1 0.0090079107   0.46988005  0.029886829 
number of iterations: 29024 
    5100    36.228071      108          108            0 1.0723951e-13            0          0.1 0.0090080488   0.48403991  0.029886599 
number of iterations: 29116 
    5200    36.918491      110          110            0 1.0911214e-13            0          0.1 0.0090081894   0.49844702  0.029886365 
number of iterations: 29210 
    5300    37.617956      111          111            0 1.1101747e-13            0          0.1 0.0090083324   0.51310572  0.029886126 
number of iterations: 28245 
    5400    38.282357      116          116            0 1.1295608e-13            0          0.1 0.0090084568   0.52802042  0.029885919 
number of iterations: 29374 
    5500    38.935952      119          119            0 1.1492853e-13            0          0.1 0.0090086045   0.54319557  0.029885673 
number of iterations: 29470 
    5600    39.613411      119          119            0 1.1693543e-13            0          0.1 0.0090087548    0.5586357  0.029885423 
number of iterations: 29563 
    5700    40.296031      121          121            0 1.1897738e-13            0          0.1 0.0090089077   0.57434543  0.029885168 
number of iterations: 29656 
    5800    40.965744      122          122            0 1.2105498e-13            0          0.1 0.0090090632   0.59032947  0.029884909 
number of iterations: 29743 
    5900    41.669387      124          124            0 1.2316886e-13            0          0.1 0.0090092215   0.60659262  0.029884646 
number of iterations: 29843 
    6000    42.394258      129          129            0 1.2531965e-13            0          0.1 0.0090093825   0.62313976  0.029884378 
number of iterations: 29932 
    6100    43.079233      132          132            0  1.27508e-13            0          0.1 0.0090095463   0.63997584  0.029884105 
number of iterations: 30029 
    6200    43.778044      135          135            0 1.2973456e-13            0          0.1  0.009009713    0.6571059  0.029883827 
number of iterations: 30119 
    6300    44.448636      138          138            0 1.3200001e-13            0          0.1 0.0090098827   0.67453507  0.029883545 
number of iterations: 31164 
    6400    45.143043      139          139            0 1.3430501e-13            0          0.1  0.009010085    0.6922686  0.029883208 
number of iterations: 30323 
    6500    45.831104      139          139            0 1.3665026e-13            0          0.1 0.0090102612   0.71031178  0.029882915 
number of iterations: 30415 
    6600    46.519973      141          141            0 1.3903647e-13            0          0.1 0.0090104403   0.72867002  0.029882616 
number of iterations: 30512 
    6700    47.468946      145          145            0 1.4146435e-13            0          0.1 0.0090106227   0.74734882  0.029882313 
number of iterations: 29955 
    6800    48.157628      145          145            0 1.4393462e-13            0          0.1 0.0090107894   0.76635378  0.029882035 
number of iterations: 30684 
    6900    48.859789      147          147            0 1.4644802e-13            0          0.1 0.0090109778   0.78569059  0.029881721 
number of iterations: 30776 
    7000    49.543548      147          147            0 1.4900532e-13            0          0.1 0.0090111695   0.80536506  0.029881402 
number of iterations: 30868 
    7100    50.252744      150          150            0 1.5160727e-13            0          0.1 0.0090113646   0.82538309  0.029881077 
number of iterations: 30962 
    7200    50.944781      151          151            0 1.5425466e-13            0          0.1  0.009011563   0.84575066  0.029880747 
number of iterations: 31055 
    7300    51.647297      153          153            0 1.5694827e-13            0          0.1 0.0090117649   0.86647389  0.029880411 
number of iterations: 31148 
    7400    52.366056      153          153            0 1.5968892e-13            0          0.1 0.0090119704   0.88755897  0.029880069 
number of iterations: 31241 
    7500    53.089505      154          154            0 1.6247743e-13            0          0.1 0.0090121794   0.90901224  0.029879721 
number of iterations: 31336 
    7600    53.838231      157          157            0 1.6531463e-13            0          0.1 0.0090123921    0.9308401  0.029879367 
number of iterations: 31427 
    7700    54.542779      157          157            0 1.6820138e-13            0          0.1 0.0090126085   0.95304911  0.029879006 
number of iterations: 31939 
    7800    55.249764      159          159            0 1.7113853e-13            0          0.1 0.0090128447   0.97564593  0.029878613 
number of iterations: 31626 
    7900    55.957546      163          163            0 1.7412698e-13            0          0.1  0.009013069   0.99863732  0.029878239 
number of iterations: 31161 
    8000    56.645732      170          170            0 1.771676e-13            0          0.1 0.0090132771    1.0220302  0.029877893 
number of iterations: 31797 
    8100    57.387584      172          172            0 1.8026133e-13            0          0.1  0.009013509    1.0458315  0.029877507 
number of iterations: 31673 
    8200    58.110348      175          175            0 1.8340907e-13            0          0.1 0.0090137376    1.0700485  0.029877126 
number of iterations: 31980 
    8300    58.861669      179          179            0 1.8661178e-13            0          0.1 0.0090139775    1.0946883  0.029876727 
number of iterations: 32073 
    8400     59.58488      182          182            0 1.8987042e-13            0          0.1 0.0090142216    1.1197583   0.02987632 
number of iterations: 32165 
    8500    60.308319      184          184            0 1.9318596e-13            0          0.1 0.0090144699    1.1452661  0.029875907 
number of iterations: 32565 
    8600    61.040473      188          188            0 1.965594e-13            0          0.1 0.0090147341    1.1712193  0.029875467 
number of iterations: 32357 
    8700    61.773383      189          189            0 1.9999174e-13            0          0.1 0.0090149914    1.1976256  0.029875039 
number of iterations: 32450 
    8800    62.562582      192          192            0 2.0348402e-13            0          0.1 0.0090152531    1.2244931  0.029874603 
number of iterations: 32546 
    8900    63.301158      197          197            0 2.0703728e-13            0          0.1 0.0090155195    1.2518297  0.029874159 
number of iterations: 32636 
    9000    64.044743      202          202            0 2.1065259e-13            0          0.1 0.0090157905    1.2796437  0.029873708 
number of iterations: 32729 
    9100     64.76386      207          207            0 2.1433103e-13            0          0.1 0.0090160662    1.3079434  0.029873249 
number of iterations: 32822 
    9200    65.529728      213          213            0 2.180737e-13            0          0.1 0.0090163468    1.3367373  0.029872782 
number of iterations: 32744 
    9300    66.254808      217          217            0 2.2188173e-13            0          0.1 0.0090166253    1.3660339  0.029872318 
number of iterations: 33137 
    9400    66.992659      226          226            0 2.2575625e-13            0          0.1 0.0090169212    1.3958421  0.029871825 
number of iterations: 33617 
    9500    67.791107      231          231            0 2.2969843e-13            0          0.1 0.0090172433    1.4261708  0.029871289 
number of iterations: 33203 
    9600    68.535994      235          235            0 2.3370944e-13            0          0.1 0.0090175444    1.4570291  0.029870787 
number of iterations: 33296 
    9700    69.275583      239          239            0 2.377905e-13            0          0.1 0.0090178508    1.4884263  0.029870277 
number of iterations: 33536 
    9800    70.027929      246          246            0 2.4194282e-13            0          0.1 0.0090181693    1.5203716  0.029869747 
number of iterations: 33483 
    9900    70.748525      252          252            0 2.4616765e-13            0          0.1 0.0090184866    1.5528748  0.029869219 
number of iterations: 33580 
   10000    71.522399      260          260            0 2.5046625e-13            0          0.1 0.0090188094    1.5859456  0.029868681 
Loop time of 71.5224 on 8 procs for 10000 steps with 260 atoms

Performance: 120801241.245 tau/day, 139.816 timesteps/s
88.8% CPU use with 8 MPI tasks x no OpenMP threads

MPI task timing breakdown:
Section |  min time  |  avg time  |  max time  |%varavg| %total
---------------------------------------------------------------
Pair    | 0.0087656  | 0.01025    | 0.011629   |   1.0 |  0.01
Neigh   | 0.0068104  | 0.0077463  | 0.0087332  |   0.9 |  0.01
Comm    | 0.045101   | 0.049217   | 0.053103   |   1.4 |  0.07
Output  | 12.511     | 12.511     | 12.513     |   0.0 | 17.49
Modify  | 58.885     | 58.888     | 58.89      |   0.0 | 82.33
Other   |            | 0.05669    |            |       |  0.08

Nlocal:    32.5 ave 53 max 18 min
Histogram: 2 1 1 1 0 0 1 1 0 1
Nghost:    5.875 ave 10 max 1 min
Histogram: 1 0 1 0 2 1 0 1 1 1
Neighs:    35.875 ave 58 max 19 min
Histogram: 2 0 2 1 0 0 1 0 1 1

Total # of neighbors = 287
Ave neighs/atom = 1.10385
Neighbor list builds = 109
Dangerous builds = 0
Total wall time: 0:01:11
