ITEM: TIMESTEP
0
ITEM: NUMBER OF ATOMS
50
ITEM: BOX BOUNDS ff ff ff
0.0000000000000000e+00 1.0000000000000000e-04
0.0000000000000000e+00 1.0000000000000000e-04
0.0000000000000000e+00 5.0000000000000002e-05
ITEM: ATOMS id type diameter x y z 
44 1 1.48e-06 4.26e-05 4.57e-05 2.62e-06 
10 1 1.74e-06 2.66e-05 3.84e-06 3.19e-06 
2 1 1.44e-06 3.53e-06 2.37e-05 5.44e-06 
5 1 1.67e-06 4.71e-05 3.73e-05 6.25e-06 
28 1 1.4e-06 4.66e-05 9.72e-06 1.11e-05 
27 1 1.77e-06 4.79e-05 4.52e-05 1.77e-05 
29 1 1.75e-06 3.05e-05 4.81e-05 2.24e-05 
30 1 1.64e-06 1.21e-05 2.32e-05 3.17e-05 
7 1 1.46e-06 2.15e-05 4.96e-05 3.47e-05 
3 1 1.61e-06 4.31e-05 1.28e-05 4.82e-05 
9 1 1.91e-06 4.53e-05 8.83e-05 1.93e-06 
14 1 1.45e-06 4.06e-05 6.62e-05 9.41e-06 
42 1 1.53e-06 8.91e-06 9.39e-05 9.53e-06 
49 1 1.85e-06 9.96e-06 8.79e-05 1.13e-05 
24 1 1.77e-06 4.66e-05 5.09e-05 1.21e-05 
20 1 1.88e-06 4.07e-05 5.93e-05 1.4e-05 
8 1 1.51e-06 2.69e-05 8.39e-05 1.66e-05 
43 1 1.45e-06 2.05e-05 9.71e-05 1.96e-05 
12 1 1.65e-06 2.11e-05 6e-05 2.83e-05 
32 1 1.92e-06 2.97e-05 7.73e-05 3.08e-05 
37 1 1.6e-06 1.43e-05 8.43e-05 3.36e-05 
13 1 1.57e-06 3.56e-05 8.96e-05 3.41e-05 
21 1 1.39e-06 3.59e-05 7.03e-05 3.69e-05 
26 1 1.63e-06 9.48e-06 5.65e-05 4.38e-05 
41 1 1.83e-06 2.48e-05 8.05e-05 4.54e-05 
47 1 1.67e-06 4.62e-05 8.72e-05 4.71e-05 
22 1 1.5e-06 5.5e-05 4.98e-05 6.76e-06 
40 1 1.78e-06 8.68e-05 4.07e-05 1.23e-05 
23 1 1.5e-06 8.32e-05 4.19e-05 1.55e-05 
33 1 1.47e-06 6.42e-05 4.34e-05 1.58e-05 
16 1 1.68e-06 7.4e-05 4.8e-05 1.57e-05 
19 1 1.64e-06 6.07e-05 6.79e-06 3.56e-05 
15 1 1.51e-06 7.77e-05 2.91e-05 3.64e-05 
34 1 1.88e-06 5.53e-05 6.93e-06 4.43e-05 
25 1 1.83e-06 6.36e-05 2.95e-06 4.7e-05 
36 1 1.44e-06 9.73e-05 9.06e-05 5.52e-06 
4 1 1.52e-06 8.65e-05 6.88e-05 8.7e-06 
1 1 1.49e-06 9.38e-05 8.72e-05 1.04e-05 
35 1 1.92e-06 6.64e-05 5.49e-05 1.19e-05 
50 1 1.68e-06 7.65e-05 9.48e-05 1.19e-05 
17 1 1.49e-06 6.87e-05 6.32e-05 1.76e-05 
6 1 1.38e-06 5.91e-05 8.39e-05 2.37e-05 
39 1 1.88e-06 9.01e-05 5.88e-05 2.44e-05 
38 1 1.56e-06 8.42e-05 8.35e-05 2.45e-05 
31 1 1.73e-06 6.16e-05 6.19e-05 2.47e-05 
45 1 1.89e-06 5.58e-05 5.82e-05 3.18e-05 
48 1 1.81e-06 7.13e-05 6.5e-05 3.62e-05 
18 1 1.52e-06 8.38e-05 6.19e-05 4.29e-05 
46 1 1.77e-06 5.76e-05 5.47e-05 4.33e-05 
11 1 1.78e-06 8.28e-05 9.59e-05 4.38e-05 
ITEM: TIMESTEP
100
ITEM: NUMBER OF ATOMS
50
ITEM: BOX BOUNDS ff ff ff
0.0000000000000000e+00 1.0000000000000000e-04
0.0000000000000000e+00 1.0000000000000000e-04
0.0000000000000000e+00 5.0000000000000002e-05
ITEM: ATOMS id type diameter x y z 
44 1 1.48857e-06 4.26e-05 4.57e-05 2.62e-06 
10 1 1.75007e-06 2.66e-05 3.84e-06 3.19e-06 
2 1 1.44833e-06 3.53e-06 2.37e-05 5.44e-06 
5 1 1.67966e-06 4.71e-05 3.73e-05 6.25e-06 
28 1 1.4081e-06 4.66e-05 9.72e-06 1.11e-05 
27 1 1.78024e-06 4.79e-05 4.52e-05 1.77e-05 
29 1 1.76013e-06 3.05e-05 4.81e-05 2.24e-05 
30 1 1.64949e-06 1.21e-05 2.32e-05 3.17e-05 
7 1 1.46845e-06 2.15e-05 4.96e-05 3.47e-05 
3 1 1.61932e-06 4.31e-05 1.28e-05 4.82e-05 
9 1 1.92105e-06 4.53e-05 8.83e-05 1.93e-06 
14 1 1.45839e-06 4.06e-05 6.62e-05 9.41e-06 
42 1 1.53885e-06 8.91e-06 9.39e-05 9.53e-06 
49 1 1.86071e-06 9.96e-06 8.79e-05 1.13e-05 
24 1 1.78024e-06 4.66e-05 5.09e-05 1.21e-05 
20 1 1.89088e-06 4.07e-05 5.93e-05 1.4e-05 
8 1 1.51874e-06 2.69e-05 8.39e-05 1.66e-05 
43 1 1.45839e-06 2.05e-05 9.71e-05 1.96e-05 
12 1 1.65955e-06 2.11e-05 6e-05 2.83e-05 
32 1 1.93111e-06 2.97e-05 7.73e-05 3.08e-05 
37 1 1.60926e-06 1.43e-05 8.43e-05 3.36e-05 
13 1 1.57909e-06 3.56e-05 8.96e-05 3.41e-05 
21 1 1.39804e-06 3.59e-05 7.03e-05 3.69e-05 
26 1 1.63943e-06 9.48e-06 5.65e-05 4.38e-05 
41 1 1.84059e-06 2.48e-05 8.05e-05 4.54e-05 
47 1 1.67966e-06 4.62e-05 8.72e-05 4.71e-05 
22 1 1.50868e-06 5.5e-05 4.98e-05 6.76e-06 
40 1 1.7903e-06 8.68e-05 4.07e-05 1.23e-05 
23 1 1.50868e-06 8.32e-05 4.19e-05 1.55e-05 
33 1 1.47851e-06 6.42e-05 4.34e-05 1.58e-05 
16 1 1.68972e-06 7.4e-05 4.8e-05 1.57e-05 
19 1 1.64949e-06 6.07e-05 6.79e-06 3.56e-05 
15 1 1.51874e-06 7.77e-05 2.91e-05 3.64e-05 
34 1 1.89088e-06 5.53e-05 6.93e-06 4.43e-05 
25 1 1.84059e-06 6.36e-05 2.95e-06 4.7e-05 
36 1 1.44833e-06 9.73e-05 9.06e-05 5.52e-06 
4 1 1.5288e-06 8.65e-05 6.88e-05 8.7e-06 
1 1 1.49862e-06 9.38e-05 8.72e-05 1.04e-05 
35 1 1.93111e-06 6.64e-05 5.49e-05 1.19e-05 
50 1 1.68972e-06 7.65e-05 9.48e-05 1.19e-05 
17 1 1.49862e-06 6.87e-05 6.32e-05 1.76e-05 
6 1 1.38799e-06 5.91e-05 8.39e-05 2.37e-05 
39 1 1.89088e-06 9.01e-05 5.88e-05 2.44e-05 
38 1 1.56903e-06 8.42e-05 8.35e-05 2.45e-05 
31 1 1.74001e-06 6.16e-05 6.19e-05 2.47e-05 
45 1 1.90094e-06 5.58e-05 5.82e-05 3.18e-05 
48 1 1.82047e-06 7.13e-05 6.5e-05 3.62e-05 
18 1 1.5288e-06 8.38e-05 6.19e-05 4.29e-05 
46 1 1.78024e-06 5.76e-05 5.47e-05 4.33e-05 
11 1 1.7903e-06 8.28e-05 9.59e-05 4.38e-05 
ITEM: TIMESTEP
200
ITEM: NUMBER OF ATOMS
50
ITEM: BOX BOUNDS ff ff ff
0.0000000000000000e+00 1.0000000000000000e-04
0.0000000000000000e+00 1.0000000000000000e-04
0.0000000000000000e+00 5.0000000000000002e-05
ITEM: ATOMS id type diameter x y z 
44 1 1.49718e-06 4.26e-05 4.57e-05 2.62e-06 
10 1 1.7602e-06 2.66e-05 3.84e-06 3.19e-06 
2 1 1.45672e-06 3.53e-06 2.37e-05 5.44e-06 
5 1 1.68939e-06 4.71e-05 3.73e-05 6.25e-06 
28 1 1.41625e-06 4.66e-05 9.72e-06 1.11e-05 
27 1 1.79055e-06 4.79e-05 4.52e-05 1.77e-05 
29 1 1.77031e-06 3.05e-05 4.81e-05 2.24e-05 
30 1 1.65904e-06 1.21e-05 2.32e-05 3.17e-05 
7 1 1.47695e-06 2.15e-05 4.96e-05 3.47e-05 
3 1 1.62869e-06 4.31e-05 1.28e-05 4.82e-05 
9 1 1.93217e-06 4.53e-05 8.83e-05 1.93e-06 
14 1 1.46683e-06 4.06e-05 6.62e-05 9.41e-06 
42 1 1.54776e-06 8.91e-06 9.39e-05 9.53e-06 
49 1 1.87147e-06 9.96e-06 8.79e-05 1.13e-05 
24 1 1.79055e-06 4.66e-05 5.09e-05 1.21e-05 
20 1 1.90182e-06 4.07e-05 5.93e-05 1.4e-05 
8 1 1.52753e-06 2.69e-05 8.39e-05 1.66e-05 
43 1 1.46683e-06 2.05e-05 9.71e-05 1.96e-05 
12 1 1.66915e-06 2.11e-05 6e-05 2.83e-05 
32 1 1.94229e-06 2.97e-05 7.73e-05 3.08e-05 
37 1 1.61857e-06 1.43e-05 8.43e-05 3.36e-05 
13 1 1.58822e-06 3.56e-05 8.96e-05 3.41e-05 
21 1 1.40613e-06 3.59e-05 7.03e-05 3.69e-05 
26 1 1.64892e-06 9.48e-06 5.65e-05 4.38e-05 
41 1 1.85124e-06 2.48e-05 8.05e-05 4.54e-05 
47 1 1.68939e-06 4.62e-05 8.72e-05 4.71e-05 
22 1 1.51741e-06 5.5e-05 4.98e-05 6.76e-06 
40 1 1.80066e-06 8.68e-05 4.07e-05 1.23e-05 
23 1 1.51741e-06 8.32e-05 4.19e-05 1.55e-05 
33 1 1.48706e-06 6.42e-05 4.34e-05 1.58e-05 
16 1 1.6995e-06 7.4e-05 4.8e-05 1.57e-05 
19 1 1.65904e-06 6.07e-05 6.79e-06 3.56e-05 
15 1 1.52753e-06 7.77e-05 2.91e-05 3.64e-05 
34 1 1.90182e-06 5.53e-05 6.93e-06 4.43e-05 
25 1 1.85124e-06 6.36e-05 2.95e-06 4.7e-05 
36 1 1.45672e-06 9.73e-05 9.06e-05 5.52e-06 
4 1 1.53764e-06 8.65e-05 6.88e-05 8.7e-06 
1 1 1.5073e-06 9.38e-05 8.72e-05 1.04e-05 
35 1 1.94229e-06 6.64e-05 5.49e-05 1.19e-05 
50 1 1.6995e-06 7.65e-05 9.48e-05 1.19e-05 
17 1 1.5073e-06 6.87e-05 6.32e-05 1.76e-05 
6 1 1.39602e-06 5.91e-05 8.39e-05 2.37e-05 
39 1 1.90182e-06 9.01e-05 5.88e-05 2.44e-05 
38 1 1.57811e-06 8.42e-05 8.35e-05 2.45e-05 
31 1 1.75008e-06 6.16e-05 6.19e-05 2.47e-05 
45 1 1.91194e-06 5.58e-05 5.82e-05 3.18e-05 
48 1 1.83101e-06 7.13e-05 6.5e-05 3.62e-05 
18 1 1.53764e-06 8.38e-05 6.19e-05 4.29e-05 
46 1 1.79055e-06 5.76e-05 5.47e-05 4.33e-05 
11 1 1.80066e-06 8.28e-05 9.59e-05 4.38e-05 
ITEM: TIMESTEP
300
ITEM: NUMBER OF ATOMS
50
ITEM: BOX BOUNDS ff ff ff
0.0000000000000000e+00 1.0000000000000000e-04
0.0000000000000000e+00 1.0000000000000000e-04
0.0000000000000000e+00 5.0000000000000002e-05
ITEM: ATOMS id type diameter x y z 
44 1 1.50584e-06 4.26e-05 4.57e-05 2.62e-06 
10 1 1.77038e-06 2.66e-05 3.84e-06 3.19e-06 
2 1 1.46515e-06 3.53e-06 2.37e-05 5.44e-06 
5 1 1.69916e-06 4.71e-05 3.73e-05 6.25e-06 
28 1 1.42445e-06 4.66e-05 9.72e-06 1.11e-05 
27 1 1.80091e-06 4.79e-05 4.52e-05 1.77e-05 
29 1 1.78056e-06 3.05e-05 4.81e-05 2.24e-05 
30 1 1.66864e-06 1.21e-05 2.32e-05 3.17e-05 
7 1 1.48549e-06 2.15e-05 4.96e-05 3.47e-05 
3 1 1.63811e-06 4.31e-05 1.28e-05 4.82e-05 
9 1 1.94335e-06 4.53e-05 8.83e-05 1.93e-06 
14 1 1.47532e-06 4.06e-05 6.62e-05 9.41e-06 
42 1 1.55672e-06 8.91e-06 9.39e-05 9.53e-06 
49 1 1.88231e-06 9.96e-06 8.79e-05 1.13e-05 
24 1 1.80091e-06 4.66e-05 5.09e-05 1.21e-05 
20 1 1.91283e-06 4.07e-05 5.93e-05 1.4e-05 
8 1 1.53637e-06 2.69e-05 8.39e-05 1.66e-05 
43 1 1.47532e-06 2.05e-05 9.71e-05 1.96e-05 
12 1 1.67881e-06 2.11e-05 6e-05 2.83e-05 
32 1 1.95353e-06 2.97e-05 7.73e-05 3.08e-05 
37 1 1.62794e-06 1.43e-05 8.43e-05 3.36e-05 
13 1 1.59742e-06 3.56e-05 8.96e-05 3.41e-05 
21 1 1.41427e-06 3.59e-05 7.03e-05 3.69e-05 
26 1 1.65846e-06 9.48e-06 5.65e-05 4.38e-05 
41 1 1.86196e-06 2.48e-05 8.05e-05 4.54e-05 
47 1 1.69916e-06 4.62e-05 8.72e-05 4.71e-05 
22 1 1.52619e-06 5.5e-05 4.98e-05 6.76e-06 
40 1 1.81108e-06 8.68e-05 4.07e-05 1.23e-05 
23 1 1.52619e-06 8.32e-05 4.19e-05 1.55e-05 
33 1 1.49567e-06 6.42e-05 4.34e-05 1.58e-05 
16 1 1.70934e-06 7.4e-05 4.8e-05 1.57e-05 
19 1 1.66864e-06 6.07e-05 6.79e-06 3.56e-05 
15 1 1.53637e-06 7.77e-05 2.91e-05 3.64e-05 
34 1 1.91283e-06 5.53e-05 6.93e-06 4.43e-05 
25 1 1.86196e-06 6.36e-05 2.95e-06 4.7e-05 
36 1 1.46515e-06 9.73e-05 9.06e-05 5.52e-06 
4 1 1.54654e-06 8.65e-05 6.88e-05 8.7e-06 
1 1 1.51602e-06 9.38e-05 8.72e-05 1.04e-05 
35 1 1.95353e-06 6.64e-05 5.49e-05 1.19e-05 
50 1 1.70934e-06 7.65e-05 9.48e-05 1.19e-05 
17 1 1.51602e-06 6.87e-05 6.32e-05 1.76e-05 
6 1 1.4041e-06 5.91e-05 8.39e-05 2.37e-05 
39 1 1.91283e-06 9.01e-05 5.88e-05 2.44e-05 
38 1 1.58724e-06 8.42e-05 8.35e-05 2.45e-05 
31 1 1.76021e-06 6.16e-05 6.19e-05 2.47e-05 
45 1 1.923e-06 5.58e-05 5.82e-05 3.18e-05 
48 1 1.84161e-06 7.13e-05 6.5e-05 3.62e-05 
18 1 1.54654e-06 8.38e-05 6.19e-05 4.29e-05 
46 1 1.80091e-06 5.76e-05 5.47e-05 4.33e-05 
11 1 1.81108e-06 8.28e-05 9.59e-05 4.38e-05 
ITEM: TIMESTEP
400
ITEM: NUMBER OF ATOMS
50
ITEM: BOX BOUNDS ff ff ff
0.0000000000000000e+00 1.0000000000000000e-04
0.0000000000000000e+00 1.0000000000000000e-04
0.0000000000000000e+00 5.0000000000000002e-05
ITEM: ATOMS id type diameter x y z 
44 1 1.51456e-06 4.26e-05 4.57e-05 2.62e-06 
10 1 1.78063e-06 2.66e-05 3.84e-06 3.19e-06 
2 1 1.47362e-06 3.53e-06 2.37e-05 5.44e-06 
5 1 1.709e-06 4.71e-05 3.73e-05 6.25e-06 
28 1 1.43269e-06 4.66e-05 9.72e-06 1.11e-05 
27 1 1.81133e-06 4.79e-05 4.52e-05 1.77e-05 
29 1 1.79086e-06 3.05e-05 4.81e-05 2.24e-05 
30 1 1.67829e-06 1.21e-05 2.32e-05 3.17e-05 
7 1 1.49409e-06 2.15e-05 4.96e-05 3.47e-05 
3 1 1.64759e-06 4.31e-05 1.28e-05 4.82e-05 
9 1 1.9546e-06 4.53e-05 8.83e-05 1.93e-06 
14 1 1.48386e-06 4.06e-05 6.62e-05 9.41e-06 
42 1 1.56573e-06 8.91e-06 9.39e-05 9.53e-06 
49 1 1.8932e-06 9.96e-06 8.79e-05 1.13e-05 
24 1 1.81133e-06 4.66e-05 5.09e-05 1.21e-05 
20 1 1.9239e-06 4.07e-05 5.93e-05 1.4e-05 
8 1 1.54526e-06 2.69e-05 8.39e-05 1.66e-05 
43 1 1.48386e-06 2.05e-05 9.71e-05 1.96e-05 
12 1 1.68853e-06 2.11e-05 6e-05 2.83e-05 
32 1 1.96483e-06 2.97e-05 7.73e-05 3.08e-05 
37 1 1.63736e-06 1.43e-05 8.43e-05 3.36e-05 
13 1 1.60666e-06 3.56e-05 8.96e-05 3.41e-05 
21 1 1.42246e-06 3.59e-05 7.03e-05 3.69e-05 
26 1 1.66806e-06 9.48e-06 5.65e-05 4.38e-05 
41 1 1.87273e-06 2.48e-05 8.05e-05 4.54e-05 
47 1 1.709e-06 4.62e-05 8.72e-05 4.71e-05 
22 1 1.53503e-06 5.5e-05 4.98e-05 6.76e-06 
40 1 1.82156e-06 8.68e-05 4.07e-05 1.23e-05 
23 1 1.53503e-06 8.32e-05 4.19e-05 1.55e-05 
33 1 1.50433e-06 6.42e-05 4.34e-05 1.58e-05 
16 1 1.71923e-06 7.4e-05 4.8e-05 1.57e-05 
19 1 1.67829e-06 6.07e-05 6.79e-06 3.56e-05 
15 1 1.54526e-06 7.77e-05 2.91e-05 3.64e-05 
34 1 1.9239e-06 5.53e-05 6.93e-06 4.43e-05 
25 1 1.87273e-06 6.36e-05 2.95e-06 4.7e-05 
36 1 1.47362e-06 9.73e-05 9.06e-05 5.52e-06 
4 1 1.55549e-06 8.65e-05 6.88e-05 8.7e-06 
1 1 1.52479e-06 9.38e-05 8.72e-05 1.04e-05 
35 1 1.96483e-06 6.64e-05 5.49e-05 1.19e-05 
50 1 1.71923e-06 7.65e-05 9.48e-05 1.19e-05 
17 1 1.52479e-06 6.87e-05 6.32e-05 1.76e-05 
6 1 1.41222e-06 5.91e-05 8.39e-05 2.37e-05 
39 1 1.9239e-06 9.01e-05 5.88e-05 2.44e-05 
38 1 1.59643e-06 8.42e-05 8.35e-05 2.45e-05 
31 1 1.7704e-06 6.16e-05 6.19e-05 2.47e-05 
45 1 1.93413e-06 5.58e-05 5.82e-05 3.18e-05 
48 1 1.85226e-06 7.13e-05 6.5e-05 3.62e-05 
18 1 1.55549e-06 8.38e-05 6.19e-05 4.29e-05 
46 1 1.81133e-06 5.76e-05 5.47e-05 4.33e-05 
11 1 1.82156e-06 8.28e-05 9.59e-05 4.38e-05 
ITEM: TIMESTEP
500
ITEM: NUMBER OF ATOMS
52
ITEM: BOX BOUNDS ff ff ff
0.0000000000000000e+00 1.0000000000000000e-04
0.0000000000000000e+00 1.0000000000000000e-04
0.0000000000000000e+00 5.0000000000000002e-05
ITEM: ATOMS id type diameter x y z 
44 1 1.52332e-06 4.26e-05 4.57e-05 2.62e-06 
10 1 1.79093e-06 2.66e-05 3.84e-06 3.19e-06 
2 1 1.48215e-06 3.53e-06 2.37e-05 5.44e-06 
5 1 1.71889e-06 4.71e-05 3.73e-05 6.25e-06 
28 1 1.44098e-06 4.66e-05 9.72e-06 1.11e-05 
27 1 1.82181e-06 4.79e-05 4.52e-05 1.77e-05 
29 1 1.80123e-06 3.05e-05 4.81e-05 2.24e-05 
30 1 1.68801e-06 1.21e-05 2.32e-05 3.17e-05 
7 1 1.50274e-06 2.15e-05 4.96e-05 3.47e-05 
3 1 1.65713e-06 4.31e-05 1.28e-05 4.82e-05 
9 1 1.96591e-06 4.53e-05 8.83e-05 1.93e-06 
14 1 1.49245e-06 4.06e-05 6.62e-05 9.41e-06 
42 1 1.57479e-06 8.91e-06 9.39e-05 9.53e-06 
49 1 1.90415e-06 9.96e-06 8.79e-05 1.13e-05 
24 1 1.82181e-06 4.66e-05 5.09e-05 1.21e-05 
20 1 1.93503e-06 4.07e-05 5.93e-05 1.4e-05 
8 1 1.5542e-06 2.69e-05 8.39e-05 1.66e-05 
43 1 1.49245e-06 2.05e-05 9.71e-05 1.96e-05 
12 1 1.6983e-06 2.11e-05 6e-05 2.83e-05 
32 1 1.56135e-06 2.95451e-05 7.69495e-05 3.14794e-05 
37 1 1.64684e-06 1.43e-05 8.43e-05 3.36e-05 
13 1 1.61596e-06 3.56e-05 8.96e-05 3.41e-05 
21 1 1.43069e-06 3.59e-05 7.03e-05 3.69e-05 
26 1 1.67771e-06 9.48e-06 5.65e-05 4.38e-05 
41 1 1.88357e-06 2.48e-05 8.05e-05 4.54e-05 
47 1 1.71889e-06 4.62e-05 8.72e-05 4.71e-05 
51 1 1.57561e-06 2.98563e-05 7.76537e-05 3.01144e-05 
22 1 1.54391e-06 5.5e-05 4.98e-05 6.76e-06 
40 1 1.83211e-06 8.68e-05 4.07e-05 1.23e-05 
23 1 1.54391e-06 8.32e-05 4.19e-05 1.55e-05 
33 1 1.51303e-06 6.42e-05 4.34e-05 1.58e-05 
16 1 1.72918e-06 7.4e-05 4.8e-05 1.57e-05 
19 1 1.68801e-06 6.07e-05 6.79e-06 3.56e-05 
15 1 1.5542e-06 7.77e-05 2.91e-05 3.64e-05 
34 1 1.93503e-06 5.53e-05 6.93e-06 4.43e-05 
25 1 1.88357e-06 6.36e-05 2.95e-06 4.7e-05 
36 1 1.48215e-06 9.73e-05 9.06e-05 5.52e-06 
4 1 1.56449e-06 8.65e-05 6.88e-05 8.7e-06 
1 1 1.53362e-06 9.38e-05 8.72e-05 1.04e-05 
35 1 1.56135e-06 6.62451e-05 5.45495e-05 1.25794e-05 
50 1 1.72918e-06 7.65e-05 9.48e-05 1.19e-05 
17 1 1.53362e-06 6.87e-05 6.32e-05 1.76e-05 
52 1 1.57561e-06 6.65563e-05 5.52537e-05 1.12144e-05 
6 1 1.4204e-06 5.91e-05 8.39e-05 2.37e-05 
39 1 1.93503e-06 9.01e-05 5.88e-05 2.44e-05 
38 1 1.60567e-06 8.42e-05 8.35e-05 2.45e-05 
31 1 1.78064e-06 6.16e-05 6.19e-05 2.47e-05 
45 1 1.94533e-06 5.58e-05 5.82e-05 3.18e-05 
48 1 1.86298e-06 7.13e-05 6.5e-05 3.62e-05 
18 1 1.56449e-06 8.38e-05 6.19e-05 4.29e-05 
46 1 1.82181e-06 5.76e-05 5.47e-05 4.33e-05 
11 1 1.83211e-06 8.28e-05 9.59e-05 4.38e-05 
ITEM: TIMESTEP
600
ITEM: NUMBER OF ATOMS
53
ITEM: BOX BOUNDS ff ff ff
0.0000000000000000e+00 1.0000000000000000e-04
0.0000000000000000e+00 1.0000000000000000e-04
0.0000000000000000e+00 5.0000000000000002e-05
ITEM: ATOMS id type diameter x y z 
44 1 1.53214e-06 4.26e-05 4.57e-05 2.62e-06 
10 1 1.8013e-06 2.66e-05 3.84e-06 3.19e-06 
2 1 1.49073e-06 3.53e-06 2.37e-05 5.44e-06 
5 1 1.72883e-06 4.71e-05 3.73e-05 6.25e-06 
28 1 1.44932e-06 4.66e-05 9.72e-06 1.11e-05 
27 1 1.83236e-06 4.79e-05 4.52e-05 1.77e-05 
29 1 1.81165e-06 3.05e-05 4.81e-05 2.24e-05 
30 1 1.69778e-06 1.21e-05 2.32e-05 3.17e-05 
7 1 1.51143e-06 2.15e-05 4.96e-05 3.47e-05 
3 1 1.66672e-06 4.31e-05 1.28e-05 4.82e-05 
9 1 1.56221e-06 4.5145e-05 8.79493e-05 2.60981e-06 
14 1 1.50108e-06 4.06e-05 6.62e-05 9.41e-06 
42 1 1.5839e-06 8.91e-06 9.39e-05 9.53e-06 
49 1 1.91517e-06 9.96e-06 8.79e-05 1.13e-05 
24 1 1.83236e-06 4.66e-05 5.09e-05 1.21e-05 
20 1 1.94623e-06 4.07e-05 5.93e-05 1.4e-05 
8 1 1.5632e-06 2.69e-05 8.39e-05 1.66e-05 
43 1 1.50108e-06 2.05e-05 9.71e-05 1.96e-05 
53 1 1.57647e-06 4.54564e-05 8.86539e-05 1.24399e-06 
12 1 1.70813e-06 2.11e-05 6e-05 2.83e-05 
32 1 1.57039e-06 2.95451e-05 7.69495e-05 3.14794e-05 
37 1 1.65637e-06 1.43e-05 8.43e-05 3.36e-05 
13 1 1.62531e-06 3.56e-05 8.96e-05 3.41e-05 
21 1 1.43897e-06 3.59e-05 7.03e-05 3.69e-05 
26 1 1.68742e-06 9.48e-06 5.65e-05 4.38e-05 
41 1 1.89447e-06 2.48e-05 8.05e-05 4.54e-05 
47 1 1.72883e-06 4.62e-05 8.72e-05 4.71e-05 
51 1 1.58473e-06 2.98563e-05 7.76537e-05 3.01144e-05 
22 1 1.55284e-06 5.5e-05 4.98e-05 6.76e-06 
40 1 1.84271e-06 8.68e-05 4.07e-05 1.23e-05 
23 1 1.55284e-06 8.32e-05 4.19e-05 1.55e-05 
33 1 1.52179e-06 6.42e-05 4.34e-05 1.58e-05 
16 1 1.73919e-06 7.4e-05 4.8e-05 1.57e-05 
19 1 1.69778e-06 6.07e-05 6.79e-06 3.56e-05 
15 1 1.5632e-06 7.77e-05 2.91e-05 3.64e-05 
34 1 1.94623e-06 5.53e-05 6.93e-06 4.43e-05 
25 1 1.89447e-06 6.36e-05 2.95e-06 4.7e-05 
36 1 1.49073e-06 9.73e-05 9.06e-05 5.52e-06 
4 1 1.57355e-06 8.65e-05 6.88e-05 8.7e-06 
1 1 1.54249e-06 9.38e-05 8.72e-05 1.04e-05 
35 1 1.57039e-06 6.62451e-05 5.45495e-05 1.25794e-05 
50 1 1.73919e-06 7.65e-05 9.48e-05 1.19e-05 
17 1 1.54249e-06 6.87e-05 6.32e-05 1.76e-05 
52 1 1.58473e-06 6.65563e-05 5.52537e-05 1.12144e-05 
6 1 1.42862e-06 5.91e-05 8.39e-05 2.37e-05 
39 1 1.94623e-06 9.01e-05 5.88e-05 2.44e-05 
38 1 1.61496e-06 8.42e-05 8.35e-05 2.45e-05 
31 1 1.79095e-06 6.16e-05 6.19e-05 2.47e-05 
45 1 1.95658e-06 5.58e-05 5.82e-05 3.18e-05 
48 1 1.87377e-06 7.13e-05 6.5e-05 3.62e-05 
18 1 1.57355e-06 8.38e-05 6.19e-05 4.29e-05 
46 1 1.83236e-06 5.76e-05 5.47e-05 4.33e-05 
11 1 1.84271e-06 8.28e-05 9.59e-05 4.38e-05 
ITEM: TIMESTEP
700
ITEM: NUMBER OF ATOMS
53
ITEM: BOX BOUNDS ff ff ff
0.0000000000000000e+00 1.0000000000000000e-04
0.0000000000000000e+00 1.0000000000000000e-04
0.0000000000000000e+00 5.0000000000000002e-05
ITEM: ATOMS id type diameter x y z 
44 1 1.54101e-06 4.26e-05 4.57e-05 2.62e-06 
10 1 1.81172e-06 2.66e-05 3.84e-06 3.19e-06 
2 1 1.49936e-06 3.53e-06 2.37e-05 5.44e-06 
5 1 1.73884e-06 4.71e-05 3.73e-05 6.25e-06 
28 1 1.45771e-06 4.66e-05 9.72e-06 1.11e-05 
27 1 1.84296e-06 4.79e-05 4.52e-05 1.77e-05 
29 1 1.82214e-06 3.05e-05 4.81e-05 2.24e-05 
30 1 1.7076e-06 1.21e-05 2.32e-05 3.17e-05 
7 1 1.52018e-06 2.15e-05 4.96e-05 3.47e-05 
3 1 1.67636e-06 4.31e-05 1.28e-05 4.82e-05 
9 1 1.57125e-06 4.5145e-05 8.79493e-05 2.60981e-06 
14 1 1.50977e-06 4.06e-05 6.62e-05 9.41e-06 
42 1 1.59307e-06 8.91e-06 9.39e-05 9.53e-06 
49 1 1.92626e-06 9.96e-06 8.79e-05 1.13e-05 
24 1 1.84296e-06 4.66e-05 5.09e-05 1.21e-05 
20 1 1.95749e-06 4.07e-05 5.93e-05 1.4e-05 
8 1 1.57224e-06 2.69e-05 8.39e-05 1.66e-05 
43 1 1.50977e-06 2.05e-05 9.71e-05 1.96e-05 
53 1 1.5856e-06 4.54564e-05 8.86539e-05 1.24399e-06 
12 1 1.71801e-06 2.11e-05 6e-05 2.83e-05 
32 1 1.57948e-06 2.95451e-05 7.69495e-05 3.14794e-05 
37 1 1.66595e-06 1.43e-05 8.43e-05 3.36e-05 
13 1 1.63472e-06 3.56e-05 8.96e-05 3.41e-05 
21 1 1.4473e-06 3.59e-05 7.03e-05 3.69e-05 
26 1 1.69719e-06 9.48e-06 5.65e-05 4.38e-05 
41 1 1.90543e-06 2.48e-05 8.05e-05 4.54e-05 
47 1 1.73884e-06 4.62e-05 8.72e-05 4.71e-05 
51 1 1.5939e-06 2.98563e-05 7.76537e-05 3.01144e-05 
22 1 1.56183e-06 5.5e-05 4.98e-05 6.76e-06 
40 1 1.85337e-06 8.68e-05 4.07e-05 1.23e-05 
23 1 1.56183e-06 8.32e-05 4.19e-05 1.55e-05 
33 1 1.53059e-06 6.42e-05 4.34e-05 1.58e-05 
16 1 1.74925e-06 7.4e-05 4.8e-05 1.57e-05 
19 1 1.7076e-06 6.07e-05 6.79e-06 3.56e-05 
15 1 1.57224e-06 7.77e-05 2.91e-05 3.64e-05 
34 1 1.95749e-06 5.53e-05 6.93e-06 4.43e-05 
25 1 1.90543e-06 6.36e-05 2.95e-06 4.7e-05 
36 1 1.49936e-06 9.73e-05 9.06e-05 5.52e-06 
4 1 1.58265e-06 8.65e-05 6.88e-05 8.7e-06 
1 1 1.55142e-06 9.38e-05 8.72e-05 1.04e-05 
35 1 1.57948e-06 6.62451e-05 5.45495e-05 1.25794e-05 
50 1 1.74925e-06 7.65e-05 9.48e-05 1.19e-05 
17 1 1.55142e-06 6.87e-05 6.32e-05 1.76e-05 
52 1 1.5939e-06 6.65563e-05 5.52537e-05 1.12144e-05 
6 1 1.43688e-06 5.91e-05 8.39e-05 2.37e-05 
39 1 1.95749e-06 9.01e-05 5.88e-05 2.44e-05 
38 1 1.6243e-06 8.42e-05 8.35e-05 2.45e-05 
31 1 1.80131e-06 6.16e-05 6.19e-05 2.47e-05 
45 1 1.96791e-06 5.58e-05 5.82e-05 3.18e-05 
48 1 1.88461e-06 7.13e-05 6.5e-05 3.62e-05 
18 1 1.58265e-06 8.38e-05 6.19e-05 4.29e-05 
46 1 1.84296e-06 5.76e-05 5.47e-05 4.33e-05 
11 1 1.85337e-06 8.28e-05 9.59e-05 4.38e-05 
ITEM: TIMESTEP
800
ITEM: NUMBER OF ATOMS
54
ITEM: BOX BOUNDS ff ff ff
0.0000000000000000e+00 1.0000000000000000e-04
0.0000000000000000e+00 1.0000000000000000e-04
0.0000000000000000e+00 5.0000000000000002e-05
ITEM: ATOMS id type diameter x y z 
44 1 1.54992e-06 4.26e-05 4.57e-05 2.62e-06 
10 1 1.82221e-06 2.66e-05 3.84e-06 3.19e-06 
2 1 1.50803e-06 3.53e-06 2.37e-05 5.44e-06 
5 1 1.7489e-06 4.71e-05 3.73e-05 6.25e-06 
28 1 1.46614e-06 4.66e-05 9.72e-06 1.11e-05 
27 1 1.85363e-06 4.79e-05 4.52e-05 1.77e-05 
29 1 1.83268e-06 3.05e-05 4.81e-05 2.24e-05 
30 1 1.71748e-06 1.21e-05 2.32e-05 3.17e-05 
7 1 1.52898e-06 2.15e-05 4.96e-05 3.47e-05 
3 1 1.68607e-06 4.31e-05 1.28e-05 4.82e-05 
9 1 1.58034e-06 4.5145e-05 8.79493e-05 2.60981e-06 
14 1 1.51851e-06 4.06e-05 6.62e-05 9.41e-06 
42 1 1.60229e-06 8.91e-06 9.39e-05 9.53e-06 
49 1 1.93741e-06 9.96e-06 8.79e-05 1.13e-05 
24 1 1.85363e-06 4.66e-05 5.09e-05 1.21e-05 
20 1 1.96882e-06 4.07e-05 5.93e-05 1.4e-05 
8 1 1.58134e-06 2.69e-05 8.39e-05 1.66e-05 
43 1 1.51851e-06 2.05e-05 9.71e-05 1.96e-05 
53 1 1.59477e-06 4.54564e-05 8.86539e-05 1.24399e-06 
12 1 1.72796e-06 2.11e-05 6e-05 2.83e-05 
32 1 1.58862e-06 2.95451e-05 7.69495e-05 3.14794e-05 
37 1 1.67559e-06 1.43e-05 8.43e-05 3.36e-05 
13 1 1.64418e-06 3.56e-05 8.96e-05 3.41e-05 
21 1 1.45567e-06 3.59e-05 7.03e-05 3.69e-05 
26 1 1.70701e-06 9.48e-06 5.65e-05 4.38e-05 
41 1 1.91646e-06 2.48e-05 8.05e-05 4.54e-05 
47 1 1.7489e-06 4.62e-05 8.72e-05 4.71e-05 
51 1 1.60312e-06 2.98563e-05 7.76537e-05 3.01144e-05 
22 1 1.57087e-06 5.5e-05 4.98e-05 6.76e-06 
40 1 1.8641e-06 8.68e-05 4.07e-05 1.23e-05 
23 1 1.57087e-06 8.32e-05 4.19e-05 1.55e-05 
33 1 1.53945e-06 6.42e-05 4.34e-05 1.58e-05 
16 1 1.75937e-06 7.4e-05 4.8e-05 1.57e-05 
19 1 1.71748e-06 6.07e-05 6.79e-06 3.56e-05 
15 1 1.58134e-06 7.77e-05 2.91e-05 3.64e-05 
34 1 1.96882e-06 5.53e-05 6.93e-06 4.43e-05 
25 1 1.91646e-06 6.36e-05 2.95e-06 4.7e-05 
36 1 1.50803e-06 9.73e-05 9.06e-05 5.52e-06 
4 1 1.59181e-06 8.65e-05 6.88e-05 8.7e-06 
1 1 1.5604e-06 9.38e-05 8.72e-05 1.04e-05 
35 1 1.58862e-06 6.62451e-05 5.45495e-05 1.25794e-05 
50 1 1.75937e-06 7.65e-05 9.48e-05 1.19e-05 
17 1 1.5604e-06 6.87e-05 6.32e-05 1.76e-05 
52 1 1.60312e-06 6.65563e-05 5.52537e-05 1.12144e-05 
6 1 1.4452e-06 5.91e-05 8.39e-05 2.37e-05 
39 1 1.96882e-06 9.01e-05 5.88e-05 2.44e-05 
38 1 1.6337e-06 8.42e-05 8.35e-05 2.45e-05 
31 1 1.81174e-06 6.16e-05 6.19e-05 2.47e-05 
45 1 1.5638e-06 5.56448e-05 5.78489e-05 3.24805e-05 
48 1 1.89552e-06 7.13e-05 6.5e-05 3.62e-05 
18 1 1.59181e-06 8.38e-05 6.19e-05 4.29e-05 
46 1 1.85363e-06 5.76e-05 5.47e-05 4.33e-05 
11 1 1.8641e-06 8.28e-05 9.59e-05 4.38e-05 
54 1 1.57807e-06 5.59566e-05 5.85543e-05 3.11133e-05 
ITEM: TIMESTEP
900
ITEM: NUMBER OF ATOMS
57
ITEM: BOX BOUNDS ff ff ff
0.0000000000000000e+00 1.0000000000000000e-04
0.0000000000000000e+00 1.0000000000000000e-04
0.0000000000000000e+00 5.0000000000000002e-05
ITEM: ATOMS id type diameter x y z 
44 1 1.55889e-06 4.26e-05 4.57e-05 2.62e-06 
10 1 1.83275e-06 2.66e-05 3.84e-06 3.19e-06 
2 1 1.51676e-06 3.53e-06 2.37e-05 5.44e-06 
5 1 1.75902e-06 4.71e-05 3.73e-05 6.25e-06 
28 1 1.47463e-06 4.66e-05 9.72e-06 1.11e-05 
27 1 1.86435e-06 4.79e-05 4.52e-05 1.77e-05 
29 1 1.84329e-06 3.05e-05 4.81e-05 2.24e-05 
30 1 1.72742e-06 1.21e-05 2.32e-05 3.17e-05 
7 1 1.53783e-06 2.15e-05 4.96e-05 3.47e-05 
3 1 1.69582e-06 4.31e-05 1.28e-05 4.82e-05 
9 1 1.58949e-06 4.5145e-05 8.79493e-05 2.60981e-06 
14 1 1.52729e-06 4.06e-05 6.62e-05 9.41e-06 
42 1 1.61156e-06 8.91e-06 9.39e-05 9.53e-06 
49 1 1.94862e-06 9.96e-06 8.79e-05 1.13e-05 
24 1 1.86435e-06 4.66e-05 5.09e-05 1.21e-05 
20 1 1.58034e-06 4.10553e-05 5.95921e-05 1.33583e-05 
8 1 1.59049e-06 2.69e-05 8.39e-05 1.66e-05 
43 1 1.52729e-06 2.05e-05 9.71e-05 1.96e-05 
53 1 1.604e-06 4.54564e-05 8.86539e-05 1.24399e-06 
55 1 1.56296e-06 4.03486e-05 5.90111e-05 1.46347e-05 
12 1 1.73796e-06 2.11e-05 6e-05 2.83e-05 
32 1 1.59781e-06 2.95411e-05 7.69405e-05 3.14969e-05 
37 1 1.68529e-06 1.43e-05 8.43e-05 3.36e-05 
13 1 1.65369e-06 3.56e-05 8.96e-05 3.41e-05 
21 1 1.4641e-06 3.59e-05 7.03e-05 3.69e-05 
26 1 1.71689e-06 9.48e-06 5.65e-05 4.38e-05 
41 1 1.92755e-06 2.48e-05 8.05e-05 4.54e-05 
47 1 1.75902e-06 4.62e-05 8.72e-05 4.71e-05 
51 1 1.6124e-06 2.98603e-05 7.76627e-05 3.00969e-05 
22 1 1.57996e-06 5.5e-05 4.98e-05 6.76e-06 
40 1 1.87489e-06 8.68e-05 4.07e-05 1.23e-05 
23 1 1.57996e-06 8.32e-05 4.19e-05 1.55e-05 
33 1 1.54836e-06 6.42e-05 4.34e-05 1.58e-05 
16 1 1.76956e-06 7.4e-05 4.8e-05 1.57e-05 
19 1 1.72742e-06 6.07e-05 6.79e-06 3.56e-05 
15 1 1.59049e-06 7.77e-05 2.91e-05 3.64e-05 
34 1 1.56452e-06 5.51448e-05 6.57875e-06 4.49808e-05 
25 1 1.92755e-06 6.36e-05 2.95e-06 4.7e-05 
56 1 1.57881e-06 5.54566e-05 7.28446e-06 4.3613e-05 
36 1 1.51676e-06 9.73e-05 9.06e-05 5.52e-06 
4 1 1.60103e-06 8.65e-05 6.88e-05 8.7e-06 
1 1 1.56943e-06 9.38e-05 8.72e-05 1.04e-05 
35 1 1.59781e-06 6.62411e-05 5.45405e-05 1.25969e-05 
50 1 1.76956e-06 7.65e-05 9.48e-05 1.19e-05 
17 1 1.56943e-06 6.87e-05 6.32e-05 1.76e-05 
52 1 1.6124e-06 6.65603e-05 5.52627e-05 1.11969e-05 
6 1 1.45356e-06 5.91e-05 8.39e-05 2.37e-05 
39 1 1.58034e-06 9.04553e-05 5.90921e-05 2.37583e-05 
38 1 1.64316e-06 8.42e-05 8.35e-05 2.45e-05 
31 1 1.82222e-06 6.16e-05 6.19e-05 2.47e-05 
45 1 1.57285e-06 5.56448e-05 5.78489e-05 3.24805e-05 
48 1 1.90649e-06 7.13e-05 6.5e-05 3.62e-05 
18 1 1.60103e-06 8.38e-05 6.19e-05 4.29e-05 
46 1 1.86435e-06 5.76e-05 5.47e-05 4.33e-05 
11 1 1.87489e-06 8.28e-05 9.59e-05 4.38e-05 
54 1 1.58721e-06 5.59566e-05 5.85543e-05 3.11133e-05 
57 1 1.56296e-06 8.97486e-05 5.85111e-05 2.50347e-05 
ITEM: TIMESTEP
1000
ITEM: NUMBER OF ATOMS
57
ITEM: BOX BOUNDS ff ff ff
0.0000000000000000e+00 1.0000000000000000e-04
0.0000000000000000e+00 1.0000000000000000e-04
0.0000000000000000e+00 5.0000000000000002e-05
ITEM: ATOMS id type diameter x y z 
44 1 1.56792e-06 4.26e-05 4.57e-05 2.62e-06 
10 1 1.84336e-06 2.66e-05 3.84e-06 3.19e-06 
2 1 1.52554e-06 3.53e-06 2.37e-05 5.44e-06 
5 1 1.7692e-06 4.71e-05 3.73e-05 6.25e-06 
28 1 1.48316e-06 4.66e-05 9.72e-06 1.11e-05 
27 1 1.87514e-06 4.79e-05 4.52e-05 1.77e-05 
29 1 1.85395e-06 3.05e-05 4.81e-05 2.24e-05 
30 1 1.73742e-06 1.21e-05 2.32e-05 3.17e-05 
7 1 1.54673e-06 2.15e-05 4.96e-05 3.47e-05 
3 1 1.70564e-06 4.31e-05 1.28e-05 4.82e-05 
53 1 1.61329e-06 4.54604e-05 8.86629e-05 1.22657e-06 
9 1 1.59869e-06 4.5141e-05 8.79403e-05 2.62722e-06 
14 1 1.53613e-06 4.06e-05 6.62e-05 9.41e-06 
42 1 1.62089e-06 8.91e-06 9.39e-05 9.53e-06 
49 1 1.95989e-06 9.96e-06 8.79e-05 1.13e-05 
24 1 1.87514e-06 4.66e-05 5.09e-05 1.21e-05 
20 1 1.58948e-06 4.10553e-05 5.95921e-05 1.33583e-05 
55 1 1.57201e-06 4.03486e-05 5.90111e-05 1.46347e-05 
8 1 1.5997e-06 2.69e-05 8.39e-05 1.66e-05 
43 1 1.53613e-06 2.05e-05 9.71e-05 1.96e-05 
12 1 1.74801e-06 2.11e-05 6e-05 2.83e-05 
51 1 1.62173e-06 2.98603e-05 7.76627e-05 3.00969e-05 
32 1 1.60706e-06 2.95411e-05 7.69405e-05 3.14969e-05 
37 1 1.69504e-06 1.43e-05 8.43e-05 3.36e-05 
13 1 1.66326e-06 3.56e-05 8.96e-05 3.41e-05 
21 1 1.47257e-06 3.59e-05 7.03e-05 3.69e-05 
26 1 1.72683e-06 9.48e-06 5.65e-05 4.38e-05 
41 1 1.93871e-06 2.48e-05 8.05e-05 4.54e-05 
47 1 1.7692e-06 4.62e-05 8.72e-05 4.71e-05 
22 1 1.5891e-06 5.5e-05 4.98e-05 6.76e-06 
40 1 1.88574e-06 8.68e-05 4.07e-05 1.23e-05 
23 1 1.5891e-06 8.32e-05 4.19e-05 1.55e-05 
33 1 1.55732e-06 6.42e-05 4.34e-05 1.58e-05 
16 1 1.7798e-06 7.4e-05 4.8e-05 1.57e-05 
19 1 1.73742e-06 6.07e-05 6.79e-06 3.56e-05 
15 1 1.5997e-06 7.77e-05 2.91e-05 3.64e-05 
56 1 1.58795e-06 5.54566e-05 7.28446e-06 4.3613e-05 
34 1 1.57358e-06 5.51448e-05 6.57875e-06 4.49808e-05 
25 1 1.93871e-06 6.36e-05 2.95e-06 4.7e-05 
36 1 1.52554e-06 9.73e-05 9.06e-05 5.52e-06 
4 1 1.61029e-06 8.65e-05 6.88e-05 8.7e-06 
1 1 1.57851e-06 9.38e-05 8.72e-05 1.04e-05 
52 1 1.62173e-06 6.65603e-05 5.52627e-05 1.11969e-05 
50 1 1.7798e-06 7.65e-05 9.48e-05 1.19e-05 
35 1 1.60706e-06 6.62411e-05 5.45405e-05 1.25969e-05 
17 1 1.57851e-06 6.87e-05 6.32e-05 1.76e-05 
39 1 1.58948e-06 9.04553e-05 5.90921e-05 2.37583e-05 
6 1 1.46198e-06 5.91e-05 8.39e-05 2.37e-05 
38 1 1.65267e-06 8.42e-05 8.35e-05 2.45e-05 
31 1 1.83277e-06 6.16e-05 6.19e-05 2.47e-05 
57 1 1.57201e-06 8.97486e-05 5.85111e-05 2.50347e-05 
54 1 1.59639e-06 5.59566e-05 5.85543e-05 3.11133e-05 
45 1 1.58195e-06 5.56448e-05 5.78489e-05 3.24805e-05 
48 1 1.91752e-06 7.13e-05 6.5e-05 3.62e-05 
18 1 1.61029e-06 8.38e-05 6.19e-05 4.29e-05 
46 1 1.87514e-06 5.76e-05 5.47e-05 4.33e-05 
11 1 1.88574e-06 8.28e-05 9.59e-05 4.38e-05 
ITEM: TIMESTEP
1100
ITEM: NUMBER OF ATOMS
57
ITEM: BOX BOUNDS ff ff ff
0.0000000000000000e+00 1.0000000000000000e-04
0.0000000000000000e+00 1.0000000000000000e-04
0.0000000000000000e+00 5.0000000000000002e-05
ITEM: ATOMS id type diameter x y z 
44 1 1.57699e-06 4.26e-05 4.57e-05 2.62e-06 
10 1 1.85403e-06 2.66e-05 3.84e-06 3.19e-06 
2 1 1.53437e-06 3.53e-06 2.37e-05 5.44e-06 
5 1 1.77944e-06 4.71e-05 3.73e-05 6.25e-06 
28 1 1.49175e-06 4.66e-05 9.72e-06 1.11e-05 
27 1 1.88599e-06 4.79e-05 4.52e-05 1.77e-05 
29 1 1.86468e-06 3.05e-05 4.81e-05 2.24e-05 
30 1 1.74747e-06 1.21e-05 2.32e-05 3.17e-05 
7 1 1.55568e-06 2.15e-05 4.96e-05 3.47e-05 
3 1 1.71551e-06 4.31e-05 1.28e-05 4.82e-05 
53 1 1.62262e-06 4.54604e-05 8.86629e-05 1.22657e-06 
9 1 1.60794e-06 4.5141e-05 8.79403e-05 2.62722e-06 
14 1 1.54502e-06 4.06e-05 6.62e-05 9.41e-06 
42 1 1.63027e-06 8.91e-06 9.39e-05 9.53e-06 
49 1 1.97124e-06 9.96e-06 8.79e-05 1.13e-05 
24 1 1.88599e-06 4.66e-05 5.09e-05 1.21e-05 
20 1 1.59868e-06 4.10553e-05 5.95921e-05 1.33583e-05 
55 1 1.58111e-06 4.03486e-05 5.90111e-05 1.46347e-05 
8 1 1.60896e-06 2.69e-05 8.39e-05 1.66e-05 
43 1 1.54502e-06 2.05e-05 9.71e-05 1.96e-05 
12 1 1.75813e-06 2.11e-05 6e-05 2.83e-05 
51 1 1.63112e-06 2.98603e-05 7.76627e-05 3.00969e-05 
32 1 1.61636e-06 2.95411e-05 7.69405e-05 3.14969e-05 