ITEM: TIMESTEP
0
ITEM: NUMBER OF ATOMS
50
ITEM: BOX BOUNDS ff ff ff
0.0000000000000000e+00 1.0000000000000000e-04
0.0000000000000000e+00 1.0000000000000000e-04
0.0000000000000000e+00 5.0000000000000002e-05
ITEM: ATOMS id type diameter x y z 
42 1 1.54e-06 3.83e-05 4.31e-05 4.72e-06 
31 1 1.44e-06 3.92e-06 2.06e-05 1.72e-05 
34 1 1.61e-06 1.6e-05 1.65e-05 1.79e-05 
16 1 1.68e-06 1.76e-05 3.15e-05 2.12e-05 
21 1 1.38e-06 4.66e-05 3.7e-05 2.88e-05 
39 1 1.88e-06 4.8e-05 3.36e-05 3.87e-05 
17 1 1.4e-06 1.08e-05 1.05e-05 4.2e-05 
2 1 1.76e-06 2.88e-06 2.47e-06 4.58e-05 
48 1 1.91e-06 6.86e-06 8.97e-05 2.72e-06 
19 1 1.72e-06 3.05e-05 8.47e-05 4.73e-06 
14 1 1.47e-06 1.12e-05 8.47e-05 5.02e-06 
46 1 1.85e-06 3.48e-05 8.95e-05 7.46e-06 
29 1 1.86e-06 1.45e-05 8.69e-05 1.73e-05 
35 1 1.83e-06 3.57e-05 8.63e-05 2.53e-05 
1 1 1.44e-06 4.74e-05 9.46e-05 3.09e-05 
27 1 1.63e-06 3.87e-05 8.27e-05 3.18e-05 
11 1 1.65e-06 1.85e-05 8.67e-05 3.39e-05 
33 1 1.74e-06 2.82e-05 5.59e-05 3.43e-05 
49 1 1.86e-06 2.33e-05 7.1e-05 3.44e-05 
15 1 1.6e-06 2.42e-05 6.64e-05 3.48e-05 
6 1 1.71e-06 3.35e-05 6.5e-05 3.88e-05 
37 1 1.38e-06 2.05e-05 9.31e-05 3.95e-05 
13 1 1.41e-06 6.72e-05 1.29e-05 9.25e-06 
50 1 1.47e-06 6.85e-05 4.96e-05 1.05e-05 
12 1 1.42e-06 8.71e-05 4.91e-05 1.08e-05 
38 1 1.63e-06 9e-05 2.39e-05 1.12e-05 
28 1 1.53e-06 5.05e-05 6.43e-06 1.93e-05 
10 1 1.66e-06 7.44e-05 4.78e-05 2.08e-05 
9 1 1.52e-06 5.52e-05 7.24e-06 2.6e-05 
8 1 1.69e-06 7.22e-05 6.43e-06 2.82e-05 
5 1 1.43e-06 7.82e-05 1.69e-05 2.82e-05 
36 1 1.92e-06 9.21e-05 4.08e-05 2.82e-05 
32 1 1.49e-06 8.66e-05 2.26e-05 3.08e-05 
30 1 1.49e-06 5.28e-05 2.84e-05 3.08e-05 
24 1 1.93e-06 8.94e-05 4.27e-05 3.08e-05 
26 1 1.4e-06 6.38e-05 4.14e-05 3.3e-05 
45 1 1.89e-06 9.61e-05 4.49e-05 3.31e-05 
44 1 1.6e-06 8.48e-05 1.46e-05 4.18e-05 
25 1 1.71e-06 8.08e-05 4.6e-05 4.24e-05 
40 1 1.48e-06 8.05e-05 5.46e-05 1.04e-05 
18 1 1.67e-06 5.78e-05 5.98e-05 1.48e-05 
4 1 1.72e-06 9.41e-05 5.77e-05 1.54e-05 
3 1 1.47e-06 5.85e-05 5.79e-05 1.83e-05 
20 1 1.67e-06 6.66e-05 6.11e-05 2.05e-05 
7 1 1.86e-06 9.03e-05 5.26e-05 2.15e-05 
23 1 1.74e-06 7.06e-05 7.4e-05 2.75e-05 
47 1 1.6e-06 7.7e-05 7.39e-05 3.15e-05 
43 1 1.68e-06 9.2e-05 5.09e-05 3.59e-05 
22 1 1.39e-06 8.6e-05 8.92e-05 3.64e-05 
41 1 1.66e-06 7.05e-05 5.59e-05 4.8e-05 
ITEM: TIMESTEP
100
ITEM: NUMBER OF ATOMS
50
ITEM: BOX BOUNDS ff ff ff
0.0000000000000000e+00 1.0000000000000000e-04
0.0000000000000000e+00 1.0000000000000000e-04
0.0000000000000000e+00 5.0000000000000002e-05
ITEM: ATOMS id type diameter x y z 
42 1 1.5485e-06 3.83e-05 4.31e-05 4.72e-06 
31 1 1.44795e-06 3.92e-06 2.06e-05 1.72e-05 
34 1 1.61889e-06 1.6e-05 1.65e-05 1.79e-05 
16 1 1.68927e-06 1.76e-05 3.15e-05 2.12e-05 
21 1 1.38762e-06 4.66e-05 3.7e-05 2.88e-05 
39 1 1.89038e-06 4.8e-05 3.36e-05 3.87e-05 
17 1 1.40773e-06 1.08e-05 1.05e-05 4.2e-05 
2 1 1.76971e-06 2.88e-06 2.47e-06 4.58e-05 
48 1 1.92054e-06 6.86e-06 8.97e-05 2.72e-06 
19 1 1.72949e-06 3.05e-05 8.47e-05 4.73e-06 
14 1 1.47811e-06 1.12e-05 8.47e-05 5.02e-06 
46 1 1.86021e-06 3.48e-05 8.95e-05 7.46e-06 
29 1 1.87027e-06 1.45e-05 8.69e-05 1.73e-05 
35 1 1.8401e-06 3.57e-05 8.63e-05 2.53e-05 
1 1 1.44795e-06 4.74e-05 9.46e-05 3.09e-05 
27 1 1.639e-06 3.87e-05 8.27e-05 3.18e-05 
11 1 1.65911e-06 1.85e-05 8.67e-05 3.39e-05 
33 1 1.7496e-06 2.82e-05 5.59e-05 3.43e-05 
49 1 1.87027e-06 2.33e-05 7.1e-05 3.44e-05 
15 1 1.60883e-06 2.42e-05 6.64e-05 3.48e-05 
6 1 1.71944e-06 3.35e-05 6.5e-05 3.88e-05 
37 1 1.38762e-06 2.05e-05 9.31e-05 3.95e-05 
13 1 1.41778e-06 6.72e-05 1.29e-05 9.25e-06 
50 1 1.47811e-06 6.85e-05 4.96e-05 1.05e-05 
12 1 1.42784e-06 8.71e-05 4.91e-05 1.08e-05 
38 1 1.639e-06 9e-05 2.39e-05 1.12e-05 
28 1 1.53844e-06 5.05e-05 6.43e-06 1.93e-05 
10 1 1.66916e-06 7.44e-05 4.78e-05 2.08e-05 
9 1 1.52839e-06 5.52e-05 7.24e-06 2.6e-05 
8 1 1.69933e-06 7.22e-05 6.43e-06 2.82e-05 
5 1 1.43789e-06 7.82e-05 1.69e-05 2.82e-05 
36 1 1.9306e-06 9.21e-05 4.08e-05 2.82e-05 
32 1 1.49822e-06 8.66e-05 2.26e-05 3.08e-05 
30 1 1.49822e-06 5.28e-05 2.84e-05 3.08e-05 
24 1 1.94065e-06 8.94e-05 4.27e-05 3.08e-05 
26 1 1.40773e-06 6.38e-05 4.14e-05 3.3e-05 
45 1 1.90043e-06 9.61e-05 4.49e-05 3.31e-05 
44 1 1.60883e-06 8.48e-05 1.46e-05 4.18e-05 
25 1 1.71944e-06 8.08e-05 4.6e-05 4.24e-05 
40 1 1.48817e-06 8.05e-05 5.46e-05 1.04e-05 
18 1 1.67922e-06 5.78e-05 5.98e-05 1.48e-05 
4 1 1.72949e-06 9.41e-05 5.77e-05 1.54e-05 
3 1 1.47811e-06 5.85e-05 5.79e-05 1.83e-05 
20 1 1.67922e-06 6.66e-05 6.11e-05 2.05e-05 
7 1 1.87027e-06 9.03e-05 5.26e-05 2.15e-05 
23 1 1.7496e-06 7.06e-05 7.4e-05 2.75e-05 
47 1 1.60883e-06 7.7e-05 7.39e-05 3.15e-05 
43 1 1.68927e-06 9.2e-05 5.09e-05 3.59e-05 
22 1 1.39767e-06 8.6e-05 8.92e-05 3.64e-05 
41 1 1.66916e-06 7.05e-05 5.59e-05 4.8e-05 
ITEM: TIMESTEP
200
ITEM: NUMBER OF ATOMS
50
ITEM: BOX BOUNDS ff ff ff
0.0000000000000000e+00 1.0000000000000000e-04
0.0000000000000000e+00 1.0000000000000000e-04
0.0000000000000000e+00 5.0000000000000002e-05
ITEM: ATOMS id type diameter x y z 
42 1 1.55705e-06 3.83e-05 4.31e-05 4.72e-06 
31 1 1.45594e-06 3.92e-06 2.06e-05 1.72e-05 
34 1 1.62782e-06 1.6e-05 1.65e-05 1.79e-05 
16 1 1.6986e-06 1.76e-05 3.15e-05 2.12e-05 
21 1 1.39528e-06 4.66e-05 3.7e-05 2.88e-05 
39 1 1.90081e-06 4.8e-05 3.36e-05 3.87e-05 
17 1 1.4155e-06 1.08e-05 1.05e-05 4.2e-05 
2 1 1.77948e-06 2.88e-06 2.47e-06 4.58e-05 
48 1 1.93114e-06 6.86e-06 8.97e-05 2.72e-06 
19 1 1.73904e-06 3.05e-05 8.47e-05 4.73e-06 
14 1 1.48627e-06 1.12e-05 8.47e-05 5.02e-06 
46 1 1.87048e-06 3.48e-05 8.95e-05 7.46e-06 
29 1 1.88059e-06 1.45e-05 8.69e-05 1.73e-05 
35 1 1.85026e-06 3.57e-05 8.63e-05 2.53e-05 
1 1 1.45594e-06 4.74e-05 9.46e-05 3.09e-05 
27 1 1.64804e-06 3.87e-05 8.27e-05 3.18e-05 
11 1 1.66826e-06 1.85e-05 8.67e-05 3.39e-05 
33 1 1.75926e-06 2.82e-05 5.59e-05 3.43e-05 
49 1 1.88059e-06 2.33e-05 7.1e-05 3.44e-05 
15 1 1.61771e-06 2.42e-05 6.64e-05 3.48e-05 
6 1 1.72893e-06 3.35e-05 6.5e-05 3.88e-05 
37 1 1.39528e-06 2.05e-05 9.31e-05 3.95e-05 
13 1 1.42561e-06 6.72e-05 1.29e-05 9.25e-06 
50 1 1.48627e-06 6.85e-05 4.96e-05 1.05e-05 
12 1 1.43572e-06 8.71e-05 4.91e-05 1.08e-05 
38 1 1.64804e-06 9e-05 2.39e-05 1.12e-05 
28 1 1.54694e-06 5.05e-05 6.43e-06 1.93e-05 
10 1 1.67838e-06 7.44e-05 4.78e-05 2.08e-05 
9 1 1.53683e-06 5.52e-05 7.24e-06 2.6e-05 
8 1 1.70871e-06 7.22e-05 6.43e-06 2.82e-05 
5 1 1.44583e-06 7.82e-05 1.69e-05 2.82e-05 
36 1 1.94125e-06 9.21e-05 4.08e-05 2.82e-05 
32 1 1.50649e-06 8.66e-05 2.26e-05 3.08e-05 
30 1 1.50649e-06 5.28e-05 2.84e-05 3.08e-05 
24 1 1.95136e-06 8.94e-05 4.27e-05 3.08e-05 
26 1 1.4155e-06 6.38e-05 4.14e-05 3.3e-05 
45 1 1.91092e-06 9.61e-05 4.49e-05 3.31e-05 
44 1 1.61771e-06 8.48e-05 1.46e-05 4.18e-05 
25 1 1.72893e-06 8.08e-05 4.6e-05 4.24e-05 
40 1 1.49638e-06 8.05e-05 5.46e-05 1.04e-05 
18 1 1.68849e-06 5.78e-05 5.98e-05 1.48e-05 
4 1 1.73904e-06 9.41e-05 5.77e-05 1.54e-05 
3 1 1.48627e-06 5.85e-05 5.79e-05 1.83e-05 
20 1 1.68849e-06 6.66e-05 6.11e-05 2.05e-05 
7 1 1.88059e-06 9.03e-05 5.26e-05 2.15e-05 
23 1 1.75926e-06 7.06e-05 7.4e-05 2.75e-05 
47 1 1.61771e-06 7.7e-05 7.39e-05 3.15e-05 
43 1 1.6986e-06 9.2e-05 5.09e-05 3.59e-05 
22 1 1.40539e-06 8.6e-05 8.92e-05 3.64e-05 
41 1 1.67838e-06 7.05e-05 5.59e-05 4.8e-05 
ITEM: TIMESTEP
300
ITEM: NUMBER OF ATOMS
50
ITEM: BOX BOUNDS ff ff ff
0.0000000000000000e+00 1.0000000000000000e-04
0.0000000000000000e+00 1.0000000000000000e-04
0.0000000000000000e+00 5.0000000000000002e-05
ITEM: ATOMS id type diameter x y z 
42 1 1.56564e-06 3.83e-05 4.31e-05 4.72e-06 
31 1 1.46398e-06 3.92e-06 2.06e-05 1.72e-05 
34 1 1.63681e-06 1.6e-05 1.65e-05 1.79e-05 
16 1 1.70797e-06 1.76e-05 3.15e-05 2.12e-05 
21 1 1.40298e-06 4.66e-05 3.7e-05 2.88e-05 
39 1 1.9113e-06 4.8e-05 3.36e-05 3.87e-05 
17 1 1.42331e-06 1.08e-05 1.05e-05 4.2e-05 
2 1 1.7893e-06 2.88e-06 2.47e-06 4.58e-05 
48 1 1.9418e-06 6.86e-06 8.97e-05 2.72e-06 
19 1 1.74864e-06 3.05e-05 8.47e-05 4.73e-06 
14 1 1.49448e-06 1.12e-05 8.47e-05 5.02e-06 
46 1 1.8808e-06 3.48e-05 8.95e-05 7.46e-06 
29 1 1.89097e-06 1.45e-05 8.69e-05 1.73e-05 
35 1 1.86047e-06 3.57e-05 8.63e-05 2.53e-05 
1 1 1.46398e-06 4.74e-05 9.46e-05 3.09e-05 
27 1 1.65714e-06 3.87e-05 8.27e-05 3.18e-05 
11 1 1.67747e-06 1.85e-05 8.67e-05 3.39e-05 
33 1 1.76897e-06 2.82e-05 5.59e-05 3.43e-05 
49 1 1.89097e-06 2.33e-05 7.1e-05 3.44e-05 
15 1 1.62664e-06 2.42e-05 6.64e-05 3.48e-05 
6 1 1.73847e-06 3.35e-05 6.5e-05 3.88e-05 
37 1 1.40298e-06 2.05e-05 9.31e-05 3.95e-05 
13 1 1.43348e-06 6.72e-05 1.29e-05 9.25e-06 
50 1 1.49448e-06 6.85e-05 4.96e-05 1.05e-05 
12 1 1.44364e-06 8.71e-05 4.91e-05 1.08e-05 
38 1 1.65714e-06 9e-05 2.39e-05 1.12e-05 
28 1 1.55547e-06 5.05e-05 6.43e-06 1.93e-05 
10 1 1.68764e-06 7.44e-05 4.78e-05 2.08e-05 
9 1 1.54531e-06 5.52e-05 7.24e-06 2.6e-05 
8 1 1.71814e-06 7.22e-05 6.43e-06 2.82e-05 
5 1 1.45381e-06 7.82e-05 1.69e-05 2.82e-05 
36 1 1.95197e-06 9.21e-05 4.08e-05 2.82e-05 
32 1 1.51481e-06 8.66e-05 2.26e-05 3.08e-05 
30 1 1.51481e-06 5.28e-05 2.84e-05 3.08e-05 
24 1 1.96213e-06 8.94e-05 4.27e-05 3.08e-05 
26 1 1.42331e-06 6.38e-05 4.14e-05 3.3e-05 
45 1 1.92147e-06 9.61e-05 4.49e-05 3.31e-05 
44 1 1.62664e-06 8.48e-05 1.46e-05 4.18e-05 
25 1 1.73847e-06 8.08e-05 4.6e-05 4.24e-05 
40 1 1.50464e-06 8.05e-05 5.46e-05 1.04e-05 
18 1 1.69781e-06 5.78e-05 5.98e-05 1.48e-05 
4 1 1.74864e-06 9.41e-05 5.77e-05 1.54e-05 
3 1 1.49448e-06 5.85e-05 5.79e-05 1.83e-05 
20 1 1.69781e-06 6.66e-05 6.11e-05 2.05e-05 
7 1 1.89097e-06 9.03e-05 5.26e-05 2.15e-05 
23 1 1.76897e-06 7.06e-05 7.4e-05 2.75e-05 
47 1 1.62664e-06 7.7e-05 7.39e-05 3.15e-05 
43 1 1.70797e-06 9.2e-05 5.09e-05 3.59e-05 
22 1 1.41314e-06 8.6e-05 8.92e-05 3.64e-05 
41 1 1.68764e-06 7.05e-05 5.59e-05 4.8e-05 
ITEM: TIMESTEP
400
ITEM: NUMBER OF ATOMS
51
ITEM: BOX BOUNDS ff ff ff
0.0000000000000000e+00 1.0000000000000000e-04
0.0000000000000000e+00 1.0000000000000000e-04
0.0000000000000000e+00 5.0000000000000002e-05
ITEM: ATOMS id type diameter x y z 
42 1 1.57428e-06 3.83e-05 4.31e-05 4.72e-06 
31 1 1.47206e-06 3.92e-06 2.06e-05 1.72e-05 
34 1 1.64584e-06 1.6e-05 1.65e-05 1.79e-05 
16 1 1.7174e-06 1.76e-05 3.15e-05 2.12e-05 
21 1 1.41072e-06 4.66e-05 3.7e-05 2.88e-05 
39 1 1.92185e-06 4.8e-05 3.36e-05 3.87e-05 
17 1 1.43117e-06 1.08e-05 1.05e-05 4.2e-05 
2 1 1.79918e-06 2.88e-06 2.47e-06 4.58e-05 
48 1 1.95252e-06 6.86e-06 8.97e-05 2.72e-06 
19 1 1.75829e-06 3.05e-05 8.47e-05 4.73e-06 
14 1 1.50272e-06 1.12e-05 8.47e-05 5.02e-06 
46 1 1.89118e-06 3.48e-05 8.95e-05 7.46e-06 
29 1 1.90141e-06 1.45e-05 8.69e-05 1.73e-05 
35 1 1.87074e-06 3.57e-05 8.63e-05 2.53e-05 
1 1 1.47206e-06 4.74e-05 9.46e-05 3.09e-05 
27 1 1.66629e-06 3.87e-05 8.27e-05 3.18e-05 
11 1 1.68673e-06 1.85e-05 8.67e-05 3.39e-05 
33 1 1.77873e-06 2.82e-05 5.59e-05 3.43e-05 
49 1 1.90141e-06 2.33e-05 7.1e-05 3.44e-05 
15 1 1.63562e-06 2.42e-05 6.64e-05 3.48e-05 
6 1 1.74807e-06 3.35e-05 6.5e-05 3.88e-05 
37 1 1.41072e-06 2.05e-05 9.31e-05 3.95e-05 
13 1 1.44139e-06 6.72e-05 1.29e-05 9.25e-06 
50 1 1.50272e-06 6.85e-05 4.96e-05 1.05e-05 
12 1 1.45161e-06 8.71e-05 4.91e-05 1.08e-05 
38 1 1.66629e-06 9e-05 2.39e-05 1.12e-05 
28 1 1.56406e-06 5.05e-05 6.43e-06 1.93e-05 
10 1 1.69695e-06 7.44e-05 4.78e-05 2.08e-05 
9 1 1.55384e-06 5.52e-05 7.24e-06 2.6e-05 
8 1 1.72762e-06 7.22e-05 6.43e-06 2.82e-05 
5 1 1.46183e-06 7.82e-05 1.69e-05 2.82e-05 
36 1 1.96274e-06 9.21e-05 4.08e-05 2.82e-05 
32 1 1.52317e-06 8.66e-05 2.26e-05 3.08e-05 
30 1 1.52317e-06 5.28e-05 2.84e-05 3.08e-05 
24 1 1.66064e-06 8.99965e-05 4.31911e-05 3.11028e-05 
26 1 1.43117e-06 6.38e-05 4.14e-05 3.3e-05 
45 1 1.93207e-06 9.61e-05 4.49e-05 3.31e-05 
44 1 1.63562e-06 8.48e-05 1.46e-05 4.18e-05 
25 1 1.74807e-06 8.08e-05 4.6e-05 4.24e-05 
51 1 1.45816e-06 8.88762e-05 4.22688e-05 3.05341e-05 
40 1 1.51295e-06 8.05e-05 5.46e-05 1.04e-05 
18 1 1.70718e-06 5.78e-05 5.98e-05 1.48e-05 
4 1 1.75829e-06 9.41e-05 5.77e-05 1.54e-05 
3 1 1.50272e-06 5.85e-05 5.79e-05 1.83e-05 
20 1 1.70718e-06 6.66e-05 6.11e-05 2.05e-05 
7 1 1.90141e-06 9.03e-05 5.26e-05 2.15e-05 
23 1 1.77873e-06 7.06e-05 7.4e-05 2.75e-05 
47 1 1.63562e-06 7.7e-05 7.39e-05 3.15e-05 
43 1 1.7174e-06 9.2e-05 5.09e-05 3.59e-05 
22 1 1.42094e-06 8.6e-05 8.92e-05 3.64e-05 
41 1 1.69695e-06 7.05e-05 5.59e-05 4.8e-05 
ITEM: TIMESTEP
500
ITEM: NUMBER OF ATOMS
52
ITEM: BOX BOUNDS ff ff ff
0.0000000000000000e+00 1.0000000000000000e-04
0.0000000000000000e+00 1.0000000000000000e-04
0.0000000000000000e+00 5.0000000000000002e-05
ITEM: ATOMS id type diameter x y z 
42 1 1.58297e-06 3.83e-05 4.31e-05 4.72e-06 
31 1 1.48018e-06 3.92e-06 2.06e-05 1.72e-05 
34 1 1.65492e-06 1.6e-05 1.65e-05 1.79e-05 
16 1 1.72688e-06 1.76e-05 3.15e-05 2.12e-05 
21 1 1.41851e-06 4.66e-05 3.7e-05 2.88e-05 
39 1 1.93246e-06 4.8e-05 3.36e-05 3.87e-05 
17 1 1.43907e-06 1.08e-05 1.05e-05 4.2e-05 
2 1 1.80911e-06 2.88e-06 2.47e-06 4.58e-05 
48 1 1.9633e-06 6.86e-06 8.97e-05 2.72e-06 
19 1 1.76799e-06 3.05e-05 8.47e-05 4.73e-06 
14 1 1.51102e-06 1.12e-05 8.47e-05 5.02e-06 
46 1 1.90162e-06 3.48e-05 8.95e-05 7.46e-06 
29 1 1.9119e-06 1.45e-05 8.69e-05 1.73e-05 
35 1 1.88106e-06 3.57e-05 8.63e-05 2.53e-05 
1 1 1.48018e-06 4.74e-05 9.46e-05 3.09e-05 
27 1 1.67548e-06 3.87e-05 8.27e-05 3.18e-05 
11 1 1.69604e-06 1.85e-05 8.67e-05 3.39e-05 
33 1 1.78855e-06 2.82e-05 5.59e-05 3.43e-05 
49 1 1.9119e-06 2.33e-05 7.1e-05 3.44e-05 
15 1 1.64465e-06 2.42e-05 6.64e-05 3.48e-05 
6 1 1.75772e-06 3.35e-05 6.5e-05 3.88e-05 
37 1 1.41851e-06 2.05e-05 9.31e-05 3.95e-05 
13 1 1.44934e-06 6.72e-05 1.29e-05 9.25e-06 
50 1 1.51102e-06 6.85e-05 4.96e-05 1.05e-05 
12 1 1.45962e-06 8.71e-05 4.91e-05 1.08e-05 
38 1 1.67548e-06 9e-05 2.39e-05 1.12e-05 
28 1 1.57269e-06 5.05e-05 6.43e-06 1.93e-05 
10 1 1.70632e-06 7.44e-05 4.78e-05 2.08e-05 
9 1 1.56241e-06 5.52e-05 7.24e-06 2.6e-05 
8 1 1.73716e-06 7.22e-05 6.43e-06 2.82e-05 
5 1 1.4699e-06 7.82e-05 1.69e-05 2.82e-05 
36 1 1.57052e-06 9.24049e-05 4.04978e-05 2.75429e-05 
32 1 1.53158e-06 8.66e-05 2.26e-05 3.08e-05 
30 1 1.53158e-06 5.28e-05 2.84e-05 3.08e-05 
24 1 1.6698e-06 8.99965e-05 4.31911e-05 3.11028e-05 
26 1 1.43907e-06 6.38e-05 4.14e-05 3.3e-05 
45 1 1.94274e-06 9.61e-05 4.49e-05 3.31e-05 
44 1 1.64465e-06 8.48e-05 1.46e-05 4.18e-05 
25 1 1.75772e-06 8.08e-05 4.6e-05 4.24e-05 
51 1 1.46621e-06 8.88762e-05 4.22688e-05 3.05341e-05 
52 1 1.56231e-06 9.17967e-05 4.11006e-05 2.88536e-05 
40 1 1.5213e-06 8.05e-05 5.46e-05 1.04e-05 
18 1 1.7166e-06 5.78e-05 5.98e-05 1.48e-05 
4 1 1.76799e-06 9.41e-05 5.77e-05 1.54e-05 
3 1 1.51102e-06 5.85e-05 5.79e-05 1.83e-05 
20 1 1.7166e-06 6.66e-05 6.11e-05 2.05e-05 
7 1 1.9119e-06 9.03e-05 5.26e-05 2.15e-05 
23 1 1.78855e-06 7.06e-05 7.4e-05 2.75e-05 
47 1 1.64465e-06 7.7e-05 7.39e-05 3.15e-05 
43 1 1.72688e-06 9.2e-05 5.09e-05 3.59e-05 
22 1 1.42879e-06 8.6e-05 8.92e-05 3.64e-05 
41 1 1.70632e-06 7.05e-05 5.59e-05 4.8e-05 
ITEM: TIMESTEP
600
ITEM: NUMBER OF ATOMS
53
ITEM: BOX BOUNDS ff ff ff
0.0000000000000000e+00 1.0000000000000000e-04
0.0000000000000000e+00 1.0000000000000000e-04
0.0000000000000000e+00 5.0000000000000002e-05
ITEM: ATOMS id type diameter x y z 
42 1 1.59171e-06 3.83e-05 4.31e-05 4.72e-06 
31 1 1.48835e-06 3.92e-06 2.06e-05 1.72e-05 
34 1 1.66406e-06 1.6e-05 1.65e-05 1.79e-05 
16 1 1.73641e-06 1.76e-05 3.15e-05 2.12e-05 
21 1 1.42634e-06 4.66e-05 3.7e-05 2.88e-05 
39 1 1.94313e-06 4.8e-05 3.36e-05 3.87e-05 
17 1 1.44701e-06 1.08e-05 1.05e-05 4.2e-05 
2 1 1.8191e-06 2.88e-06 2.47e-06 4.58e-05 
48 1 1.66162e-06 7.45689e-06 9.01914e-05 3.02296e-06 
19 1 1.77775e-06 3.05e-05 8.47e-05 4.73e-06 
14 1 1.51936e-06 1.12e-05 8.47e-05 5.02e-06 
46 1 1.91212e-06 3.48e-05 8.95e-05 7.46e-06 
29 1 1.92245e-06 1.45e-05 8.69e-05 1.73e-05 
53 1 1.45902e-06 6.33589e-06 8.92685e-05 2.45398e-06 
35 1 1.89145e-06 3.57e-05 8.63e-05 2.53e-05 
1 1 1.48835e-06 4.74e-05 9.46e-05 3.09e-05 
27 1 1.68473e-06 3.87e-05 8.27e-05 3.18e-05 
11 1 1.7054e-06 1.85e-05 8.67e-05 3.39e-05 
33 1 1.79842e-06 2.82e-05 5.59e-05 3.43e-05 
49 1 1.92245e-06 2.33e-05 7.1e-05 3.44e-05 
15 1 1.65372e-06 2.42e-05 6.64e-05 3.48e-05 
6 1 1.76742e-06 3.35e-05 6.5e-05 3.88e-05 
37 1 1.42634e-06 2.05e-05 9.31e-05 3.95e-05 
13 1 1.45734e-06 6.72e-05 1.29e-05 9.25e-06 
50 1 1.51936e-06 6.85e-05 4.96e-05 1.05e-05 
12 1 1.46768e-06 8.71e-05 4.91e-05 1.08e-05 
38 1 1.68473e-06 9e-05 2.39e-05 1.12e-05 
28 1 1.58137e-06 5.05e-05 6.43e-06 1.93e-05 
10 1 1.71574e-06 7.44e-05 4.78e-05 2.08e-05 
9 1 1.57104e-06 5.52e-05 7.24e-06 2.6e-05 
8 1 1.74675e-06 7.22e-05 6.43e-06 2.82e-05 
5 1 1.47802e-06 7.82e-05 1.69e-05 2.82e-05 
36 1 1.57919e-06 9.24049e-05 4.04978e-05 2.75429e-05 
32 1 1.54003e-06 8.66e-05 2.26e-05 3.08e-05 
30 1 1.54003e-06 5.28e-05 2.84e-05 3.08e-05 
24 1 1.67902e-06 8.99965e-05 4.31911e-05 3.11028e-05 
26 1 1.44701e-06 6.38e-05 4.14e-05 3.3e-05 
45 1 1.95346e-06 9.61e-05 4.49e-05 3.31e-05 
44 1 1.65372e-06 8.48e-05 1.46e-05 4.18e-05 
25 1 1.76742e-06 8.08e-05 4.6e-05 4.24e-05 
51 1 1.4743e-06 8.88762e-05 4.22688e-05 3.05341e-05 
52 1 1.57093e-06 9.17967e-05 4.11006e-05 2.88536e-05 
40 1 1.52969e-06 8.05e-05 5.46e-05 1.04e-05 
18 1 1.72607e-06 5.78e-05 5.98e-05 1.48e-05 
4 1 1.77775e-06 9.41e-05 5.77e-05 1.54e-05 
3 1 1.51936e-06 5.85e-05 5.79e-05 1.83e-05 
20 1 1.72607e-06 6.66e-05 6.11e-05 2.05e-05 
7 1 1.92245e-06 9.03e-05 5.26e-05 2.15e-05 
23 1 1.79842e-06 7.06e-05 7.4e-05 2.75e-05 
47 1 1.65372e-06 7.7e-05 7.39e-05 3.15e-05 
43 1 1.73641e-06 9.2e-05 5.09e-05 3.59e-05 
22 1 1.43667e-06 8.6e-05 8.92e-05 3.64e-05 
41 1 1.71574e-06 7.05e-05 5.59e-05 4.8e-05 
ITEM: TIMESTEP
700
ITEM: NUMBER OF ATOMS
53
ITEM: BOX BOUNDS ff ff ff
0.0000000000000000e+00 1.0000000000000000e-04
0.0000000000000000e+00 1.0000000000000000e-04
0.0000000000000000e+00 5.0000000000000002e-05
ITEM: ATOMS id type diameter x y z 
42 1 1.60049e-06 3.83e-05 4.31e-05 4.72e-06 
31 1 1.49657e-06 3.92e-06 2.06e-05 1.72e-05 
34 1 1.67324e-06 1.6e-05 1.65e-05 1.79e-05 
16 1 1.74599e-06 1.76e-05 3.15e-05 2.12e-05 
21 1 1.43421e-06 4.66e-05 3.7e-05 2.88e-05 
39 1 1.95385e-06 4.8e-05 3.36e-05 3.87e-05 
17 1 1.45499e-06 1.08e-05 1.05e-05 4.2e-05 
2 1 1.82914e-06 2.88e-06 2.47e-06 4.58e-05 
48 1 1.67079e-06 7.45689e-06 9.01914e-05 3.02296e-06 
19 1 1.78756e-06 3.05e-05 8.47e-05 4.73e-06 
14 1 1.52774e-06 1.12e-05 8.47e-05 5.02e-06 
46 1 1.92267e-06 3.48e-05 8.95e-05 7.46e-06 
29 1 1.93306e-06 1.45e-05 8.69e-05 1.73e-05 
53 1 1.46708e-06 6.33589e-06 8.92685e-05 2.45398e-06 
35 1 1.90189e-06 3.57e-05 8.63e-05 2.53e-05 
1 1 1.49657e-06 4.74e-05 9.46e-05 3.09e-05 
27 1 1.69403e-06 3.87e-05 8.27e-05 3.18e-05 
11 1 1.71482e-06 1.85e-05 8.67e-05 3.39e-05 
33 1 1.80835e-06 2.82e-05 5.59e-05 3.43e-05 
49 1 1.93306e-06 2.33e-05 7.1e-05 3.44e-05 
15 1 1.66285e-06 2.42e-05 6.64e-05 3.48e-05 
6 1 1.77717e-06 3.35e-05 6.5e-05 3.88e-05 
37 1 1.43421e-06 2.05e-05 9.31e-05 3.95e-05 
13 1 1.46539e-06 6.72e-05 1.29e-05 9.25e-06 
50 1 1.52774e-06 6.85e-05 4.96e-05 1.05e-05 
12 1 1.47578e-06 8.71e-05 4.91e-05 1.08e-05 
38 1 1.69403e-06 9e-05 2.39e-05 1.12e-05 
28 1 1.5901e-06 5.05e-05 6.43e-06 1.93e-05 
10 1 1.72521e-06 7.44e-05 4.78e-05 2.08e-05 
9 1 1.57971e-06 5.52e-05 7.24e-06 2.6e-05 
8 1 1.75639e-06 7.22e-05 6.43e-06 2.82e-05 
5 1 1.48617e-06 7.82e-05 1.69e-05 2.82e-05 
36 1 1.58791e-06 9.24049e-05 4.04978e-05 2.75429e-05 
32 1 1.54853e-06 8.66e-05 2.26e-05 3.08e-05 
30 1 1.54853e-06 5.28e-05 2.84e-05 3.08e-05 
24 1 1.68828e-06 8.99965e-05 4.31911e-05 3.11028e-05 
26 1 1.45499e-06 6.38e-05 4.14e-05 3.3e-05 
45 1 1.96424e-06 9.61e-05 4.49e-05 3.31e-05 
44 1 1.66285e-06 8.48e-05 1.46e-05 4.18e-05 
25 1 1.77717e-06 8.08e-05 4.6e-05 4.24e-05 
51 1 1.48244e-06 8.88762e-05 4.22688e-05 3.05341e-05 
52 1 1.57961e-06 9.17967e-05 4.11006e-05 2.88536e-05 
40 1 1.53814e-06 8.05e-05 5.46e-05 1.04e-05 
18 1 1.7356e-06 5.78e-05 5.98e-05 1.48e-05 
4 1 1.78756e-06 9.41e-05 5.77e-05 1.54e-05 
3 1 1.52774e-06 5.85e-05 5.79e-05 1.83e-05 
20 1 1.7356e-06 6.66e-05 6.11e-05 2.05e-05 
7 1 1.93306e-06 9.03e-05 5.26e-05 2.15e-05 
23 1 1.80835e-06 7.06e-05 7.4e-05 2.75e-05 
47 1 1.66285e-06 7.7e-05 7.39e-05 3.15e-05 
43 1 1.74599e-06 9.2e-05 5.09e-05 3.59e-05 
22 1 1.4446e-06 8.6e-05 8.92e-05 3.64e-05 
41 1 1.72521e-06 7.05e-05 5.59e-05 4.8e-05 
ITEM: TIMESTEP
800
ITEM: NUMBER OF ATOMS
54
ITEM: BOX BOUNDS ff ff ff
0.0000000000000000e+00 1.0000000000000000e-04
0.0000000000000000e+00 1.0000000000000000e-04
0.0000000000000000e+00 5.0000000000000002e-05
ITEM: ATOMS id type diameter x y z 
42 1 1.60933e-06 3.83e-05 4.31e-05 4.72e-06 
31 1 1.50483e-06 3.92e-06 2.06e-05 1.72e-05 
34 1 1.68248e-06 1.6e-05 1.65e-05 1.79e-05 
16 1 1.75563e-06 1.76e-05 3.15e-05 2.12e-05 
21 1 1.44213e-06 4.66e-05 3.7e-05 2.88e-05 
39 1 1.96463e-06 4.8e-05 3.36e-05 3.87e-05 
17 1 1.46303e-06 1.08e-05 1.05e-05 4.2e-05 
2 1 1.83923e-06 2.88e-06 2.47e-06 4.58e-05 
48 1 1.68001e-06 7.45689e-06 9.01914e-05 3.02296e-06 
19 1 1.79743e-06 3.05e-05 8.47e-05 4.73e-06 
14 1 1.53618e-06 1.12e-05 8.47e-05 5.02e-06 
46 1 1.93328e-06 3.48e-05 8.95e-05 7.46e-06 
29 1 1.94373e-06 1.45e-05 8.69e-05 1.73e-05 
53 1 1.47517e-06 6.33589e-06 8.92685e-05 2.45398e-06 
35 1 1.91238e-06 3.57e-05 8.63e-05 2.53e-05 
1 1 1.50483e-06 4.74e-05 9.46e-05 3.09e-05 
27 1 1.70338e-06 3.87e-05 8.27e-05 3.18e-05 
11 1 1.72428e-06 1.85e-05 8.67e-05 3.39e-05 
33 1 1.81833e-06 2.82e-05 5.59e-05 3.43e-05 
49 1 1.94373e-06 2.33e-05 7.1e-05 3.44e-05 
15 1 1.67203e-06 2.42e-05 6.64e-05 3.48e-05 
6 1 1.78698e-06 3.35e-05 6.5e-05 3.88e-05 
37 1 1.44213e-06 2.05e-05 9.31e-05 3.95e-05 
13 1 1.47348e-06 6.72e-05 1.29e-05 9.25e-06 
50 1 1.53618e-06 6.85e-05 4.96e-05 1.05e-05 
12 1 1.48393e-06 8.71e-05 4.91e-05 1.08e-05 
38 1 1.70338e-06 9e-05 2.39e-05 1.12e-05 
28 1 1.59888e-06 5.05e-05 6.43e-06 1.93e-05 
10 1 1.73473e-06 7.44e-05 4.78e-05 2.08e-05 
9 1 1.58843e-06 5.52e-05 7.24e-06 2.6e-05 
8 1 1.76608e-06 7.22e-05 6.43e-06 2.82e-05 
5 1 1.49438e-06 7.82e-05 1.69e-05 2.82e-05 
36 1 1.59667e-06 9.24049e-05 4.04978e-05 2.75429e-05 
32 1 1.55708e-06 8.66e-05 2.26e-05 3.08e-05 
30 1 1.55708e-06 5.28e-05 2.84e-05 3.08e-05 
24 1 1.6976e-06 9.00109e-05 4.32029e-05 3.11101e-05 
26 1 1.46303e-06 6.38e-05 4.14e-05 3.3e-05 
45 1 1.65257e-06 9.60081e-05 4.4844e-05 3.39188e-05 
44 1 1.67203e-06 8.48e-05 1.46e-05 4.18e-05 
25 1 1.78698e-06 8.08e-05 4.6e-05 4.24e-05 
51 1 1.49062e-06 8.88618e-05 4.22569e-05 3.05268e-05 
52 1 1.58832e-06 9.17967e-05 4.11006e-05 2.88536e-05 
54 1 1.47232e-06 9.61819e-05 4.49499e-05 3.23705e-05 
40 1 1.54663e-06 8.05e-05 5.46e-05 1.04e-05 
18 1 1.74518e-06 5.78e-05 5.98e-05 1.48e-05 
4 1 1.79743e-06 9.41e-05 5.77e-05 1.54e-05 
3 1 1.53618e-06 5.85e-05 5.79e-05 1.83e-05 
20 1 1.74518e-06 6.66e-05 6.11e-05 2.05e-05 
7 1 1.94373e-06 9.03e-05 5.26e-05 2.15e-05 
23 1 1.81833e-06 7.06e-05 7.4e-05 2.75e-05 
47 1 1.67203e-06 7.7e-05 7.39e-05 3.15e-05 
43 1 1.75563e-06 9.2e-05 5.09e-05 3.59e-05 
22 1 1.45258e-06 8.6e-05 8.92e-05 3.64e-05 
41 1 1.73473e-06 7.05e-05 5.59e-05 4.8e-05 
ITEM: TIMESTEP
900
ITEM: NUMBER OF ATOMS
55
ITEM: BOX BOUNDS ff ff ff
0.0000000000000000e+00 1.0000000000000000e-04
0.0000000000000000e+00 1.0000000000000000e-04
0.0000000000000000e+00 5.0000000000000002e-05
ITEM: ATOMS id type diameter x y z 
42 1 1.61821e-06 3.83e-05 4.31e-05 4.72e-06 
31 1 1.51313e-06 3.92e-06 2.06e-05 1.72e-05 
34 1 1.69177e-06 1.6e-05 1.65e-05 1.79e-05 
16 1 1.76532e-06 1.76e-05 3.15e-05 2.12e-05 
21 1 1.45009e-06 4.66e-05 3.7e-05 2.88e-05 
39 1 1.66275e-06 4.85973e-05 3.40917e-05 3.90032e-05 
17 1 1.4711e-06 1.08e-05 1.05e-05 4.2e-05 
2 1 1.84938e-06 2.88e-06 2.47e-06 4.58e-05 
55 1 1.46002e-06 4.74755e-05 3.31682e-05 3.84338e-05 
48 1 1.68928e-06 7.45689e-06 9.01914e-05 3.02296e-06 
19 1 1.80735e-06 3.05e-05 8.47e-05 4.73e-06 
14 1 1.54466e-06 1.12e-05 8.47e-05 5.02e-06 
46 1 1.94395e-06 3.48e-05 8.95e-05 7.46e-06 
29 1 1.95446e-06 1.45e-05 8.69e-05 1.73e-05 
53 1 1.48332e-06 6.33589e-06 8.92685e-05 2.45398e-06 
35 1 1.92294e-06 3.57e-05 8.63e-05 2.53e-05 
1 1 1.51313e-06 4.74e-05 9.46e-05 3.09e-05 
27 1 1.71278e-06 3.87e-05 8.27e-05 3.18e-05 
11 1 1.7338e-06 1.85e-05 8.67e-05 3.39e-05 
33 1 1.82837e-06 2.82e-05 5.59e-05 3.43e-05 
49 1 1.95446e-06 2.33e-05 7.1e-05 3.44e-05 
15 1 1.68126e-06 2.42e-05 6.64e-05 3.48e-05 
6 1 1.79684e-06 3.35e-05 6.5e-05 3.88e-05 
37 1 1.45009e-06 2.05e-05 9.31e-05 3.95e-05 
13 1 1.48161e-06 6.72e-05 1.29e-05 9.25e-06 
50 1 1.54466e-06 6.85e-05 4.96e-05 1.05e-05 
12 1 1.49212e-06 8.71e-05 4.91e-05 1.08e-05 
38 1 1.71278e-06 9e-05 2.39e-05 1.12e-05 
28 1 1.6077e-06 5.05e-05 6.43e-06 1.93e-05 
10 1 1.74431e-06 7.44e-05 4.78e-05 2.08e-05 
9 1 1.5972e-06 5.52e-05 7.24e-06 2.6e-05 
8 1 1.77583e-06 7.22e-05 6.43e-06 2.82e-05 
5 1 1.50262e-06 7.82e-05 1.69e-05 2.82e-05 
36 1 1.60548e-06 9.24126e-05 4.04901e-05 2.75262e-05 
32 1 1.56567e-06 8.66e-05 2.26e-05 3.08e-05 
30 1 1.56567e-06 5.28e-05 2.84e-05 3.08e-05 
24 1 1.70697e-06 9.00109e-05 4.32029e-05 3.11101e-05 
26 1 1.4711e-06 6.38e-05 4.14e-05 3.3e-05 
45 1 1.66169e-06 9.60081e-05 4.4844e-05 3.39188e-05 
44 1 1.68126e-06 8.48e-05 1.46e-05 4.18e-05 
25 1 1.79684e-06 8.08e-05 4.6e-05 4.24e-05 
51 1 1.49885e-06 8.88618e-05 4.22569e-05 3.05268e-05 
52 1 1.59709e-06 9.1789e-05 4.11083e-05 2.88704e-05 
54 1 1.48045e-06 9.61819e-05 4.49499e-05 3.23705e-05 
40 1 1.55516e-06 8.05e-05 5.46e-05 1.04e-05 
18 1 1.75481e-06 5.78e-05 5.98e-05 1.48e-05 
4 1 1.80735e-06 9.41e-05 5.77e-05 1.54e-05 
3 1 1.54466e-06 5.85e-05 5.79e-05 1.83e-05 
20 1 1.75481e-06 6.66e-05 6.11e-05 2.05e-05 
7 1 1.95446e-06 9.03e-05 5.26e-05 2.15e-05 
23 1 1.82837e-06 7.06e-05 7.4e-05 2.75e-05 
47 1 1.68126e-06 7.7e-05 7.39e-05 3.15e-05 
43 1 1.76532e-06 9.2e-05 5.09e-05 3.59e-05 
22 1 1.46059e-06 8.6e-05 8.92e-05 3.64e-05 
41 1 1.74431e-06 7.05e-05 5.59e-05 4.8e-05 
ITEM: TIMESTEP
1000
ITEM: NUMBER OF ATOMS
55
ITEM: BOX BOUNDS ff ff ff
0.0000000000000000e+00 1.0000000000000000e-04
0.0000000000000000e+00 1.0000000000000000e-04
0.0000000000000000e+00 5.0000000000000002e-05
ITEM: ATOMS id type diameter x y z 
42 1 1.62714e-06 3.83e-05 4.31e-05 4.72e-06 
31 1 1.52148e-06 3.92e-06 2.06e-05 1.72e-05 
34 1 1.7011e-06 1.6e-05 1.65e-05 1.79e-05 
16 1 1.77506e-06 1.76e-05 3.15e-05 2.12e-05 
21 1 1.45809e-06 4.66e-05 3.7e-05 2.88e-05 
55 1 1.46808e-06 4.74755e-05 3.31682e-05 3.84338e-05 
39 1 1.67193e-06 4.85973e-05 3.40917e-05 3.90032e-05 
17 1 1.47922e-06 1.08e-05 1.05e-05 4.2e-05 
2 1 1.85959e-06 2.88e-06 2.47e-06 4.58e-05 
53 1 1.4915e-06 6.32151e-06 8.92567e-05 2.44668e-06 
48 1 1.69861e-06 7.47127e-06 9.02032e-05 3.03026e-06 
19 1 1.81733e-06 3.05e-05 8.47e-05 4.73e-06 
14 1 1.55318e-06 1.12e-05 8.47e-05 5.02e-06 
46 1 1.95468e-06 3.48e-05 8.95e-05 7.46e-06 
29 1 1.96525e-06 1.45e-05 8.69e-05 1.73e-05 
35 1 1.93355e-06 3.57e-05 8.63e-05 2.53e-05 
1 1 1.52148e-06 4.74e-05 9.46e-05 3.09e-05 
27 1 1.72224e-06 3.87e-05 8.27e-05 3.18e-05 
11 1 1.74337e-06 1.85e-05 8.67e-05 3.39e-05 
33 1 1.83846e-06 2.82e-05 5.59e-05 3.43e-05 
49 1 1.96525e-06 2.33e-05 7.1e-05 3.44e-05 
15 1 1.69054e-06 2.42e-05 6.64e-05 3.48e-05 
6 1 1.80676e-06 3.35e-05 6.5e-05 3.88e-05 
37 1 1.45809e-06 2.05e-05 9.31e-05 3.95e-05 
13 1 1.48979e-06 6.72e-05 1.29e-05 9.25e-06 
50 1 1.55318e-06 6.85e-05 4.96e-05 1.05e-05 
12 1 1.50035e-06 8.71e-05 4.91e-05 1.08e-05 
38 1 1.72224e-06 9e-05 2.39e-05 1.12e-05 
28 1 1.61658e-06 5.05e-05 6.43e-06 1.93e-05 
10 1 1.75393e-06 7.44e-05 4.78e-05 2.08e-05 
9 1 1.60601e-06 5.52e-05 7.24e-06 2.6e-05 
36 1 1.61435e-06 9.24126e-05 4.04901e-05 2.75262e-05 
8 1 1.78563e-06 7.22e-05 6.43e-06 2.82e-05 
5 1 1.51092e-06 7.82e-05 1.69e-05 2.82e-05 
52 1 1.60591e-06 9.1789e-05 4.11083e-05 2.88704e-05 
32 1 1.57431e-06 8.66e-05 2.26e-05 3.08e-05 
30 1 1.57431e-06 5.28e-05 2.84e-05 3.08e-05 
51 1 1.50712e-06 8.88618e-05 4.22569e-05 3.05268e-05 
24 1 1.71639e-06 9.00109e-05 4.32029e-05 3.11101e-05 
54 1 1.48862e-06 9.61819e-05 4.49499e-05 3.23705e-05 
26 1 1.47922e-06 6.38e-05 4.14e-05 3.3e-05 
45 1 1.67086e-06 9.60081e-05 4.4844e-05 3.39188e-05 
44 1 1.69054e-06 8.48e-05 1.46e-05 4.18e-05 
25 1 1.80676e-06 8.08e-05 4.6e-05 4.24e-05 
40 1 1.56375e-06 8.05e-05 5.46e-05 1.04e-05 
18 1 1.7645e-06 5.78e-05 5.98e-05 1.48e-05 
4 1 1.81733e-06 9.41e-05 5.77e-05 1.54e-05 
3 1 1.55318e-06 5.85e-05 5.79e-05 1.83e-05 
20 1 1.7645e-06 6.66e-05 6.11e-05 2.05e-05 
7 1 1.96525e-06 9.03e-05 5.26e-05 2.15e-05 
23 1 1.83846e-06 7.06e-05 7.4e-05 2.75e-05 
47 1 1.69054e-06 7.7e-05 7.39e-05 3.15e-05 
43 1 1.77506e-06 9.2e-05 5.09e-05 3.59e-05 
22 1 1.46865e-06 8.6e-05 8.92e-05 3.64e-05 
41 1 1.75393e-06 7.05e-05 5.59e-05 4.8e-05 
ITEM: TIMESTEP
1100
ITEM: NUMBER OF ATOMS
58
ITEM: BOX BOUNDS ff ff ff
0.0000000000000000e+00 1.0000000000000000e-04
0.0000000000000000e+00 1.0000000000000000e-04
0.0000000000000000e+00 5.0000000000000002e-05
ITEM: ATOMS id type diameter x y z 
42 1 1.63612e-06 3.83e-05 4.31e-05 4.72e-06 
31 1 1.52988e-06 3.92e-06 2.06e-05 1.72e-05 
34 1 1.71049e-06 1.6e-05 1.65e-05 1.79e-05 
16 1 1.78486e-06 1.76e-05 3.15e-05 2.12e-05 
21 1 1.46614e-06 4.66e-05 3.7e-05 2.88e-05 
55 1 1.47618e-06 4.74755e-05 3.31682e-05 3.84338e-05 
39 1 1.68116e-06 4.85973e-05 3.40917e-05 3.90032e-05 
17 1 1.48739e-06 1.08e-05 1.05e-05 4.2e-05 
2 1 1.86986e-06 2.88e-06 2.47e-06 4.58e-05 
53 1 1.49974e-06 6.32151e-06 8.92567e-05 2.44668e-06 
48 1 1.70798e-06 7.47127e-06 9.02032e-05 3.03026e-06 
19 1 1.82736e-06 3.05e-05 8.47e-05 4.73e-06 
14 1 1.56175e-06 1.12e-05 8.47e-05 5.02e-06 
46 1 1.96547e-06 3.48e-05 8.95e-05 7.46e-06 
29 1 1.57253e-06 1.48053e-05 8.65974e-05 1.66421e-05 
56 1 1.56431e-06 1.41963e-05 8.7201e-05 1.79545e-05 
35 1 1.94422e-06 3.57e-05 8.63e-05 2.53e-05 
1 1 1.52988e-06 4.74e-05 9.46e-05 3.09e-05 
27 1 1.73174e-06 3.87e-05 8.27e-05 3.18e-05 
11 1 1.75299e-06 1.85e-05 8.67e-05 3.39e-05 
33 1 1.84861e-06 2.82e-05 5.59e-05 3.43e-05 
49 1 1.66327e-06 2.38975e-05 7.14919e-05 3.47033e-05 
15 1 1.69987e-06 2.42e-05 6.64e-05 3.48e-05 
6 1 1.81673e-06 3.35e-05 6.5e-05 3.88e-05 
37 1 1.46614e-06 2.05e-05 9.31e-05 3.95e-05 
57 1 1.46048e-06 2.27754e-05 7.05681e-05 3.41337e-05 
13 1 1.49801e-06 6.72e-05 1.29e-05 9.25e-06 
50 1 1.56175e-06 6.85e-05 4.96e-05 1.05e-05 