 NUFEB Simulation

     100 atoms 
     2 atom types 
     4 nutrients 

  0.0e-4   1.00e-04  xlo xhi 
  0.0e-4   1.00e-04  ylo yhi 
  0.0e-4   1.00e-05  zlo zhi 

 Atoms 

     1 1 1.73e-06  370 8.54e-05 8.87e-05 4.00e-06 1.73e-06 
     2 1 1.37e-06  370 7.90e-05 9.76e-05 6.05e-06 1.37e-06 
     3 1 1.81e-06  370 5.54e-05 8.65e-05 7.49e-06 1.81e-06 
     4 1 1.66e-06  370 8.51e-06 2.64e-05 4.54e-06 1.66e-06 
     5 1 1.67e-06  370 3.92e-06 2.81e-05 3.32e-06 1.67e-06 
     6 1 1.85e-06  370 6.74e-05 6.48e-06 2.33e-06 1.85e-06 
     7 1 1.57e-06  370 6.51e-05 3.00e-05 2.75e-06 1.57e-06 
     8 1 1.48e-06  370 6.91e-05 4.16e-05 5.56e-06 1.48e-06 
     9 1 1.72e-06  370 6.04e-06 2.55e-05 6.24e-06 1.72e-06 
     10 1 1.65e-06  370 8.44e-05 3.65e-05 3.49e-06 1.65e-06 
     11 1 1.63e-06  370 9.46e-05 7.59e-05 4.09e-06 1.63e-06 
     12 1 1.53e-06  370 4.41e-06 5.08e-05 1.72e-06 1.53e-06 
     13 1 1.58e-06  370 9.29e-06 2.47e-05 4.56e-06 1.58e-06 
     14 1 1.49e-06  370 2.01e-05 3.02e-05 3.90e-06 1.49e-06 
     15 1 1.91e-06  370 1.22e-05 8.32e-06 5.78e-06 1.91e-06 
     16 1 1.65e-06  370 5.49e-05 6.04e-05 5.80e-06 1.65e-06 
     17 1 1.56e-06  370 2.75e-05 7.75e-05 8.29e-06 1.56e-06 
     18 1 1.62e-06  370 7.04e-05 5.95e-05 5.62e-06 1.62e-06 
     19 1 1.83e-06  370 8.39e-05 9.74e-05 5.54e-06 1.83e-06 
     20 1 1.49e-06  370 7.84e-05 2.93e-05 6.58e-06 1.49e-06 
     21 1 1.62e-06  370 2.46e-05 8.36e-05 6.86e-06 1.62e-06 
     22 1 1.89e-06  370 7.32e-06 3.45e-06 4.39e-06 1.89e-06 
     23 1 1.55e-06  370 7.35e-05 2.19e-05 2.01e-06 1.55e-06 
     24 1 1.80e-06  370 2.25e-05 4.55e-05 5.02e-06 1.80e-06 
     25 1 1.94e-06  370 6.69e-05 4.97e-05 6.67e-06 1.94e-06 
     26 1 1.79e-06  370 4.31e-05 1.96e-05 5.12e-06 1.79e-06 
     27 1 1.68e-06  370 2.25e-06 3.19e-05 5.51e-06 1.68e-06 
     28 1 1.44e-06  370 6.28e-05 2.37e-05 7.73e-06 1.44e-06 
     29 1 1.38e-06  370 3.97e-05 9.64e-05 5.86e-06 1.38e-06 
     30 1 1.53e-06  370 1.23e-05 2.81e-05 3.22e-06 1.53e-06 
     31 1 1.79e-06  370 4.57e-05 9.26e-05 5.64e-06 1.79e-06 
     32 1 1.72e-06  370 4.42e-05 2.78e-05 2.29e-06 1.72e-06 
     33 1 1.45e-06  370 9.40e-05 7.35e-05 5.32e-06 1.45e-06 
     34 1 1.58e-06  370 6.98e-05 7.59e-05 7.57e-06 1.58e-06 
     35 1 1.50e-06  370 6.67e-05 6.70e-05 1.62e-06 1.50e-06 
     36 1 1.62e-06  370 7.27e-05 8.92e-05 1.62e-06 1.62e-06 
     37 1 1.41e-06  370 6.15e-05 2.83e-05 4.16e-06 1.41e-06 
     38 1 1.83e-06  370 5.00e-05 7.75e-05 1.94e-06 1.83e-06 
     39 1 1.55e-06  370 5.45e-05 7.93e-05 2.90e-06 1.55e-06 
     40 1 1.46e-06  370 8.72e-05 1.15e-05 2.18e-06 1.46e-06 
     41 1 1.80e-06  370 5.23e-05 3.74e-05 7.13e-06 1.80e-06 
     42 1 1.88e-06  370 1.98e-06 9.61e-05 6.54e-06 1.88e-06 
     43 1 1.92e-06  370 4.80e-05 7.94e-05 6.63e-06 1.92e-06 
     44 1 1.44e-06  370 6.80e-05 6.47e-05 5.13e-06 1.44e-06 
     45 1 1.52e-06  370 7.45e-05 2.66e-05 8.44e-06 1.52e-06 
     46 1 1.43e-06  370 1.25e-05 4.33e-05 4.43e-06 1.43e-06 
     47 1 1.50e-06  370 9.58e-06 6.98e-05 3.63e-06 1.50e-06 
     48 1 1.64e-06  370 1.97e-05 7.29e-05 7.86e-06 1.64e-06 
     49 1 1.83e-06  370 4.01e-05 3.59e-05 3.21e-06 1.83e-06 
     50 1 1.40e-06  370 1.96e-06 6.91e-05 4.08e-06 1.40e-06 
     51 2 1.38e-06  230 4.56e-05 7.49e-06 7.87e-06 1.38e-06 
     52 2 1.02e-06  230 3.18e-05 2.49e-05 3.83e-06 1.02e-06 
     53 2 1.08e-06  230 1.61e-05 5.55e-05 1.14e-06 1.08e-06 
     54 2 1.23e-06  230 4.61e-05 5.75e-05 4.71e-06 1.23e-06 
     55 2 1.36e-06  230 9.86e-05 7.68e-05 7.14e-06 1.36e-06 
     56 2 9.01e-07  230 4.78e-05 9.60e-05 7.36e-06 9.01e-07 
     57 2 9.23e-07  230 9.72e-06 5.30e-05 4.48e-06 9.23e-07 
     58 2 1.20e-06  230 5.39e-05 6.73e-05 4.58e-06 1.20e-06 
     59 2 9.48e-07  230 5.50e-05 8.34e-05 2.95e-06 9.48e-07 
     60 2 1.13e-06  230 2.97e-05 8.39e-05 2.71e-06 1.13e-06 
     61 2 1.01e-06  230 5.36e-05 6.35e-05 3.42e-06 1.01e-06 
     62 2 1.24e-06  230 4.05e-05 4.34e-05 3.36e-06 1.24e-06 
     63 2 1.26e-06  230 1.61e-05 2.31e-05 8.31e-06 1.26e-06 
     64 2 9.54e-07  230 8.66e-06 3.47e-05 3.42e-06 9.54e-07 
     65 2 8.90e-07  230 6.34e-05 7.90e-05 7.44e-06 8.90e-07 
     66 2 1.33e-06  230 2.63e-06 4.57e-05 6.80e-06 1.33e-06 
     67 2 1.15e-06  230 3.27e-05 4.86e-05 7.07e-06 1.15e-06 
     68 2 1.14e-06  230 7.06e-05 4.03e-05 3.27e-06 1.14e-06 
     69 2 1.29e-06  230 1.58e-05 6.92e-05 7.01e-06 1.29e-06 
     70 2 1.05e-06  230 4.15e-06 5.35e-05 8.19e-06 1.05e-06 
     71 2 1.16e-06  230 1.18e-05 9.04e-05 2.32e-06 1.16e-06 
     72 2 1.31e-06  230 4.99e-05 9.24e-05 3.28e-06 1.31e-06 
     73 2 1.13e-06  230 9.08e-05 3.54e-05 7.55e-06 1.13e-06 
     74 2 1.35e-06  230 2.69e-05 1.03e-05 2.83e-06 1.35e-06 
     75 2 1.21e-06  230 4.40e-05 7.22e-05 1.23e-06 1.21e-06 
     76 2 1.09e-06  230 3.46e-05 8.05e-05 4.52e-06 1.09e-06 
     77 2 1.24e-06  230 9.18e-05 3.77e-05 8.26e-06 1.24e-06 
     78 2 1.13e-06  230 7.49e-05 6.02e-05 2.57e-06 1.13e-06 
     79 2 1.39e-06  230 5.33e-05 7.55e-05 4.86e-06 1.39e-06 
     80 2 9.53e-07  230 7.90e-05 5.36e-05 2.02e-06 9.53e-07 
     81 2 1.33e-06  230 4.79e-05 2.31e-05 6.99e-06 1.33e-06 
     82 2 1.30e-06  230 4.62e-05 6.54e-05 5.41e-06 1.30e-06 
     83 2 1.00e-06  230 3.63e-06 3.02e-05 5.54e-06 1.00e-06 
     84 2 9.89e-07  230 7.71e-05 1.78e-05 4.35e-06 9.89e-07 
     85 2 9.37e-07  230 8.33e-05 5.12e-05 3.57e-06 9.37e-07 
     86 2 1.18e-06  230 2.02e-05 8.09e-05 2.95e-06 1.18e-06 
     87 2 1.15e-06  230 6.10e-05 3.70e-05 4.78e-06 1.15e-06 
     88 2 1.18e-06  230 8.27e-05 2.16e-05 3.13e-06 1.18e-06 
     89 2 1.18e-06  230 7.85e-05 1.69e-05 3.78e-06 1.18e-06 
     90 2 8.83e-07  230 3.19e-05 8.38e-05 2.92e-06 8.83e-07 
     91 2 1.14e-06  230 7.79e-05 2.26e-05 6.40e-06 1.14e-06 
     92 2 1.30e-06  230 8.58e-05 3.66e-05 7.75e-06 1.30e-06 
     93 2 1.13e-06  230 1.78e-05 5.97e-05 7.00e-06 1.13e-06 
     94 2 1.00e-06  230 8.52e-05 6.72e-05 7.69e-06 1.00e-06 
     95 2 1.08e-06  230 2.70e-05 2.66e-05 6.36e-06 1.08e-06 
     96 2 1.34e-06  230 1.63e-05 2.32e-05 3.37e-06 1.34e-06 
     97 2 1.24e-06  230 1.50e-05 7.83e-05 2.91e-06 1.24e-06 
     98 2 1.32e-06  230 4.96e-05 7.33e-05 6.96e-06 1.32e-06 
     99 2 9.40e-07  230 8.38e-05 5.99e-05 8.08e-06 9.40e-07 
     100 2 9.60e-07  230 2.05e-05 6.18e-06 8.33e-06 9.60e-07 

 Nutrients 

     1 sub g nn nn nn 1.00e-01 1.00e-01 
     2 o2 l nn nn nd 9.00e-03 9.00e-03 
     3 suc l nn nn nn 3.42e-20 3.42e-20 
     4 co2 l nn nn nd 2.99e-02 2.99e-02 

 Type Name 

     1 cyano  
     2 ecw  

 Diffusion Coeffs 

     sub 0 
     o2 2.3e-09 
     suc 5.2e-10 
     co2 1.9e-09 

 Growth Rate 

     cyano 1.67e-05 
     ecw 4e-05 

 Ks 

     cyano 0.00035 0.0002 0.01 0.000138 
     ecw 0 0.001 3.6 0.05 

 Yield 

     cyano 0.55 
     ecw 0.43 

 Maintenance 

     cyano 0 
     ecw 9.5e-07 

 Decay 

     cyano 0 
     ecw 0 



