LAMMPS (20 Nov 2019)
# NUFEB simulation

atom_style	bio
atom_modify	map array sort 1000 5.0e-7
boundary	ff ff ff
newton		off
processors  * * *

comm_modify	vel yes
#variable reps loop 1
read_data_bio atom_50_50_100_1_2021-08-31.in
  orthogonal box = (0 0 0) to (0.0001 0.0001 1e-05)
  8 by 4 by 1 MPI processor grid
  reading atoms ...
  100 atoms
  4 nutrients
#shell mkdir Run_50_50_100_1
#shell cd Run_50_50_100_1
##############Define initial particle distribution##############

lattice sc 1e-6 origin 0 0 0
Lattice spacing in x,y,z = 100 100 100
region reg block 0 1000 0 1000 0 100

group CYANO type 1
50 atoms in group CYANO
group ECW type 2
50 atoms in group ECW

neighbor	5e-7 bin
neigh_modify	delay 0 one 5000

##############Define DEM Variables&Commands##############

pair_style  gran/hooke/history 1.e-4 NULL 1.e-5 NULL 0.0 1
pair_coeff  * *

timestep 10

fix 1 all nve/limit 1e-8
fix fv all viscous 1e-5

fix zw all wall/gran hooke/history 2000 NULL 500.0 NULL 1.5 0 zplane  0.0  1e-05

variable kanc equal 50

variable ke equal 5e+10


##############Define IBm Variables##############

#variables used in fix eps_extract
variable EPSdens equal 30
variable EPSratio equal 1.3

#variables used in fix division
variable divDia1 equal 1.96e-6
variable divDia2 equal 1.04e-6

#variables used in fix kinetics
variable diffT equal 1e-4
variable tol equal 1e-11
variable etaHET equal 0.6
variable layer equal -1

#variables used in fix death
#variable deadDia equal 9e-7


##############Define IBm Commands##############

fix k1 all kinetics 100 50 50 5 v_diffT v_layer niter 1000000
fix kgm all kinetics/growth/monod sucexp 1.0
fix g1 all kinetics/diffusion v_tol
fix d1 CYANO divide 100 v_EPSdens v_divDia1 150476
fix d2 ECW divide 100 v_EPSdens v_divDia2 238496
#fix d2 all death 1 v_deadDia demflag 0


##############Define IBm Computes##############

compute myNtypes all ntypes
compute myMass all biomass
compute myCon all avg_con

##############Simulation exit condition##############
variable co2 equal c_myCon[4]
fix 10 all halt 100 v_co2 <= 1e-19

variable light equal c_myCon[1]
fix 11 all halt 100 v_light <= 1e-19

##############Simulation Output##############
dump    id all custom 100 output.lammmps id type diameter x y z
dump    du1 all vtk 100 atom_*.vtu id type diameter x y z
dump    du2 all grid 100 grid_%_*.vti con
dump    du3 all bio 100 ntypes biomass avg_con
dump    traj all bio/hdf5 100 trajectory.h5 id type radius x y z con
thermo_style    custom step cpu atoms c_myNtypes[*] c_myMass[*] c_myCon[*]
thermo		100
thermo_modify	lost ignore


run 35000
Model is defined as a closed system. 
Neighbor list info ...
  update every 1 steps, delay 0 steps, check yes
  max neighbors/atom: 5000, page size: 100000
  master list distance cutoff = 2.44e-06
  ghost atom cutoff = 2.44e-06
  binsize = 1.22e-06, bins = 82 82 9
  1 neighbor lists, perpetual/occasional/extra = 1 0 0
  (1) pair gran/hooke/history, perpetual
      attributes: half, newton off, size, history
      pair build: half/size/bin/newtoff
      stencil: half/bin/3d/newtoff
      bin: standard
Per MPI rank memory allocation (min/avg/max) = 5.794 | 11.06 | 12.11 Mbytes
Step CPU Atoms c_myNtypes[1] c_myNtypes[2] c_myMass[1] c_myMass[2] c_myCon[1] c_myCon[2] c_myCon[3] c_myCon[4] 
       0            0      100           50           50 4.3477628e-14 9.3816336e-15          0.1        0.009     3.42e-20       0.0299 
number of iterations: 324880 
     100     15.51698      135           50           85 4.4053803e-14 9.3768581e-15          0.1 0.0090007623  0.034932394   0.02989873 
number of iterations: 5047 
     200    15.887173      150           50          100 4.4637614e-14 9.3752221e-15          0.1 0.0090007722  0.069158281  0.029898713 
number of iterations: 3487 
     300    16.201268      150           50          100 4.5229161e-14 9.3766775e-15          0.1 0.0090007823   0.10376126  0.029898697 
number of iterations: 2761 
     400     16.48261      151           51          100 4.5828547e-14 9.3812056e-15          0.1 0.0090007925   0.13875072  0.029898679 
number of iterations: 2327 
     500    16.714841      151           51          100 4.6435877e-14 9.388788e-15          0.1 0.0090008028   0.17413417  0.029898662 
number of iterations: 2035 
     600     16.94341      152           52          100 4.7051256e-14 9.3994056e-15          0.1 0.0090008133   0.20991855  0.029898644 
number of iterations: 1820 
     700    17.165018      153           53          100 4.7674789e-14 9.4130458e-15          0.1 0.0090008239   0.24611064  0.029898626 
number of iterations: 1668 
     800    17.378175      153           53          100 4.8306585e-14 9.4296992e-15          0.1 0.0090008346   0.28271724  0.029898608 
number of iterations: 1548 
     900    17.608056      153           53          100 4.8946755e-14 9.449358e-15          0.1 0.0090008455   0.31974502   0.02989859 
number of iterations: 1453 
    1000    17.828229      154           54          100 4.9595408e-14 9.4720185e-15          0.1 0.0090008566   0.35720067  0.029898571 
number of iterations: 1446 
    1100    18.040214      155           55          100 5.0252657e-14 9.497679e-15          0.1 0.0090008678    0.3950909  0.029898553 
number of iterations: 1448 
    1200    18.244968      156           55          101 5.0918616e-14 9.5263389e-15          0.1 0.0090008791   0.43342229  0.029898534 
number of iterations: 1451 
    1300    18.432793      156           55          101  5.15934e-14 9.5580018e-15          0.1 0.0090008906   0.47220151  0.029898514 
number of iterations: 1454 
    1400    18.633487      156           55          101 5.2277127e-14 9.592674e-15          0.1 0.0090009023   0.51143526  0.029898495 
number of iterations: 1458 
    1500    18.852838      157           56          101 5.2969915e-14 9.6303626e-15          0.1 0.0090009141   0.55113016  0.029898475 
number of iterations: 1460 
    1600    19.042642      157           56          101 5.3671883e-14 9.6710812e-15          0.1  0.009000926   0.59129306  0.029898455 
number of iterations: 1487 
    1700    19.257773      162           59          103 5.4383155e-14 9.7148401e-15          0.1 0.0090009369   0.63193056  0.029898436 
number of iterations: 1465 
    1800    19.510705      162           59          103 5.5103852e-14  9.76166e-15          0.1 0.0090009492   0.67304964  0.029898416 
number of iterations: 1468 
    1900    19.701564      162           59          103  5.58341e-14 9.8115607e-15          0.1 0.0090009617   0.71465716  0.029898395 
number of iterations: 1471 
    2000    19.906768      163           60          103 5.6574025e-14 9.8645642e-15          0.1 0.0090009679   0.75675999  0.029898384 
number of iterations: 1450 
    2100    20.105478      166           62          104 5.7323757e-14 9.9206968e-15          0.1 0.0090009806   0.79936506  0.029898363 
number of iterations: 1464 
    2200    20.298045      168           64          104 5.8083423e-14 9.9799838e-15          0.1 0.0090009887   0.84247937  0.029898349 
number of iterations: 1479 
    2300     20.48208      169           64          105 5.8853157e-14 1.0042457e-14          0.1 0.0090010016   0.88610986  0.029898327 
number of iterations: 1482 
    2400    20.679035      170           64          106 5.9633092e-14 1.0108147e-14          0.1 0.0090010148   0.93026356  0.029898305 
number of iterations: 1484 
    2500    20.868551      171           64          107 6.0423362e-14 1.0177091e-14          0.1 0.0090010281   0.97494756  0.029898283 
number of iterations: 1487 
    2600     21.07619      171           64          107 6.1224106e-14 1.0249326e-14          0.1 0.0090010415     1.020169   0.02989826 
number of iterations: 1490 
    2700    21.262652      174           64          110 6.2035461e-14 1.0324895e-14          0.1 0.0090010552    1.0659349  0.029898237 
number of iterations: 1493 
    2800    21.443868      174           64          110 6.2857568e-14 1.0403839e-14          0.1 0.0090010691    1.1122527  0.029898214 
number of iterations: 1496 
    2900    21.608398      175           64          111 6.369057e-14 1.0486201e-14          0.1 0.0090010831    1.1591295   0.02989819 
number of iterations: 1498 
    3000    21.855051      178           65          113 6.4534611e-14 1.057203e-14          0.1 0.0090010941    1.2065727  0.029898172 
number of iterations: 1509 
    3100    22.038784      181           67          114 6.5389837e-14 1.0661379e-14          0.1 0.0090011097    1.2545897  0.029898146 
number of iterations: 1504 
    3200     22.23104      183           67          116 6.6256397e-14 1.0754303e-14          0.1 0.0090011243    1.3031877  0.029898121 
number of iterations: 1506 
    3300    22.415656      183           67          116 6.7134441e-14 1.0850859e-14          0.1  0.009001139    1.3523743  0.029898096 
number of iterations: 1509 
    3400    22.651816      183           67          116 6.802412e-14 1.0951107e-14          0.1  0.009001154     1.402157  0.029898071 
number of iterations: 1512 
    3500    22.851422      185           67          118 6.892559e-14 1.1055108e-14          0.1 0.0090011691    1.4525432  0.029898046 
number of iterations: 1515 
    3600    23.030424      185           67          118 6.9839007e-14 1.1162928e-14          0.1 0.0090011845    1.5035406   0.02989802 
number of iterations: 1450 
    3700    23.203758      186           68          118 7.0764528e-14 1.1274639e-14          0.1 0.0090011952    1.5551569  0.029898002 
number of iterations: 1564 
    3800    23.395117      188           69          119 7.1702315e-14 1.1390308e-14          0.1 0.0090012109    1.6073998  0.029897975 
number of iterations: 1577 
    3900    23.607196      190           70          120 7.2652529e-14 1.1510009e-14          0.1 0.0090012268    1.6602771  0.029897948 
number of iterations: 1638 
    4000    23.867285      190           70          120 7.3615335e-14 1.1633823e-14          0.1 0.0090012462    1.7137965  0.029897916 
number of iterations: 1529 
    4100    24.074351      194           72          122 7.4590901e-14 1.1761824e-14          0.1 0.0090012625    1.7679659  0.029897888 
number of iterations: 1531 
    4200    24.283806      196           73          123 7.5579395e-14 1.1894104e-14          0.1 0.0090012791    1.8227932  0.029897861 
number of iterations: 1466 
    4300    24.463038      198           73          125 7.6580989e-14 1.2030748e-14          0.1 0.0090012924    1.8782864  0.029897838 
number of iterations: 1534 
    4400    24.648633      201           74          127 7.7595857e-14 1.217185e-14          0.1 0.0090013094    1.9344534   0.02989781 
number of iterations: 1537 
    4500    24.821349      207           77          130 7.8624173e-14 1.2317498e-14          0.1 0.0090013266    1.9913023  0.029897781 
number of iterations: 1540 
    4600    25.011258      210           77          133 7.9666117e-14 1.2467794e-14          0.1  0.009001344    2.0488412  0.029897751 
number of iterations: 1543 
    4700    25.182733      212           78          134 8.0721869e-14 1.262284e-14          0.1 0.0090013653    2.1070784  0.029897716 
number of iterations: 1545 
    4800    25.383236      215           78          137 8.1791612e-14 1.2782745e-14          0.1 0.0090013832    2.1660221  0.029897685 
number of iterations: 1548 
    4900    25.593328      217           78          139 8.2875532e-14 1.2947613e-14          0.1 0.0090014014    2.2256805  0.029897655 
number of iterations: 1577 
    5000     25.82286      223           79          144 8.3973815e-14 1.3117554e-14          0.1 0.0090014233     2.286062  0.029897618 
number of iterations: 1412 
    5100     26.00955      228           82          146 8.5086654e-14 1.3292686e-14          0.1 0.0090014308    2.3471749  0.029897605 
number of iterations: 1550 
    5200    26.185219      232           83          149 8.621424e-14 1.3473139e-14          0.1 0.0090014496    2.4090276  0.029897573 
number of iterations: 1706 
    5300    26.416423      234           84          150 8.7356769e-14 1.3659035e-14          0.1 0.0090014711    2.4716288  0.029897537 
number of iterations: 1754 
    5400    26.626253      237           86          151 8.8514439e-14 1.3850503e-14          0.1 0.0090015025    2.5349866  0.029897485 
number of iterations: 1564 
    5500    26.824957      239           88          151 8.968745e-14 1.4047679e-14          0.1 0.0090015234      2.59911   0.02989745 
number of iterations: 1567 
    5600    27.014103      241           88          153 9.0876007e-14 1.4250702e-14          0.1 0.0090015434    2.6640074  0.029897416 
number of iterations: 1569 
    5700    27.210098      242           88          154 9.2080315e-14 1.4459716e-14          0.1 0.0090015636    2.7296875  0.029897382 
number of iterations: 1625 
    5800     27.41119      247           91          156 9.3300582e-14 1.4674873e-14          0.1 0.0090015853    2.7961591  0.029897345 
number of iterations: 1577 
    5900    27.605648      253           92          161 9.453702e-14 1.4896323e-14          0.1 0.0090016109    2.8634309  0.029897302 
number of iterations: 1579 
    6000    27.822732      255           92          163 9.5789844e-14 1.5124224e-14          0.1  0.009001632    2.9315117  0.029897267 
number of iterations: 1584 
    6100    28.019933      259           95          164 9.7059271e-14 1.5358742e-14          0.1 0.0090016473    3.0004105  0.029897241 
number of iterations: 1577 
    6200    28.254753      264           97          167 9.834552e-14 1.5600052e-14          0.1 0.0090016642     3.070136  0.029897212 
number of iterations: 1647 
    6300    28.451349      267           98          169 9.9648815e-14 1.5848326e-14          0.1 0.0090016879    3.1406973  0.029897172 
number of iterations: 1561 
    6400    28.631159      272          102          170 1.0096938e-13 1.6103751e-14          0.1  0.009001705    3.2121032  0.029897143 
number of iterations: 1591 
    6500    28.826498      275          103          172 1.0230745e-13 1.6366507e-14          0.1 0.0090017273     3.284363  0.029897106 
number of iterations: 1611 
    6600    29.012805      278          105          173 1.0366325e-13 1.6636782e-14          0.1   0.00900175    3.3574851  0.029897067 
number of iterations: 1597 
    6700    29.203318      285          106          179 1.0503701e-13 1.6914777e-14          0.1 0.0090017728    3.4314789  0.029897029 
number of iterations: 1616 
    6800    29.447711      287          106          181 1.0642899e-13  1.72007e-14          0.1 0.0090017961    3.5063535  0.029896989 
number of iterations: 1603 
    6900    29.650907      294          108          186 1.0783941e-13 1.7494773e-14          0.1 0.0090018197    3.5821182   0.02989695 
number of iterations: 1605 
    7000    29.832459      301          109          192 1.0926851e-13 1.7797217e-14          0.1 0.0090018435    3.6587816   0.02989691 
number of iterations: 1548 
    7100    30.040806      305          110          195 1.1071656e-13 1.8108246e-14          0.1 0.0090018588     3.736353  0.029896883 
number of iterations: 1600 
    7200    30.244616      308          112          196 1.121838e-13 1.8428095e-14          0.1 0.0090018783    3.8148418   0.02989685 
number of iterations: 1756 
    7300    30.445019      314          115          199 1.1367048e-13 1.8757007e-14          0.1 0.0090019078    3.8942572  0.029896801 
number of iterations: 1621 
    7400    30.641282      320          117          203 1.1517687e-13 1.9095222e-14          0.1 0.0090019328    3.9746085  0.029896758 
number of iterations: 1752 
    7500    30.834467      325          118          207 1.1670322e-13 1.9442992e-14          0.1 0.0090019629    4.0559045  0.029896708 
number of iterations: 1624 
    7600    31.015806      328          118          210 1.1824979e-13 1.9800591e-14          0.1 0.0090019886    4.1381548  0.029896664 
number of iterations: 1632 
    7700    31.198716      332          119          213 1.1981686e-13 2.0168291e-14          0.1 0.0090020197    4.2213687  0.029896612 
number of iterations: 1634 
    7800    31.403805      335          121          214 1.214047e-13 2.0546376e-14          0.1 0.0090020497    4.3055556  0.029896561 
number of iterations: 1803 
    7900    31.607201      338          122          216 1.2301358e-13 2.0935135e-14          0.1 0.0090020835    4.3907247  0.029896504 
number of iterations: 1601 
    8000    31.796047      348          126          222 1.2464378e-13 2.133487e-14          0.1 0.0090021051    4.4768852  0.029896467 
number of iterations: 1612 
    8100     32.00176      352          127          225 1.2629558e-13 2.1745896e-14          0.1 0.0090021247    4.5640461  0.029896434 
number of iterations: 1733 
    8200    32.197363      359          128          231 1.2796928e-13 2.2168516e-14          0.1 0.0090021564    4.6522165   0.02989638 
number of iterations: 1753 
    8300    32.407733      369          130          239 1.2966515e-13 2.2603058e-14          0.1 0.0090021893    4.7414058  0.029896325 
number of iterations: 1658 
    8400     32.67355      379          134          245 1.313835e-13 2.3049872e-14          0.1 0.0090022132    4.8316231  0.029896284 
number of iterations: 1652 
    8500     32.86599      382          135          247 1.3312462e-13 2.3509309e-14          0.1 0.0090022421    4.9228777  0.029896235 
number of iterations: 1650 
    8600     33.04391      386          137          249 1.3488881e-13 2.3981737e-14          0.1  0.009002265    5.0151786  0.029896196 
number of iterations: 1658 
    8700     33.23112      390          138          252 1.3667639e-13 2.4467519e-14          0.1 0.0090022915     5.108535  0.029896151 
number of iterations: 1679 
    8800    33.422844      401          141          260 1.3848765e-13 2.4967042e-14          0.1 0.0090023198    5.2029561  0.029896103 
number of iterations: 1663 
    8900    33.599647      409          141          268 1.4032292e-13 2.5480704e-14          0.1 0.0090023455    5.2984507  0.029896059 
number of iterations: 1665 
    9000    33.800061      419          142          277 1.421825e-13 2.600891e-14          0.1 0.0090023762    5.3950277  0.029896007 
number of iterations: 1669 
    9100    34.018454      425          143          282 1.4406673e-13 2.6552101e-14          0.1 0.0090024071    5.4926961  0.029895955 
number of iterations: 1686 
    9200    34.224285      429          143          286 1.4597593e-13 2.7110697e-14          0.1 0.0090024438    5.5914647  0.029895893 
number of iterations: 1676 
    9300    34.440711      440          144          296 1.4791044e-13 2.7685146e-14          0.1 0.0090024756    5.6913421  0.029895839 
number of iterations: 1685 
    9400    34.631521      447          148          299 1.4987057e-13 2.827591e-14          0.1 0.0090025079    5.7923372  0.029895784 
number of iterations: 1699 
    9500    34.824615      454          149          305 1.5185669e-13 2.8883476e-14          0.1 0.0090025406    5.8944584  0.029895728 
number of iterations: 1690 
    9600    35.023493      465          151          314 1.5386912e-13 2.9508339e-14          0.1 0.0090025788    5.9977141  0.029895663 
number of iterations: 1686 
    9700    35.208349      475          153          322 1.5590823e-13 3.0151012e-14          0.1 0.0090026124    6.1021129  0.029895606 
number of iterations: 1688 
    9800    35.417177      485          154          331 1.5797435e-13 3.0812014e-14          0.1 0.0090026465    6.2076629  0.029895548 
number of iterations: 1655 
    9900    35.612118      491          156          335 1.6006786e-13 3.1491887e-14          0.1 0.0090026809    6.3143727   0.02989549 
number of iterations: 1743 
   10000    35.841771      502          157          345 1.6218911e-13 3.2191195e-14          0.1 0.0090027185    6.4222497  0.029895426 
number of iterations: 1732 
   10100    36.023962      512          159          353 1.6433847e-13 3.2910499e-14          0.1  0.009002757    6.5313019   0.02989536 
number of iterations: 1708 
   10200    36.217494      521          162          359 1.6651632e-13 3.3650395e-14          0.1  0.009002796    6.6415373  0.029895294 
number of iterations: 1712 
   10300    36.400493      527          164          363 1.6872302e-13 3.4411487e-14          0.1 0.0090028323     6.752963  0.029895232 
number of iterations: 1712 
   10400    36.618789      536          167          369 1.7095897e-13 3.5194414e-14          0.1 0.0090028643    6.8655867  0.029895177 
number of iterations: 1728 
   10500    36.862748      548          172          376 1.7322455e-13 3.5999841e-14          0.1 0.0090028963    6.9794158  0.029895123 
number of iterations: 1712 
   10600    37.053986      557          172          385 1.7552016e-13 3.6828437e-14          0.1  0.009002934    7.0944574  0.029895058 
number of iterations: 1718 
   10700    37.256421      572          175          397 1.7784618e-13 3.7680899e-14          0.1 0.0090029577    7.2107182  0.029895017 
number of iterations: 1656 
   10800    37.460561      584          182          402 1.8020304e-13 3.8557942e-14          0.1 0.0090029941    7.3282053  0.029894955 
number of iterations: 1729 
   10900    37.666785      589          183          406 1.8259112e-13 3.9460302e-14          0.1 0.0090030342    7.4469248  0.029894887 
number of iterations: 1721 
   11000    37.867234      601          183          418 1.8501085e-13 4.0388742e-14          0.1 0.0090030671    7.5668827   0.02989483 
number of iterations: 1721 
   11100    38.062784      613          185          428 1.8746265e-13 4.1344049e-14          0.1 0.0090031066    7.6880849  0.029894762 
number of iterations: 1659 
   11200    38.271976      623          187          436 1.8994694e-13 4.2327041e-14          0.1 0.0090031443    7.8105379  0.029894698 
number of iterations: 1728 
   11300    38.455806      638          187          451 1.9246416e-13 4.3338555e-14          0.1  0.009003185    7.9342462  0.029894628 
number of iterations: 1721 
   11400     38.63868      659          193          466 1.9501473e-13 4.4379453e-14          0.1 0.0090032262    8.0592154  0.029894557 
number of iterations: 1805 
   11500    38.825299      673          194          479 1.975991e-13 4.5450641e-14          0.1 0.0090032706    8.1854501  0.029894481 
number of iterations: 1768 
   11600    39.024012      689          196          493 2.0021772e-13 4.6553025e-14          0.1 0.0090033134    8.3129541  0.029894408 
number of iterations: 1714 
   11700    39.211452      710          200          510 2.0287104e-13 4.7687559e-14          0.1 0.0090033523    8.4417321  0.029894341 
number of iterations: 1672 
   11800    39.449736      721          204          517 2.0555953e-13 4.885524e-14          0.1 0.0090033913    8.5717878  0.029894274 
number of iterations: 1742 
   11900    39.649753      734          206          528 2.0828364e-13 5.0057072e-14          0.1   0.00900343    8.7031242  0.029894207 
number of iterations: 1757 
   12000    39.864269      745          207          538 2.1104386e-13 5.1294081e-14          0.1 0.0090034806    8.8357446  0.029894121 
number of iterations: 1737 
   12100    40.057877      761          210          551 2.1384065e-13 5.2567345e-14          0.1 0.0090035258    8.9696509  0.029894043 
number of iterations: 1731 
   12200    40.260795      777          212          565 2.166745e-13 5.3877992e-14          0.1 0.0090035562     9.104846   0.02989399 
number of iterations: 1753 
   12300    40.451333      795          215          580 2.1954592e-13 5.5227137e-14          0.1 0.0090036003    9.2413313  0.029893914 
number of iterations: 1758 
   12400    40.650803      814          216          598 2.2245538e-13 5.6615968e-14          0.1 0.0090036421    9.3791081  0.029893842 
number of iterations: 1768 
   12500    40.860803      826          218          608 2.254034e-13 5.804571e-14          0.1   0.00900369    9.5181767  0.029893759 
number of iterations: 1739 
   12600    41.045927      854          225          629 2.2839049e-13 5.951762e-14          0.1 0.0090037352    9.6585376  0.029893681 
number of iterations: 1786 
   12700    41.244949      877          232          645 2.3141716e-13 6.1032993e-14          0.1 0.0090037791    9.8001898  0.029893605 
number of iterations: 1786 
   12800    41.448284      900          236          664 2.3448394e-13 6.2593164e-14          0.1 0.0090038224     9.943133   0.02989353 
number of iterations: 1733 
   12900    41.638015      919          241          678 2.3759137e-13 6.4199512e-14          0.1 0.0090038592    10.087366  0.029893465 
number of iterations: 1770 
   13000    41.898456      942          246          696 2.4073997e-13 6.5853467e-14          0.1 0.0090039163    10.232885  0.029893367 
number of iterations: 1756 
   13100    42.107758      953          247          706 2.439303e-13 6.7556499e-14          0.1 0.0090039631    10.379688  0.029893286 
number of iterations: 1780 
   13200    42.323424      972          248          724 2.4716291e-13 6.931012e-14          0.1 0.0090040044    10.527772  0.029893214 
number of iterations: 1770 
   13300     42.55243      995          250          745 2.5043836e-13 7.1115891e-14          0.1 0.0090040435    10.677132  0.029893145 
number of iterations: 1785 
   13400    42.757292     1020          251          769 2.5375721e-13 7.2975432e-14          0.1 0.0090041027    10.827763  0.029893043 
number of iterations: 1803 
   13500    42.955226     1034          252          782 2.5712005e-13 7.4890408e-14          0.1 0.0090041551     10.97966  0.029892952 
number of iterations: 1843 
   13600    43.160486     1062          259          803 2.6052745e-13 7.6862536e-14          0.1 0.0090042157    11.132815  0.029892847 
number of iterations: 1866 
   13700    43.370712     1086          262          824 2.6398001e-13 7.8893581e-14          0.1 0.0090042742    11.287221  0.029892746 
number of iterations: 1763 
   13800    43.560353     1123          268          855 2.6747832e-13 8.0985331e-14          0.1 0.0090043301    11.442869  0.029892649 
number of iterations: 1729 
   13900    43.773423     1145          272          873 2.7102299e-13 8.3139724e-14          0.1 0.0090043763    11.599752  0.029892568 
number of iterations: 1796 
   14000    43.968337     1158          273          885 2.7461463e-13 8.5358758e-14          0.1 0.0090044322    11.757859  0.029892471 
number of iterations: 1803 
   14100     44.15884     1186          275          911 2.7825387e-13 8.7644444e-14          0.1 0.0090044838    11.917178   0.02989238 
number of iterations: 1831 
   14200    44.357691     1213          277          936 2.8194134e-13 8.9998811e-14          0.1 0.0090045378    12.077698  0.029892286 
number of iterations: 1784 
   14300    44.547251     1243          279          964 2.8567768e-13 9.2424008e-14          0.1 0.0090045954    12.239404  0.029892185 
number of iterations: 1861 
   14400    44.761062     1281          283          998 2.8946353e-13 9.4922236e-14          0.1 0.0090046603    12.402282  0.029892072 
number of iterations: 1825 
   14500    44.970983     1314          287         1027 2.9329955e-13 9.7495776e-14          0.1 0.0090047193    12.566317  0.029891969 
number of iterations: 1819 
   14600    45.164142     1346          290         1056 2.9718641e-13 1.0014696e-13          0.1 0.0090047792    12.731492  0.029891864 
number of iterations: 1885 
   14700     45.37065     1382          296         1086 3.0112477e-13 1.0287826e-13          0.1  0.009004851    12.897788  0.029891739 
number of iterations: 1844 
   14800    45.595179     1419          305         1114 3.0511533e-13 1.0569214e-13          0.1 0.0090049112    13.065187  0.029891633 
number of iterations: 1775 
   14900    45.812536     1451          309         1142 3.0915877e-13 1.0859117e-13          0.1 0.0090049662    13.233668  0.029891536 
number of iterations: 1760 
   15000    46.014329     1486          311         1175 3.132558e-13 1.1157802e-13          0.1 0.0090050196    13.403208  0.029891441 
number of iterations: 1826 
   15100     46.21974     1525          318         1207 3.1740712e-13 1.1465544e-13          0.1 0.0090050869    13.573784  0.029891322 
number of iterations: 1846 
   15200    46.449484     1552          320         1232 3.2161345e-13 1.1782627e-13          0.1 0.0090051603     13.74537  0.029891194 
number of iterations: 1836 
   15300    46.668424     1589          321         1268 3.2587553e-13 1.2109342e-13          0.1 0.0090052196    13.917941  0.029891089 
number of iterations: 1773 
   15400    46.876456     1623          322         1301 3.3019408e-13 1.2445993e-13          0.1 0.0090052807    14.091467  0.029890981 
number of iterations: 1820 
   15500     47.08042     1667          329         1338 3.3456987e-13 1.2792888e-13          0.1 0.0090053469    14.265917  0.029890864 
number of iterations: 1832 
   15600    47.288308     1712          332         1380 3.3900365e-13 1.3150352e-13          0.1 0.0090054095    14.441262  0.029890753 
number of iterations: 1866 
   15700    47.511907     1746          336         1410 3.4349618e-13 1.3518712e-13          0.1 0.0090054848    14.617467   0.02989062 
number of iterations: 1829 
   15800    47.726782     1793          342         1451 3.4804825e-13 1.3898313e-13          0.1 0.0090055566    14.794497  0.029890493 
number of iterations: 1852 
   15900    47.944898     1828          342         1486 3.5266064e-13 1.4289508e-13          0.1  0.009005626    14.972313  0.029890369 
number of iterations: 1804 
   16000    48.140691     1876          348         1528 3.5733416e-13 1.469266e-13          0.1 0.0090056899    15.150877  0.029890255 
number of iterations: 1862 
   16100    48.347513     1918          354         1564 3.6206961e-13 1.5108144e-13          0.1 0.0090057554    15.330147  0.029890138 
number of iterations: 1854 
   16200    48.562756     1974          360         1614 3.6686782e-13 1.5536349e-13          0.1 0.0090058093    15.510079   0.02989004 
number of iterations: 1861 
   16300    48.768987     2031          365         1666 3.7172961e-13 1.5977667e-13          0.1 0.0090058802    15.690625  0.029889913 
number of iterations: 1875 
   16400    49.000212     2087          368         1719 3.7665583e-13 1.6432513e-13          0.1 0.0090059571    15.871739  0.029889776 
number of iterations: 1882 
   16500    49.236855     2141          371         1770 3.8164734e-13 1.6901312e-13          0.1  0.009006021     16.05337   0.02988966 
number of iterations: 1874 
   16600    49.492534     2200          376         1824 3.8670499e-13 1.7384505e-13          0.1 0.0090061021    16.235464  0.029889515 
number of iterations: 1904 
   16700    49.698883     2251          381         1870 3.9182966e-13 1.788254e-13          0.1 0.0090061769    16.417966  0.029889381 
number of iterations: 1870 
   16800     49.93062     2297          384         1913 3.9702225e-13 1.8395886e-13          0.1 0.0090062533    16.600816  0.029889244 
number of iterations: 1888 
   16900    50.140083     2355          390         1965 4.0228366e-13 1.8925023e-13          0.1 0.0090063295    16.783952  0.029889107 
number of iterations: 1932 
   17000    50.374301     2425          397         2028 4.0761478e-13 1.9470447e-13          0.1 0.0090064238    16.967311  0.029888939 
number of iterations: 1924 
   17100    50.625071     2502          407         2095 4.1301656e-13 2.003267e-13          0.1 0.0090065187    17.150825   0.02988877 
number of iterations: 1895 
   17200    50.843151     2579          419         2160 4.1848992e-13 2.0612219e-13          0.1 0.0090065831    17.334423  0.029888651 
number of iterations: 1905 
   17300    51.074196     2650          428         2222 4.2403581e-13 2.1195483e-13          0.1 0.0090066688    17.518127  0.029888497 
number of iterations: 1903 
   17400    51.311618     2727          431         2296 4.296552e-13 2.1810917e-13          0.1 0.0090067448    17.701768  0.029888358 
number of iterations: 1909 
   17500    51.545005     2795          432         2363 4.3534906e-13 2.2445345e-13          0.1 0.0090068239    17.885265  0.029888213 
number of iterations: 1903 
   17600    51.770736     2873          437         2436 4.4111837e-13 2.3099364e-13          0.1 0.0090069141    18.068535   0.02988805 
number of iterations: 1882 
   17700    52.004098     2948          445         2503 4.4696414e-13 2.3773588e-13          0.1 0.0090070007    18.251492  0.029887892 
number of iterations: 1882 
   17800    52.249743     3012          450         2562 4.5288738e-13 2.446865e-13          0.1 0.0090070858    18.434042  0.029887737 
number of iterations: 1975 
   17900    52.475263     3090          456         2634 4.5888911e-13 2.517531e-13          0.1 0.0090071908    18.616158  0.029887548 
number of iterations: 1878 
   18000    52.752776     3173          464         2709 4.6497037e-13 2.5913745e-13          0.1 0.0090072798    18.797677  0.029887384 
number of iterations: 1863 
   18100    52.967713     3248          471         2777 4.7113223e-13 2.6675028e-13          0.1 0.0090073467    18.978493  0.029887258 
number of iterations: 1905 
   18200    53.209465     3335          478         2857 4.7737575e-13 2.7459876e-13          0.1 0.0090074259      19.1585   0.02988711 
number of iterations: 1941 
   18300    53.444107     3410          481         2929  4.83702e-13 2.8269026e-13          0.1 0.0090075165    19.337586  0.029886942 
number of iterations: 1955 
   18400    53.684531     3519          485         3034 4.9011209e-13 2.9093988e-13          0.1 0.0090076328    19.515698  0.029886732 
number of iterations: 1936 
   18500    53.922203     3601          488         3113 4.9660713e-13 2.9953771e-13          0.1 0.0090077319    19.692653   0.02988655 
number of iterations: 1927 
   18600     54.17011     3710          491         3219 5.0318824e-13 3.0830602e-13          0.1 0.0090078379     19.86839  0.029886356 
number of iterations: 1962 
   18700    54.406919     3816          499         3317 5.0985656e-13 3.1723111e-13          0.1 0.0090079451     20.04286   0.02988616 
number of iterations: 1886 
   18800    54.660313     3903          505         3398 5.1661326e-13 3.2664425e-13          0.1 0.0090080242    20.215785  0.029886009 
number of iterations: 1945 
   18900      54.8875     4014          508         3506 5.2345949e-13 3.3634922e-13          0.1 0.0090081247    20.387025  0.029885822 
number of iterations: 1891 
   19000    55.133835     4146          518         3628 5.3039645e-13 3.4635517e-13          0.1 0.0090082078    20.556434  0.029885663 
number of iterations: 1951 
   19100    55.370196     4251          530         3721 5.3742534e-13 3.5667146e-13          0.1  0.009008307    20.723858  0.029885477 
number of iterations: 1975 
   19200    55.612708     4360          535         3825 5.4454737e-13 3.6730767e-13          0.1 0.0090084199    20.889139  0.029885268 
number of iterations: 1932 
   19300    55.840564     4472          544         3928 5.5176379e-13 3.7827375e-13          0.1 0.0090085119    21.052115  0.029885093 
number of iterations: 1984 
   19400    56.081625     4595          553         4042 5.5907584e-13 3.8945045e-13          0.1 0.0090086131    21.212704  0.029884902 
number of iterations: 1954 
   19500    56.325868     4731          561         4170 5.6648479e-13 4.0110336e-13          0.1 0.0090087076    21.370641  0.029884722 
number of iterations: 1959 
   19600    56.568253     4870          568         4302 5.7399193e-13 4.131176e-13          0.1 0.0090088144    21.525746   0.02988452 
number of iterations: 1954 
   19700    56.889871     5008          574         4434 5.8159855e-13 4.2532115e-13          0.1 0.0090089121    21.677953  0.029884333 
number of iterations: 1970 
   19800    57.142119     5163          584         4579 5.8930597e-13 4.3798787e-13          0.1 0.0090090211    21.827013  0.029884125 
number of iterations: 1958 
   19900    57.401684     5325          592         4733 5.9711553e-13 4.5103812e-13          0.1 0.0090091095     21.97273  0.029883951 
number of iterations: 1973 
   20000    57.646671     5457          597         4860 6.0502859e-13 4.6436183e-13          0.1 0.0090092288    22.114987  0.029883726 
number of iterations: 2010 
   20100    57.917784     5613          603         5010 6.1304651e-13 4.7824118e-13          0.1 0.0090093507    22.253473  0.029883495 
number of iterations: 1989 
   20200    58.168142     5756          607         5149 6.2117068e-13 4.9264592e-13          0.1 0.0090094592    22.387896  0.029883286 
number of iterations: 1895 
   20300    58.467703     5917          618         5299 6.2940252e-13 5.0727658e-13          0.1 0.0090095431    22.518178  0.029883116 
number of iterations: 1960 
   20400    58.724644     6081          625         5456 6.3774344e-13 5.2244655e-13          0.1 0.0090096567    22.644022  0.029882896 
number of iterations: 2016 
   20500    59.008432     6228          633         5595 6.461949e-13 5.3801344e-13          0.1 0.0090097778    22.765231  0.029882663 
number of iterations: 1983 
   20600    59.271057     6403          641         5762 6.5475836e-13 5.5416136e-13          0.1 0.0090098926    22.881485   0.02988244 
number of iterations: 2069 
   20700     59.57549     6588          659         5929 6.634353e-13 5.7079078e-13          0.1 0.0090100344    22.992531   0.02988217 
number of iterations: 2005 
   20800    59.844742     6785          666         6119 6.7222722e-13 5.879674e-13          0.1 0.0090101664    23.098075  0.029881915 
number of iterations: 1981 
   20900    60.116195     6982          669         6313 6.8113566e-13 6.0563995e-13          0.1 0.0090102848     23.19786  0.029881683 
number of iterations: 2012 
   21000    60.382524     7192          675         6517 6.9016215e-13 6.2378332e-13          0.1 0.0090103964    23.291649   0.02988146 
number of iterations: 1891 
   21100    60.623785     7388          680         6708 6.9930827e-13 6.4258382e-13          0.1 0.0090104896    23.379075  0.029881267 
number of iterations: 2040 
   21200    60.895955     7589          691         6898 7.0857558e-13 6.6196646e-13          0.1 0.0090105989     23.45983  0.029881046 
number of iterations: 1960 
   21300    61.152561     7796          700         7096 7.1701017e-13 6.8192639e-13          0.1 0.0090106856    23.532875  0.029880861 
number of iterations: 1991 
   21400    61.423302     8003          714         7289 7.2651207e-13 7.0212113e-13          0.1 0.0090108052    23.598874  0.029880621 
number of iterations: 1972 
   21500    61.692752     8241          726         7515 7.361399e-13 7.2311008e-13          0.1 0.0090109139    23.657376  0.029880397 
number of iterations: 1935 
   21600    61.990088     8486          738         7748 7.4589531e-13 7.4496929e-13          0.1  0.009011015    23.707881  0.029880186 
number of iterations: 1993 
   21700     62.26543     8743          748         7995   7.5578e-13 7.6734849e-13          0.1 0.0090111261    23.750136  0.029879955 
number of iterations: 2000 
   21800    62.612751     9016          755         8261 7.6579568e-13 7.9055971e-13          0.1 0.0090112434    23.783677  0.029879712 
number of iterations: 2020 
   21900    62.902185     9287          768         8519 7.7594409e-13 8.1436609e-13          0.1 0.0090113706    23.808205  0.029879454 
number of iterations: 2001 
   22000    63.190094     9551          774         8777 7.8622699e-13 8.3864429e-13          0.1  0.009011503    23.823516  0.029879185 
number of iterations: 2039 
   22100    63.510225     9830          780         9050 7.9664616e-13 8.6410974e-13          0.1 0.0090116382    23.828906  0.029878909 
number of iterations: 2026 
   22200     63.78289    10099          792         9307 8.072034e-13 8.9013834e-13          0.1 0.0090117665    23.824118  0.029878643 
number of iterations: 2040 
   22300    64.103207    10389          803         9586 8.1790055e-13 9.1680431e-13          0.1 0.0090118879    23.808842  0.029878388 
number of iterations: 2012 
   22400    64.371194    10665          815         9850 8.2873946e-13 9.4454428e-13          0.1 0.0090120143    23.782474  0.029878124 
number of iterations: 2041 
   22500    64.667876    10973          829        10144  8.39722e-13 9.7294695e-13          0.1   0.00901213    23.744702  0.029877875 
number of iterations: 2030 
   22600    64.967793    11278          839        10439 8.5085009e-13 1.0023656e-12          0.1 0.0090122733    23.694974  0.029877578 
number of iterations: 2050 
   22700    65.286922    11614          847        10767 8.6212564e-13 1.0323198e-12          0.1 0.0090123918    23.633083  0.029877321 
number of iterations: 2050 
   22800    65.591258    11958          859        11099 8.7355062e-13 1.0633248e-12          0.1 0.0090125343    23.558467  0.029877023 
number of iterations: 2043 
   22900    65.919758    12304          867        11437  8.85127e-13 1.095187e-12          0.1 0.0090126596     23.47071  0.029876751 
number of iterations: 2058 
   23000    66.223391    12638          879        11759 8.9685679e-13 1.1278939e-12          0.1 0.0090127822    23.369416  0.029876483 
number of iterations: 2005 
   23100    66.562268    13011          888        12123 9.0728786e-13 1.1615385e-12          0.1 0.0090128933    23.253012  0.029876231 
number of iterations: 1984 
   23200    66.877476    13357          898        12459 9.1931133e-13 1.1960517e-12          0.1 0.0090130075    23.122215  0.029875975 
number of iterations: 2060 
   23300    67.199186    13739          913        12826 9.3149413e-13 1.2317004e-12          0.1  0.009013162    22.976462   0.02987565 
number of iterations: 1972 
   23400      67.5178    14129          927        13202 9.4383838e-13 1.2685498e-12          0.1 0.0090132826    22.815155  0.029875378 
number of iterations: 2006 
   23500    67.868871    14558          953        13605 9.5634622e-13 1.3064815e-12          0.1 0.0090133893    22.637797  0.029875126 
number of iterations: 2023 
   23600    68.193877    14979          966        14013 9.6901981e-13 1.3456418e-12          0.1 0.0090135333    22.443807  0.029874811 
number of iterations: 2063 
   23700    68.524056    15418          977        14441 9.8186135e-13 1.385409e-12          0.1 0.0090136785    22.233057  0.029874493 
number of iterations: 2078 
   23800    68.847782    15851          989        14862 9.9487306e-13 1.4266384e-12          0.1 0.0090138216    22.004841  0.029874175 
number of iterations: 2045 
   23900    69.237482    16331         1001        15330 1.0080572e-12 1.4688635e-12          0.1 0.0090139715    21.758805  0.029873847 
number of iterations: 2090 
   24000    69.616321    16812         1015        15797 1.0214161e-12 1.5121955e-12          0.1 0.0090141301    21.494541    0.0298735 
number of iterations: 2048 
   24100     69.95889    17314         1030        16284 1.034952e-12 1.5566927e-12          0.1 0.0090142643    21.211631  0.029873194 
number of iterations: 2084 
   24200    70.309712    17798         1039        16759 1.0486672e-12 1.6026222e-12          0.1 0.0090144293    20.909505  0.029872836 
number of iterations: 2033 
   24300    70.714221    18290         1049        17241 1.0610973e-12 1.6497481e-12          0.1 0.0090145838    20.586665  0.029872493 
number of iterations: 2108 
   24400    71.077309    18792         1064        17728 1.075159e-12 1.6979479e-12          0.1 0.0090147468    20.243983  0.029872135 
number of iterations: 2053 
   24500    71.466206    19334         1074        18260 1.0894071e-12 1.7472935e-12          0.1 0.0090148627    19.881211  0.029871854 
number of iterations: 2014 
   24600    71.840245    19926         1093        18833 1.103844e-12 1.7980859e-12          0.1 0.0090149924    19.497938  0.029871548 
number of iterations: 2125 
   24700    72.227442    20485         1103        19382 1.1172506e-12 1.850011e-12          0.1 0.0090151658    19.093094  0.029871167 
number of iterations: 2062 
   24800    72.630871    21015         1112        19903 1.1320565e-12 1.9033433e-12          0.1 0.0090153229    18.667353  0.029870815 
number of iterations: 2070 
   24900    73.011521    21595         1127        20468 1.1470586e-12 1.9579847e-12          0.1 0.0090154996    18.220597   0.02987043 
number of iterations: 2075 
   25000    73.434894    22206         1140        21066 1.1622595e-12 2.0140186e-12          0.1 0.0090156405    17.752734  0.029870102 
number of iterations: 2119 
   25100    73.857636    22822         1150        21672 1.1766135e-12 2.0708886e-12          0.1 0.0090158009    17.263339  0.029869741 
number of iterations: 2054 
   25200    74.306841    23425         1169        22256 1.1914225e-12 2.1299297e-12          0.1 0.0090159458    16.752197  0.029869405 
number of iterations: 2092 
   25300    74.914635    24060         1179        22881 1.2072113e-12  2.19028e-12          0.1 0.0090161087    16.220201  0.029869041 
number of iterations: 2064 
   25400    75.350543    24729         1205        23524 1.2221659e-12 2.2519669e-12          0.1 0.0090162696    15.666969  0.029868682 
number of iterations: 2077 
   25500    75.795514    25424         1223        24201 1.2383621e-12 2.3143534e-12          0.1 0.0090164631    15.094302  0.029868271 
number of iterations: 2133 
   25600    76.270482    26122         1235        24887 1.254773e-12 2.3779007e-12          0.1 0.0090166889    14.503065  0.029867806 
number of iterations: 2138 
   25700    76.736423    26781         1255        25526 1.2714013e-12 2.4419109e-12          0.1 0.0090169269     13.89478  0.029867325 
number of iterations: 2072 
   25800    77.200736    27472         1268        26204  1.28825e-12 2.5078624e-12          0.1 0.0090170955    13.270235   0.02986696 
number of iterations: 2119 
   25900    77.709142    28214         1287        26927 1.3053219e-12 2.573867e-12          0.1 0.0090173015    12.631709  0.029866537 
number of iterations: 2135 
   26000    78.221109    28997         1308        27689 1.3226201e-12 2.6411383e-12          0.1   0.00901753    11.980986  0.029866084 
number of iterations: 2129 
   26100    78.714651    29698         1325        28373 1.3390634e-12 2.709541e-12          0.1 0.0090177196    11.319451  0.029865701 
number of iterations: 2140 
   26200     79.20096    30452         1345        29107 1.3568087e-12 2.7781572e-12          0.1 0.0090179649    10.651127  0.029865234 
number of iterations: 2106 
   26300    79.720793    31212         1367        29845 1.3747892e-12 2.8480784e-12          0.1 0.0090182114    9.9789307  0.029864772 
number of iterations: 2175 
   26400    80.282522    31977         1383        30594 1.393008e-12 2.9175818e-12          0.1 0.0090184497    9.3072958  0.029864336 
number of iterations: 2134 
   26500    80.836822    32763         1399        31364 1.4105922e-12 2.9871275e-12          0.1 0.0090187069    8.6401596  0.029863882 
number of iterations: 2110 
   26600     81.37054    33544         1417        32127 1.4285572e-12 3.0569181e-12          0.1 0.0090189817    7.9826534  0.029863411 
number of iterations: 2164 
   26700    81.932039    34338         1436        32902 1.4474885e-12 3.1262167e-12          0.1 0.0090192866    7.3412117  0.029862905 
number of iterations: 2201 
   26800    82.533131    35067         1449        33618 1.4666707e-12 3.1944116e-12          0.1 0.0090196202    6.7223948  0.029862369 
number of iterations: 2210 
   26900    83.173741    35866         1468        34398 1.485056e-12 3.2623123e-12          0.1 0.0090199252    6.1316916  0.029861896 
number of iterations: 2354 
   27000    83.794752    36635         1484        35151 1.504736e-12 3.3287093e-12          0.1 0.0090202791    5.5769255  0.029861362 
number of iterations: 2502 
   27100    84.486202    37356         1500        35856 1.5246768e-12 3.3928769e-12          0.1  0.009020638     5.064992  0.029860838 
number of iterations: 2655 
   27200    85.327093    38042         1522        36520 1.5435764e-12 3.4555585e-12          0.1 0.0090210492    4.6004769  0.029860242 
number of iterations: 2815 
   27300    86.016956    38750         1548        37202 1.564032e-12 3.5164171e-12          0.1 0.0090214709     4.188893   0.02985964 
number of iterations: 2971 
   27400    86.701091    39423         1561        37862 1.581448e-12 3.5762178e-12          0.1 0.0090218152    3.8298502  0.029859169 
number of iterations: 3125 
   27500    87.418675    40069         1572        38497 1.6016512e-12 3.6336154e-12          0.1  0.009022215    3.5263652  0.029858611 
number of iterations: 3266 
   27600    88.166301    40728         1593        39135 1.6228763e-12 3.6909251e-12          0.1 0.0090226399    3.2763979  0.029858003 
number of iterations: 3398 
   27700    88.941495    41339         1614        39725 1.6443827e-12 3.7463556e-12          0.1 0.0090230528     3.076047  0.029857402 
number of iterations: 3519 
   27800    89.753508    41952         1633        40319 1.6661741e-12 3.800465e-12          0.1 0.0090234624    2.9196101  0.029856793 
number of iterations: 3627 
   27900    90.537618    42584         1659        40925 1.6882543e-12 3.8548958e-12          0.1 0.0090238628    2.7999709  0.029856178 
number of iterations: 3719 
   28000    91.350898    43174         1686        41488 1.7106271e-12 3.9087238e-12          0.1 0.0090242324     2.710459  0.029855597 
number of iterations: 3799 
   28100    92.171469    43765         1711        42054 1.7332963e-12 3.9619683e-12          0.1  0.009024607    2.6449008  0.029854988 
number of iterations: 3870 
   28200    93.149145    44377         1731        42646 1.756266e-12 4.0149653e-12          0.1   0.00902498    2.5978287  0.029854367 
number of iterations: 3928 
   28300    93.997876    44909         1751        43158 1.7795401e-12 4.0684171e-12          0.1 0.0090253046    2.5645209  0.029853813 
number of iterations: 3985 
   28400    94.861971    45483         1772        43711 1.8022164e-12 4.1233282e-12          0.1 0.0090256361    2.5402448  0.029853235 
number of iterations: 4032 
   28500    95.716887    46076         1797        44279 1.8239221e-12 4.1784606e-12          0.1 0.0090259421    2.5216413  0.029852693 
number of iterations: 4080 
   28600    96.565624    46664         1815        44849 1.8457932e-12 4.2339077e-12          0.1  0.009026244    2.5071292  0.029852153 
number of iterations: 4123 
   28700    97.526305    47235         1834        45401 1.8695115e-12 4.2888977e-12          0.1 0.0090265255    2.4971055  0.029851643 
number of iterations: 4157 
   28800    98.419309    47884         1857        46027 1.8942863e-12 4.3454883e-12          0.1 0.0090268971     2.490455  0.029850979 
number of iterations: 4197 
   28900    99.332012    48522         1880        46642 1.9182163e-12 4.4025725e-12          0.1  0.009027261    2.4852867  0.029850323 
number of iterations: 4210 
   29000    100.24346    49199         1906        47293 1.9424218e-12 4.4601968e-12          0.1  0.009027619    2.4811679  0.029849675 
number of iterations: 4255 
   29100    101.14747    49859         1928        47931 1.9666931e-12 4.5191334e-12          0.1 0.0090279463    2.4773915  0.029849078 
number of iterations: 4292 
   29200    102.11435    50538         1959        48579 1.9927557e-12 4.5787272e-12          0.1 0.0090282983    2.4750321  0.029848437 
number of iterations: 4334 
   29300    103.07707    51224         1985        49239 2.0182213e-12 4.6385306e-12          0.1 0.0090286768    2.4730747  0.029847753 
number of iterations: 4370 
   29400    104.04805    51903         2013        49890 2.0428007e-12 4.6992841e-12          0.1 0.0090290306    2.4703888  0.029847107 
number of iterations: 4405 
   29500    105.00189    52584         2042        50542 2.0698718e-12 4.7612932e-12          0.1 0.0090294219    2.4687702  0.029846401 
number of iterations: 4438 
   29600    105.98299    53282         2066        51216 2.0951973e-12 4.8223694e-12          0.1 0.0090297855    2.4667997  0.029845738 
number of iterations: 4454 
   29700     107.0569    53957         2102        51855 2.122087e-12 4.884557e-12          0.1  0.009030178    2.4654622  0.029845028 
number of iterations: 4489 
   29800    108.05468    54689         2129        52560 2.1489932e-12 4.9478154e-12          0.1 0.0090305914    2.4641844   0.02984428 
number of iterations: 4520 
   29900    109.06652    55403         2151        53252 2.1757127e-12 5.0122436e-12          0.1 0.0090309981    2.4624179  0.029843542 
number of iterations: 4562 
   30000    110.20807    56098         2175        53923 2.2033062e-12 5.0772595e-12          0.1 0.0090313576    2.4608583  0.029842882 
number of iterations: 4595 
   30100    111.23521    56848         2207        54641 2.2325044e-12 5.143902e-12          0.1  0.009031768     2.460129  0.029842138 
number of iterations: 4632 
   30200    112.31067    57594         2246        55348 2.2611259e-12 5.2106627e-12          0.1 0.0090322191    2.4594146  0.029841323 
number of iterations: 4674 
   30300    113.53627    58330         2284        56046 2.2910903e-12 5.2782374e-12          0.1   0.00903266    2.4594844  0.029840524 
number of iterations: 4696 
   30400    114.59575    59108         2309        56799 2.3199827e-12 5.3475462e-12          0.1  0.009033017    2.4585981  0.029839864 
number of iterations: 4724 
   30500     115.6717    59878         2336        57542 2.350727e-12 5.4167773e-12          0.1 0.0090334815    2.4586233  0.029839026 
number of iterations: 4763 
   30600    116.73607    60608         2373        58235 2.3807258e-12 5.4865259e-12          0.1 0.0090338771    2.4584234    0.0298383 
number of iterations: 4800 
   30700    117.81414    61389         2402        58987 2.4122751e-12 5.5565335e-12          0.1 0.0090342926    2.4592097  0.029837541 
number of iterations: 4838 
   30800    118.91679    62169         2416        59753 2.4401232e-12 5.6287277e-12          0.1 0.0090347115    2.4569461  0.029836773 
number of iterations: 4876 
   30900    120.06008    63004         2446        60558 2.4682295e-12 5.7006897e-12          0.1 0.0090350583    2.4532906  0.029836131 
number of iterations: 4916 
   31000    121.19696    63798         2474        61324 2.4983031e-12 5.7739501e-12          0.1 0.0090354489    2.4500009  0.029835415 
number of iterations: 4941 
   31100    122.30983    64604         2496        62108 2.5301851e-12 5.8486138e-12          0.1 0.0090358584    2.4478763  0.029834665 
number of iterations: 4975 
   31200    123.47981    65410         2523        62887 2.5616868e-12 5.9241784e-12          0.1 0.0090362522    2.4458085   0.02983394 
number of iterations: 5008 
   31300    124.63593    66258         2555        63703 2.5924139e-12 6.0006874e-12          0.1  0.009036728    2.4428777  0.029833077 
number of iterations: 5042 
   31400    125.80967    67060         2586        64474 2.6225959e-12 6.0769314e-12          0.1 0.0090371469    2.4392009  0.029832311 
number of iterations: 5088 
   31500    127.01765    67944         2615        65329 2.6566084e-12 6.1548704e-12          0.1 0.0090376317    2.4375841  0.029831436 
number of iterations: 5064 
   31600    128.21503    68821         2635        66186 2.6870815e-12 6.2341449e-12          0.1 0.0090379714     2.433842  0.029830796 
number of iterations: 5094 
   31700    129.40353    69729         2673        67056 2.7205253e-12 6.3130413e-12          0.1 0.0090384994    2.4315128  0.029829848 
number of iterations: 5127 
   31800    130.64602    70625         2705        67920 2.7520739e-12 6.3931925e-12          0.1 0.0090389207    2.4280313  0.029829074 
number of iterations: 5164 
   31900    131.86294    71560         2739        68821 2.7872009e-12 6.4743683e-12          0.1 0.0090393906     2.426467  0.029828218 
number of iterations: 5194 
   32000    133.13784    72410         2771        69639 2.8241367e-12 6.5556596e-12          0.1 0.0090399036    2.4272044  0.029827287 
number of iterations: 5234 
   32100    134.57841    73319         2826        70493 2.861562e-12 6.6388309e-12          0.1 0.0090404793    2.4287805  0.029826248 
number of iterations: 5261 
   32200    135.81536    74240         2856        71384 2.8968941e-12 6.7229175e-12          0.1   0.00904095    2.4288038  0.029825382 
number of iterations: 5289 
   32300    137.06871    75171         2882        72289 2.9332583e-12 6.8085846e-12          0.1 0.0090414723    2.4283788  0.029824433 
number of iterations: 5323 
   32400    138.34581    76113         2925        73188 2.9700525e-12 6.8950571e-12          0.1 0.0090419608    2.4278194  0.029823539 
number of iterations: 5351 
   32500    139.68376    77059         2953        74106 3.0048857e-12 6.9825136e-12          0.1 0.0090424274    2.4253608  0.029822679 
number of iterations: 5379 
   32600    141.00482    77990         2990        75000 3.0427518e-12 7.0683512e-12          0.1 0.0090429126    2.4249858  0.029821794 
number of iterations: 5420 
   32700    142.31285    78997         3022        75975 3.0792165e-12 7.1570325e-12          0.1 0.0090433557    2.4234877  0.029820973 
number of iterations: 5438 
   32800    143.68954    80032         3057        76975 3.1150558e-12 7.2474647e-12          0.1 0.0090439103    2.4204551  0.029819967 
number of iterations: 5466 
   32900    145.03724    80992         3099        77893 3.1529643e-12 7.3383612e-12          0.1 0.0090444628    2.4182742  0.029818966 
number of iterations: 5496 
   33000    146.41702    81990         3130        78860  3.18959e-12 7.428671e-12          0.1 0.0090449897     2.415684  0.029818007 
number of iterations: 5526 
   33100    147.84148    83022         3169        79853 3.2309729e-12 7.5219351e-12          0.1 0.0090455755     2.415669  0.029816947 
number of iterations: 5555 
   33200    149.23306    84086         3228        80858 3.2723265e-12 7.6158676e-12          0.1 0.0090461786    2.4164273  0.029815854 
number of iterations: 5569 
   33300    150.64303    85128         3267        81861 3.3086025e-12 7.7107257e-12          0.1 0.0090465627    2.4132296  0.029815124 
number of iterations: 5582 
   33400    152.05275    86194         3303        82891 3.3493764e-12 7.8086729e-12          0.1 0.0090470682    2.4110298  0.029814194 
number of iterations: 5587 
   33500    153.52922    87229         3329        83900 3.3855106e-12 7.9053472e-12          0.1  0.009047598    2.4060617  0.029813226 
number of iterations: 5603 
   33600    154.95428    88328         3376        84952 3.4255065e-12 8.0030152e-12          0.1 0.0090480718    2.4028417  0.029812355 
number of iterations: 5613 
   33700    156.49303    89356         3415        85941 3.4641625e-12 8.1008937e-12          0.1 0.0090485769    2.3991792  0.029811429 
number of iterations: 5649 
   33800    157.94283    90455         3454        87001 3.5040787e-12 8.1996195e-12          0.1 0.0090490539    2.3961255  0.029810546 
number of iterations: 5674 
   33900    159.44377    91504         3489        88015 3.5410919e-12 8.3000144e-12          0.1 0.0090495626    2.3905297  0.029809607 
number of iterations: 5695 
   34000    160.90654    92651         3536        89115 3.5816838e-12 8.4015945e-12          0.1 0.0090500509    2.3865746   0.02980871 
number of iterations: 5733 
   34100    162.39788    93800         3578        90222 3.6254905e-12 8.5028623e-12          0.1 0.0090506442    2.3858074  0.029807633 
number of iterations: 5749 
   34200    163.92125    94962         3628        91334 3.6636828e-12 8.6068599e-12          0.1 0.0090510633    2.3807834  0.029806837 
number of iterations: 5787 
   34300    165.47368    96147         3671        92476 3.7033428e-12 8.7116643e-12          0.1 0.0090516487    2.3754428  0.029805773 
number of iterations: 5851 
   34400    167.00864    97272         3712        93560 3.7488931e-12 8.8181756e-12          0.1  0.009052393    2.3741259  0.029804442 
number of iterations: 5939 
   34500    168.57411    98494         3765        94729 3.7947271e-12 8.9228107e-12          0.1 0.0090530447    2.3748109  0.029803262 
number of iterations: 6031 
   34600    170.24391    99671         3791        95880 3.8369967e-12 9.0298436e-12          0.1 0.0090535979    2.3724716  0.029802237 
number of iterations: 6111 
   34700    171.84411   100856         3838        97018 3.8799773e-12 9.1382367e-12          0.1 0.0090541656     2.369476  0.029801197 
number of iterations: 6178 
   34800    173.52459   102042         3879        98163 3.9237509e-12 9.247686e-12          0.1 0.0090546893    2.3666409  0.029800229 
number of iterations: 6256 
   34900    175.19928   103199         3919        99280 3.9679951e-12 9.3583215e-12          0.1 0.0090552406    2.3638697  0.029799213 
number of iterations: 6327 
   35000    176.87391   104461         3959       100502 4.0146533e-12 9.4712651e-12          0.1  0.009055865    2.3622785  0.029798072 
Loop time of 176.874 on 32 procs for 35000 steps with 104461 atoms

Performance: 170969211.483 tau/day, 197.881 timesteps/s
93.1% CPU use with 32 MPI tasks x no OpenMP threads

MPI task timing breakdown:
Section |  min time  |  avg time  |  max time  |%varavg| %total
---------------------------------------------------------------
Pair    | 0.10132    | 5.3219     | 14.115     | 160.5 |  3.01
Neigh   | 0.037026   | 1.7013     | 4.0449     |  79.5 |  0.96
Comm    | 1.2679     | 1.706      | 2.4377     |  24.5 |  0.96
Output  | 51.928     | 51.928     | 51.936     |   0.0 | 29.36
Modify  | 102.82     | 103.34     | 103.95     |   3.0 | 58.42
Other   |            | 12.88      |            |       |  7.28

Nlocal:    3264.41 ave 6154 max 213 min
Histogram: 1 2 4 4 2 5 6 5 2 1
Nghost:    1954.88 ave 3468 max 296 min
Histogram: 2 0 3 4 5 6 5 3 3 1
Neighs:    28044.9 ave 60033 max 783 min
Histogram: 1 3 6 3 5 6 4 2 1 1

Total # of neighbors = 897436
Ave neighs/atom = 8.59111
Neighbor list builds = 807
Dangerous builds = 0
#shell cd ..
#clear
#next reps
#jump SELF
Total wall time: 0:02:57
