 NUFEB Simulation

     50 atoms 
     2 atom types 
     4 nutrients 

  0.0e-4   1.00e-04  xlo xhi 
  0.0e-4   1.00e-04  ylo yhi 
  0.0e-4   5.00e-05  zlo zhi 

 Atoms 

     1 1 1.38e-06  370 1.42e-05 5.47e-05 4.81e-05 1.38e-06 
     2 1 1.39e-06  370 6.40e-05 3.00e-05 1.94e-05 1.39e-06 
     3 1 1.60e-06  370 3.56e-06 8.45e-06 3.33e-05 1.60e-06 
     4 1 1.86e-06  370 8.06e-05 4.80e-05 4.22e-05 1.86e-06 
     5 1 1.65e-06  370 2.27e-06 6.87e-05 1.67e-05 1.65e-06 
     6 1 1.47e-06  370 2.80e-05 4.34e-05 9.59e-06 1.47e-06 
     7 1 1.58e-06  370 2.18e-05 7.49e-05 1.17e-05 1.58e-06 
     8 1 1.42e-06  370 1.68e-06 5.04e-05 2.55e-05 1.42e-06 
     9 1 1.66e-06  370 5.30e-05 4.46e-05 2.03e-05 1.66e-06 
     10 1 1.86e-06  370 1.91e-05 2.98e-05 2.24e-06 1.86e-06 
     11 1 1.66e-06  370 5.72e-05 1.27e-05 1.29e-05 1.66e-06 
     12 1 1.51e-06  370 9.51e-05 9.12e-05 3.11e-05 1.51e-06 
     13 1 1.91e-06  370 1.07e-05 7.71e-06 6.81e-06 1.91e-06 
     14 1 1.79e-06  370 7.19e-05 6.69e-05 2.23e-05 1.79e-06 
     15 1 1.74e-06  370 9.75e-05 3.40e-06 2.83e-05 1.74e-06 
     16 1 1.48e-06  370 4.63e-06 1.78e-05 2.83e-05 1.48e-06 
     17 1 1.85e-06  370 1.74e-05 7.80e-05 4.01e-05 1.85e-06 
     18 1 1.68e-06  370 2.74e-05 5.23e-05 1.64e-05 1.68e-06 
     19 1 1.44e-06  370 9.58e-05 5.64e-05 2.67e-05 1.44e-06 
     20 1 1.72e-06  370 5.62e-05 1.65e-05 9.76e-06 1.72e-06 
     21 1 1.76e-06  370 4.14e-05 6.75e-05 2.72e-05 1.76e-06 
     22 1 1.70e-06  370 4.92e-05 3.42e-06 1.31e-05 1.70e-06 
     23 1 1.92e-06  370 1.04e-05 8.15e-05 2.96e-05 1.92e-06 
     24 1 1.72e-06  370 3.82e-05 1.51e-05 3.46e-05 1.72e-06 
     25 1 1.86e-06  370 1.25e-05 2.42e-05 2.46e-05 1.86e-06 
     26 1 1.40e-06  370 8.67e-05 7.05e-05 5.41e-06 1.40e-06 
     27 1 1.56e-06  370 4.61e-05 9.05e-05 1.64e-06 1.56e-06 
     28 1 1.49e-06  370 1.40e-05 2.70e-05 4.75e-05 1.49e-06 
     29 1 1.88e-06  370 1.72e-05 5.07e-05 3.67e-06 1.88e-06 
     30 1 1.71e-06  370 8.11e-06 4.10e-05 1.88e-05 1.71e-06 
     31 1 1.65e-06  370 6.29e-05 2.32e-05 9.14e-06 1.65e-06 
     32 1 1.66e-06  370 2.33e-06 3.78e-05 3.36e-05 1.66e-06 
     33 1 1.58e-06  370 3.54e-05 3.68e-05 2.67e-05 1.58e-06 
     34 1 1.53e-06  370 3.48e-05 5.20e-05 3.16e-05 1.53e-06 
     35 1 1.55e-06  370 9.58e-05 9.04e-05 2.81e-05 1.55e-06 
     36 1 1.40e-06  370 6.14e-05 2.48e-05 3.62e-06 1.40e-06 
     37 1 1.85e-06  370 4.87e-06 7.33e-05 8.66e-06 1.85e-06 
     38 1 1.66e-06  370 1.45e-05 2.35e-05 1.39e-05 1.66e-06 
     39 1 1.70e-06  370 7.64e-05 6.11e-05 3.07e-05 1.70e-06 
     40 1 1.93e-06  370 1.16e-05 2.88e-05 3.15e-05 1.93e-06 
     41 1 1.77e-06  370 4.58e-05 1.72e-05 1.64e-05 1.77e-06 
     42 1 1.49e-06  370 6.65e-05 7.07e-05 3.51e-05 1.49e-06 
     43 1 1.72e-06  370 8.18e-05 9.12e-05 3.37e-05 1.72e-06 
     44 1 1.92e-06  370 5.66e-05 6.66e-05 3.77e-05 1.92e-06 
     45 1 1.49e-06  370 9.79e-05 5.52e-05 2.62e-05 1.49e-06 
     46 1 1.52e-06  370 3.81e-05 4.84e-05 2.27e-05 1.52e-06 
     47 1 1.48e-06  370 4.23e-05 8.30e-05 8.79e-06 1.48e-06 
     48 1 1.53e-06  370 5.05e-05 8.68e-05 2.14e-05 1.53e-06 
     49 1 1.57e-06  370 6.79e-05 6.17e-05 1.76e-05 1.57e-06 
     50 1 1.73e-06  370 7.78e-05 6.28e-05 4.77e-05 1.73e-06 

 Nutrients 

     1 sub g nn nn nn 1.00e-01 1.00e-01 
     2 o2 l nn nn nd 9.00e-03 9.00e-03 
     3 suc l nn nn nn 3.42e-20 3.42e-20 
     4 co2 l nn nn nd 2.99e-02 2.99e-02 

 Type Name 

     1 cyano  
     2 ecw  

 Diffusion Coeffs 

     sub 0 
     o2 2.3e-09 
     suc 5.2e-10 
     co2 1.9e-09 

 Growth Rate 

     cyano 2.047e-05 
     ecw 6.71e-05 

 Ks 

     cyano 0.00035 0.0002 0.01 0.000138 
     ecw 0 0.001 3.6 0.05 

 Yield 

     cyano 0.55 
     ecw 0.43 

 Maintenance 

     cyano 0 
     ecw 9.5e-07 

 Decay 

     cyano 0 
     ecw 0 



