ITEM: TIMESTEP
0
ITEM: NUMBER OF ATOMS
50
ITEM: BOX BOUNDS ff ff ff
0.0000000000000000e+00 1.0000000000000000e-04
0.0000000000000000e+00 1.0000000000000000e-04
0.0000000000000000e+00 5.0000000000000002e-05
ITEM: ATOMS id type diameter x y z 
10 1 1.86e-06 1.91e-05 2.98e-05 2.24e-06 
13 1 1.91e-06 1.07e-05 7.71e-06 6.81e-06 
6 1 1.47e-06 2.8e-05 4.34e-05 9.59e-06 
22 1 1.7e-06 4.92e-05 3.42e-06 1.31e-05 
38 1 1.66e-06 1.45e-05 2.35e-05 1.39e-05 
41 1 1.77e-06 4.58e-05 1.72e-05 1.64e-05 
30 1 1.71e-06 8.11e-06 4.1e-05 1.88e-05 
46 1 1.52e-06 3.81e-05 4.84e-05 2.27e-05 
25 1 1.86e-06 1.25e-05 2.42e-05 2.46e-05 
33 1 1.58e-06 3.54e-05 3.68e-05 2.67e-05 
16 1 1.48e-06 4.63e-06 1.78e-05 2.83e-05 
40 1 1.93e-06 1.16e-05 2.88e-05 3.15e-05 
3 1 1.6e-06 3.56e-06 8.45e-06 3.33e-05 
32 1 1.66e-06 2.33e-06 3.78e-05 3.36e-05 
24 1 1.72e-06 3.82e-05 1.51e-05 3.46e-05 
28 1 1.49e-06 1.4e-05 2.7e-05 4.75e-05 
27 1 1.56e-06 4.61e-05 9.05e-05 1.64e-06 
29 1 1.88e-06 1.72e-05 5.07e-05 3.67e-06 
37 1 1.85e-06 4.87e-06 7.33e-05 8.66e-06 
47 1 1.48e-06 4.23e-05 8.3e-05 8.79e-06 
7 1 1.58e-06 2.18e-05 7.49e-05 1.17e-05 
18 1 1.68e-06 2.74e-05 5.23e-05 1.64e-05 
5 1 1.65e-06 2.27e-06 6.87e-05 1.67e-05 
8 1 1.42e-06 1.68e-06 5.04e-05 2.55e-05 
21 1 1.76e-06 4.14e-05 6.75e-05 2.72e-05 
23 1 1.92e-06 1.04e-05 8.15e-05 2.96e-05 
34 1 1.53e-06 3.48e-05 5.2e-05 3.16e-05 
17 1 1.85e-06 1.74e-05 7.8e-05 4.01e-05 
1 1 1.38e-06 1.42e-05 5.47e-05 4.81e-05 
36 1 1.4e-06 6.14e-05 2.48e-05 3.62e-06 
31 1 1.65e-06 6.29e-05 2.32e-05 9.14e-06 
20 1 1.72e-06 5.62e-05 1.65e-05 9.76e-06 
11 1 1.66e-06 5.72e-05 1.27e-05 1.29e-05 
2 1 1.39e-06 6.4e-05 3e-05 1.94e-05 
9 1 1.66e-06 5.3e-05 4.46e-05 2.03e-05 
15 1 1.74e-06 9.75e-05 3.4e-06 2.83e-05 
4 1 1.86e-06 8.06e-05 4.8e-05 4.22e-05 
26 1 1.4e-06 8.67e-05 7.05e-05 5.41e-06 
49 1 1.57e-06 6.79e-05 6.17e-05 1.76e-05 
48 1 1.53e-06 5.05e-05 8.68e-05 2.14e-05 
14 1 1.79e-06 7.19e-05 6.69e-05 2.23e-05 
45 1 1.49e-06 9.79e-05 5.52e-05 2.62e-05 
19 1 1.44e-06 9.58e-05 5.64e-05 2.67e-05 
35 1 1.55e-06 9.58e-05 9.04e-05 2.81e-05 
39 1 1.7e-06 7.64e-05 6.11e-05 3.07e-05 
12 1 1.51e-06 9.51e-05 9.12e-05 3.11e-05 
43 1 1.72e-06 8.18e-05 9.12e-05 3.37e-05 
42 1 1.49e-06 6.65e-05 7.07e-05 3.51e-05 
44 1 1.92e-06 5.66e-05 6.66e-05 3.77e-05 
50 1 1.73e-06 7.78e-05 6.28e-05 4.77e-05 
ITEM: TIMESTEP
100
ITEM: NUMBER OF ATOMS
50
ITEM: BOX BOUNDS ff ff ff
0.0000000000000000e+00 1.0000000000000000e-04
0.0000000000000000e+00 1.0000000000000000e-04
0.0000000000000000e+00 5.0000000000000002e-05
ITEM: ATOMS id type diameter x y z 
10 1 1.87126e-06 1.91e-05 2.98e-05 2.24e-06 
13 1 1.92156e-06 1.07e-05 7.71e-06 6.81e-06 
6 1 1.4789e-06 2.8e-05 4.34e-05 9.59e-06 
22 1 1.71029e-06 4.92e-05 3.42e-06 1.31e-05 
38 1 1.67005e-06 1.45e-05 2.35e-05 1.39e-05 
41 1 1.78072e-06 4.58e-05 1.72e-05 1.64e-05 
30 1 1.72035e-06 8.11e-06 4.1e-05 1.88e-05 
46 1 1.5292e-06 3.81e-05 4.84e-05 2.27e-05 
25 1 1.87126e-06 1.25e-05 2.42e-05 2.46e-05 
33 1 1.58957e-06 3.54e-05 3.68e-05 2.67e-05 
16 1 1.48896e-06 4.63e-06 1.78e-05 2.83e-05 
40 1 1.94169e-06 1.16e-05 2.88e-05 3.15e-05 
3 1 1.60969e-06 3.56e-06 8.45e-06 3.33e-05 
32 1 1.67005e-06 2.33e-06 3.78e-05 3.36e-05 
24 1 1.73041e-06 3.82e-05 1.51e-05 3.46e-05 
28 1 1.49902e-06 1.4e-05 2.7e-05 4.75e-05 
27 1 1.56945e-06 4.61e-05 9.05e-05 1.64e-06 
29 1 1.89138e-06 1.72e-05 5.07e-05 3.67e-06 
37 1 1.8612e-06 4.87e-06 7.33e-05 8.66e-06 
47 1 1.48896e-06 4.23e-05 8.3e-05 8.79e-06 
7 1 1.58957e-06 2.18e-05 7.49e-05 1.17e-05 
18 1 1.69017e-06 2.74e-05 5.23e-05 1.64e-05 
5 1 1.65999e-06 2.27e-06 6.87e-05 1.67e-05 
8 1 1.4286e-06 1.68e-06 5.04e-05 2.55e-05 
21 1 1.77066e-06 4.14e-05 6.75e-05 2.72e-05 
23 1 1.93163e-06 1.04e-05 8.15e-05 2.96e-05 
34 1 1.53926e-06 3.48e-05 5.2e-05 3.16e-05 
17 1 1.8612e-06 1.74e-05 7.8e-05 4.01e-05 
1 1 1.38836e-06 1.42e-05 5.47e-05 4.81e-05 
36 1 1.40848e-06 6.14e-05 2.48e-05 3.62e-06 
31 1 1.65999e-06 6.29e-05 2.32e-05 9.14e-06 
20 1 1.73041e-06 5.62e-05 1.65e-05 9.76e-06 
11 1 1.67005e-06 5.72e-05 1.27e-05 1.29e-05 
2 1 1.39842e-06 6.4e-05 3e-05 1.94e-05 
9 1 1.67005e-06 5.3e-05 4.46e-05 2.03e-05 
15 1 1.75054e-06 9.75e-05 3.4e-06 2.83e-05 
4 1 1.87126e-06 8.06e-05 4.8e-05 4.22e-05 
26 1 1.40848e-06 8.67e-05 7.05e-05 5.41e-06 
49 1 1.57951e-06 6.79e-05 6.17e-05 1.76e-05 
48 1 1.53926e-06 5.05e-05 8.68e-05 2.14e-05 
14 1 1.80084e-06 7.19e-05 6.69e-05 2.23e-05 
45 1 1.49902e-06 9.79e-05 5.52e-05 2.62e-05 
19 1 1.44872e-06 9.58e-05 5.64e-05 2.67e-05 
35 1 1.55938e-06 9.58e-05 9.04e-05 2.81e-05 
39 1 1.71029e-06 7.64e-05 6.11e-05 3.07e-05 
12 1 1.51914e-06 9.51e-05 9.12e-05 3.11e-05 
43 1 1.73041e-06 8.18e-05 9.12e-05 3.37e-05 
42 1 1.49902e-06 6.65e-05 7.07e-05 3.51e-05 
44 1 1.93163e-06 5.66e-05 6.66e-05 3.77e-05 
50 1 1.74047e-06 7.78e-05 6.28e-05 4.77e-05 
ITEM: TIMESTEP
200
ITEM: NUMBER OF ATOMS
50
ITEM: BOX BOUNDS ff ff ff
0.0000000000000000e+00 1.0000000000000000e-04
0.0000000000000000e+00 1.0000000000000000e-04
0.0000000000000000e+00 5.0000000000000002e-05
ITEM: ATOMS id type diameter x y z 
10 1 1.88259e-06 1.91e-05 2.98e-05 2.24e-06 
13 1 1.9332e-06 1.07e-05 7.71e-06 6.81e-06 
6 1 1.48785e-06 2.8e-05 4.34e-05 9.59e-06 
22 1 1.72065e-06 4.92e-05 3.42e-06 1.31e-05 
38 1 1.68016e-06 1.45e-05 2.35e-05 1.39e-05 
41 1 1.7915e-06 4.58e-05 1.72e-05 1.64e-05 
30 1 1.73077e-06 8.11e-06 4.1e-05 1.88e-05 
46 1 1.53846e-06 3.81e-05 4.84e-05 2.27e-05 
25 1 1.88259e-06 1.25e-05 2.42e-05 2.46e-05 
33 1 1.59919e-06 3.54e-05 3.68e-05 2.67e-05 
16 1 1.49798e-06 4.63e-06 1.78e-05 2.83e-05 
40 1 1.95344e-06 1.16e-05 2.88e-05 3.15e-05 
3 1 1.61943e-06 3.56e-06 8.45e-06 3.33e-05 
32 1 1.68016e-06 2.33e-06 3.78e-05 3.36e-05 
24 1 1.74089e-06 3.82e-05 1.51e-05 3.46e-05 
28 1 1.5081e-06 1.4e-05 2.7e-05 4.75e-05 
27 1 1.57895e-06 4.61e-05 9.05e-05 1.64e-06 
29 1 1.90283e-06 1.72e-05 5.07e-05 3.67e-06 
37 1 1.87247e-06 4.87e-06 7.33e-05 8.66e-06 
47 1 1.49798e-06 4.23e-05 8.3e-05 8.79e-06 
7 1 1.59919e-06 2.18e-05 7.49e-05 1.17e-05 
18 1 1.70041e-06 2.74e-05 5.23e-05 1.64e-05 
5 1 1.67004e-06 2.27e-06 6.87e-05 1.67e-05 
8 1 1.43725e-06 1.68e-06 5.04e-05 2.55e-05 
21 1 1.78138e-06 4.14e-05 6.75e-05 2.72e-05 
23 1 1.94332e-06 1.04e-05 8.15e-05 2.96e-05 
34 1 1.54858e-06 3.48e-05 5.2e-05 3.16e-05 
17 1 1.87247e-06 1.74e-05 7.8e-05 4.01e-05 
1 1 1.39676e-06 1.42e-05 5.47e-05 4.81e-05 
36 1 1.417e-06 6.14e-05 2.48e-05 3.62e-06 
31 1 1.67004e-06 6.29e-05 2.32e-05 9.14e-06 
20 1 1.74089e-06 5.62e-05 1.65e-05 9.76e-06 
11 1 1.68016e-06 5.72e-05 1.27e-05 1.29e-05 
2 1 1.40688e-06 6.4e-05 3e-05 1.94e-05 
9 1 1.68016e-06 5.3e-05 4.46e-05 2.03e-05 
15 1 1.76113e-06 9.75e-05 3.4e-06 2.83e-05 
4 1 1.88259e-06 8.06e-05 4.8e-05 4.22e-05 
26 1 1.417e-06 8.67e-05 7.05e-05 5.41e-06 
49 1 1.58907e-06 6.79e-05 6.17e-05 1.76e-05 
48 1 1.54858e-06 5.05e-05 8.68e-05 2.14e-05 
14 1 1.81174e-06 7.19e-05 6.69e-05 2.23e-05 
45 1 1.5081e-06 9.79e-05 5.52e-05 2.62e-05 
19 1 1.45749e-06 9.58e-05 5.64e-05 2.67e-05 
35 1 1.56883e-06 9.58e-05 9.04e-05 2.81e-05 
39 1 1.72065e-06 7.64e-05 6.11e-05 3.07e-05 
12 1 1.52834e-06 9.51e-05 9.12e-05 3.11e-05 
43 1 1.74089e-06 8.18e-05 9.12e-05 3.37e-05 
42 1 1.5081e-06 6.65e-05 7.07e-05 3.51e-05 
44 1 1.94332e-06 5.66e-05 6.66e-05 3.77e-05 
50 1 1.75101e-06 7.78e-05 6.28e-05 4.77e-05 
ITEM: TIMESTEP
300
ITEM: NUMBER OF ATOMS
50
ITEM: BOX BOUNDS ff ff ff
0.0000000000000000e+00 1.0000000000000000e-04
0.0000000000000000e+00 1.0000000000000000e-04
0.0000000000000000e+00 5.0000000000000002e-05
ITEM: ATOMS id type diameter x y z 
10 1 1.89399e-06 1.91e-05 2.98e-05 2.24e-06 
13 1 1.9449e-06 1.07e-05 7.71e-06 6.81e-06 
6 1 1.49686e-06 2.8e-05 4.34e-05 9.59e-06 
22 1 1.73107e-06 4.92e-05 3.42e-06 1.31e-05 
38 1 1.69034e-06 1.45e-05 2.35e-05 1.39e-05 
41 1 1.80235e-06 4.58e-05 1.72e-05 1.64e-05 
30 1 1.74125e-06 8.11e-06 4.1e-05 1.88e-05 
46 1 1.54778e-06 3.81e-05 4.84e-05 2.27e-05 
25 1 1.89399e-06 1.25e-05 2.42e-05 2.46e-05 
33 1 1.60887e-06 3.54e-05 3.68e-05 2.67e-05 
16 1 1.50705e-06 4.63e-06 1.78e-05 2.83e-05 
40 1 1.96527e-06 1.16e-05 2.88e-05 3.15e-05 
3 1 1.62924e-06 3.56e-06 8.45e-06 3.33e-05 
32 1 1.69034e-06 2.33e-06 3.78e-05 3.36e-05 
24 1 1.75143e-06 3.82e-05 1.51e-05 3.46e-05 
28 1 1.51723e-06 1.4e-05 2.7e-05 4.75e-05 
27 1 1.58851e-06 4.61e-05 9.05e-05 1.64e-06 
29 1 1.91436e-06 1.72e-05 5.07e-05 3.67e-06 
37 1 1.88381e-06 4.87e-06 7.33e-05 8.66e-06 
47 1 1.50705e-06 4.23e-05 8.3e-05 8.79e-06 
7 1 1.60887e-06 2.18e-05 7.49e-05 1.17e-05 
18 1 1.7107e-06 2.74e-05 5.23e-05 1.64e-05 
5 1 1.68015e-06 2.27e-06 6.87e-05 1.67e-05 
8 1 1.44595e-06 1.68e-06 5.04e-05 2.55e-05 
21 1 1.79216e-06 4.14e-05 6.75e-05 2.72e-05 
23 1 1.95509e-06 1.04e-05 8.15e-05 2.96e-05 
34 1 1.55796e-06 3.48e-05 5.2e-05 3.16e-05 
17 1 1.88381e-06 1.74e-05 7.8e-05 4.01e-05 
1 1 1.40522e-06 1.42e-05 5.47e-05 4.81e-05 
36 1 1.42558e-06 6.14e-05 2.48e-05 3.62e-06 
31 1 1.68015e-06 6.29e-05 2.32e-05 9.14e-06 
20 1 1.75143e-06 5.62e-05 1.65e-05 9.76e-06 
11 1 1.69034e-06 5.72e-05 1.27e-05 1.29e-05 
2 1 1.4154e-06 6.4e-05 3e-05 1.94e-05 
9 1 1.69034e-06 5.3e-05 4.46e-05 2.03e-05 
15 1 1.7718e-06 9.75e-05 3.4e-06 2.83e-05 
4 1 1.89399e-06 8.06e-05 4.8e-05 4.22e-05 
26 1 1.42558e-06 8.67e-05 7.05e-05 5.41e-06 
49 1 1.59869e-06 6.79e-05 6.17e-05 1.76e-05 
48 1 1.55796e-06 5.05e-05 8.68e-05 2.14e-05 
14 1 1.82271e-06 7.19e-05 6.69e-05 2.23e-05 
45 1 1.51723e-06 9.79e-05 5.52e-05 2.62e-05 
19 1 1.46632e-06 9.58e-05 5.64e-05 2.67e-05 
35 1 1.57833e-06 9.58e-05 9.04e-05 2.81e-05 
39 1 1.73107e-06 7.64e-05 6.11e-05 3.07e-05 
12 1 1.53759e-06 9.51e-05 9.12e-05 3.11e-05 
43 1 1.75143e-06 8.18e-05 9.12e-05 3.37e-05 
42 1 1.51723e-06 6.65e-05 7.07e-05 3.51e-05 
44 1 1.95509e-06 5.66e-05 6.66e-05 3.77e-05 
50 1 1.76161e-06 7.78e-05 6.28e-05 4.77e-05 
ITEM: TIMESTEP
400
ITEM: NUMBER OF ATOMS
51
ITEM: BOX BOUNDS ff ff ff
0.0000000000000000e+00 1.0000000000000000e-04
0.0000000000000000e+00 1.0000000000000000e-04
0.0000000000000000e+00 5.0000000000000002e-05
ITEM: ATOMS id type diameter x y z 
10 1 1.90546e-06 1.91e-05 2.98e-05 2.24e-06 
13 1 1.95668e-06 1.07e-05 7.71e-06 6.81e-06 
6 1 1.50593e-06 2.8e-05 4.34e-05 9.59e-06 
22 1 1.74155e-06 4.92e-05 3.42e-06 1.31e-05 
38 1 1.70057e-06 1.45e-05 2.35e-05 1.39e-05 
41 1 1.81326e-06 4.58e-05 1.72e-05 1.64e-05 
30 1 1.75179e-06 8.11e-06 4.1e-05 1.88e-05 
46 1 1.55715e-06 3.81e-05 4.84e-05 2.27e-05 
25 1 1.90546e-06 1.25e-05 2.42e-05 2.46e-05 
33 1 1.61861e-06 3.54e-05 3.68e-05 2.67e-05 
16 1 1.51617e-06 4.63e-06 1.78e-05 2.83e-05 
40 1 1.65544e-06 1.19376e-05 2.95086e-05 3.124e-05 
3 1 1.6391e-06 3.56e-06 8.45e-06 3.33e-05 
32 1 1.70057e-06 2.33e-06 3.78e-05 3.36e-05 
24 1 1.76204e-06 3.82e-05 1.51e-05 3.46e-05 
28 1 1.52642e-06 1.4e-05 2.7e-05 4.75e-05 
51 1 1.47245e-06 1.12998e-05 2.81697e-05 3.17313e-05 
27 1 1.59813e-06 4.61e-05 9.05e-05 1.64e-06 
29 1 1.92595e-06 1.72e-05 5.07e-05 3.67e-06 
37 1 1.89521e-06 4.87e-06 7.33e-05 8.66e-06 
47 1 1.51617e-06 4.23e-05 8.3e-05 8.79e-06 
7 1 1.61861e-06 2.18e-05 7.49e-05 1.17e-05 
18 1 1.72106e-06 2.74e-05 5.23e-05 1.64e-05 
5 1 1.69033e-06 2.27e-06 6.87e-05 1.67e-05 
8 1 1.4547e-06 1.68e-06 5.04e-05 2.55e-05 
21 1 1.80301e-06 4.14e-05 6.75e-05 2.72e-05 
23 1 1.96692e-06 1.04e-05 8.15e-05 2.96e-05 
34 1 1.56739e-06 3.48e-05 5.2e-05 3.16e-05 
17 1 1.89521e-06 1.74e-05 7.8e-05 4.01e-05 
1 1 1.41373e-06 1.42e-05 5.47e-05 4.81e-05 
36 1 1.43422e-06 6.14e-05 2.48e-05 3.62e-06 
31 1 1.69033e-06 6.29e-05 2.32e-05 9.14e-06 
20 1 1.76204e-06 5.62e-05 1.65e-05 9.76e-06 
11 1 1.70057e-06 5.72e-05 1.27e-05 1.29e-05 
2 1 1.42397e-06 6.4e-05 3e-05 1.94e-05 
9 1 1.70057e-06 5.3e-05 4.46e-05 2.03e-05 
15 1 1.78253e-06 9.75e-05 3.4e-06 2.83e-05 
4 1 1.90546e-06 8.06e-05 4.8e-05 4.22e-05 
26 1 1.43422e-06 8.67e-05 7.05e-05 5.41e-06 
49 1 1.60837e-06 6.79e-05 6.17e-05 1.76e-05 
48 1 1.56739e-06 5.05e-05 8.68e-05 2.14e-05 
14 1 1.83375e-06 7.19e-05 6.69e-05 2.23e-05 
45 1 1.52642e-06 9.79e-05 5.52e-05 2.62e-05 
19 1 1.47519e-06 9.58e-05 5.64e-05 2.67e-05 
35 1 1.58788e-06 9.58e-05 9.04e-05 2.81e-05 
39 1 1.74155e-06 7.64e-05 6.11e-05 3.07e-05 
12 1 1.5469e-06 9.51e-05 9.12e-05 3.11e-05 
43 1 1.76204e-06 8.18e-05 9.12e-05 3.37e-05 
42 1 1.52642e-06 6.65e-05 7.07e-05 3.51e-05 
44 1 1.96692e-06 5.66e-05 6.66e-05 3.77e-05 
50 1 1.77228e-06 7.78e-05 6.28e-05 4.77e-05 
ITEM: TIMESTEP
500
ITEM: NUMBER OF ATOMS
53
ITEM: BOX BOUNDS ff ff ff
0.0000000000000000e+00 1.0000000000000000e-04
0.0000000000000000e+00 1.0000000000000000e-04
0.0000000000000000e+00 5.0000000000000002e-05
ITEM: ATOMS id type diameter x y z 
10 1 1.91699e-06 1.91e-05 2.98e-05 2.24e-06 
13 1 1.96853e-06 1.07e-05 7.71e-06 6.81e-06 
6 1 1.51504e-06 2.8e-05 4.34e-05 9.59e-06 
22 1 1.75209e-06 4.92e-05 3.42e-06 1.31e-05 
38 1 1.71087e-06 1.45e-05 2.35e-05 1.39e-05 
41 1 1.82424e-06 4.58e-05 1.72e-05 1.64e-05 
30 1 1.7624e-06 8.11e-06 4.1e-05 1.88e-05 
46 1 1.56658e-06 3.81e-05 4.84e-05 2.27e-05 
25 1 1.91699e-06 1.25e-05 2.42e-05 2.46e-05 
33 1 1.62842e-06 3.54e-05 3.68e-05 2.67e-05 
16 1 1.52535e-06 4.63e-06 1.78e-05 2.83e-05 
40 1 1.66546e-06 1.19376e-05 2.95086e-05 3.124e-05 
3 1 1.64903e-06 3.56e-06 8.45e-06 3.33e-05 
32 1 1.71087e-06 2.33e-06 3.78e-05 3.36e-05 
24 1 1.77271e-06 3.82e-05 1.51e-05 3.46e-05 
28 1 1.53566e-06 1.4e-05 2.7e-05 4.75e-05 
51 1 1.48137e-06 1.12998e-05 2.81697e-05 3.17313e-05 
27 1 1.6078e-06 4.61e-05 9.05e-05 1.64e-06 
29 1 1.93761e-06 1.72e-05 5.07e-05 3.67e-06 
37 1 1.90669e-06 4.87e-06 7.33e-05 8.66e-06 
47 1 1.52535e-06 4.23e-05 8.3e-05 8.79e-06 
7 1 1.62842e-06 2.18e-05 7.49e-05 1.17e-05 
18 1 1.73148e-06 2.74e-05 5.23e-05 1.64e-05 
5 1 1.70056e-06 2.27e-06 6.87e-05 1.67e-05 
8 1 1.46351e-06 1.68e-06 5.04e-05 2.55e-05 
21 1 1.81393e-06 4.14e-05 6.75e-05 2.72e-05 
23 1 1.65683e-06 1.07378e-05 8.22092e-05 2.93398e-05 
34 1 1.57688e-06 3.48e-05 5.2e-05 3.16e-05 
17 1 1.90669e-06 1.74e-05 7.8e-05 4.01e-05 
1 1 1.42229e-06 1.42e-05 5.47e-05 4.81e-05 
52 1 1.47369e-06 1.00995e-05 8.08692e-05 2.98315e-05 
36 1 1.4429e-06 6.14e-05 2.48e-05 3.62e-06 
31 1 1.70056e-06 6.29e-05 2.32e-05 9.14e-06 
20 1 1.77271e-06 5.62e-05 1.65e-05 9.76e-06 
11 1 1.71087e-06 5.72e-05 1.27e-05 1.29e-05 
2 1 1.43259e-06 6.4e-05 3e-05 1.94e-05 
9 1 1.71087e-06 5.3e-05 4.46e-05 2.03e-05 
15 1 1.79332e-06 9.75e-05 3.4e-06 2.83e-05 
4 1 1.917e-06 8.06e-05 4.8e-05 4.22e-05 
26 1 1.4429e-06 8.67e-05 7.05e-05 5.41e-06 
49 1 1.61811e-06 6.79e-05 6.17e-05 1.76e-05 
48 1 1.57688e-06 5.05e-05 8.68e-05 2.14e-05 
14 1 1.84485e-06 7.19e-05 6.69e-05 2.23e-05 
45 1 1.53566e-06 9.79e-05 5.52e-05 2.62e-05 
19 1 1.48413e-06 9.58e-05 5.64e-05 2.67e-05 
35 1 1.5975e-06 9.58e-05 9.04e-05 2.81e-05 
39 1 1.75209e-06 7.64e-05 6.11e-05 3.07e-05 
12 1 1.55627e-06 9.51e-05 9.12e-05 3.11e-05 
43 1 1.77271e-06 8.18e-05 9.12e-05 3.37e-05 
42 1 1.53566e-06 6.65e-05 7.07e-05 3.51e-05 
44 1 1.65683e-06 5.69378e-05 6.73092e-05 3.74398e-05 
50 1 1.78301e-06 7.78e-05 6.28e-05 4.77e-05 
53 1 1.47369e-06 5.62995e-05 6.59692e-05 3.79315e-05 
ITEM: TIMESTEP
600
ITEM: NUMBER OF ATOMS
54
ITEM: BOX BOUNDS ff ff ff
0.0000000000000000e+00 1.0000000000000000e-04
0.0000000000000000e+00 1.0000000000000000e-04
0.0000000000000000e+00 5.0000000000000002e-05
ITEM: ATOMS id type diameter x y z 
10 1 1.9286e-06 1.91e-05 2.98e-05 2.24e-06 
13 1 1.65818e-06 1.10381e-05 8.41978e-06 6.54954e-06 
6 1 1.52422e-06 2.8e-05 4.34e-05 9.59e-06 
22 1 1.7627e-06 4.92e-05 3.42e-06 1.31e-05 
38 1 1.72123e-06 1.45e-05 2.35e-05 1.39e-05 
41 1 1.83528e-06 4.58e-05 1.72e-05 1.64e-05 
30 1 1.77307e-06 8.11e-06 4.1e-05 1.88e-05 
54 1 1.47489e-06 1.03993e-05 7.07867e-06 7.04167e-06 
46 1 1.57606e-06 3.81e-05 4.84e-05 2.27e-05 
25 1 1.9286e-06 1.25e-05 2.42e-05 2.46e-05 
33 1 1.63827e-06 3.54e-05 3.68e-05 2.67e-05 
16 1 1.53459e-06 4.63e-06 1.78e-05 2.83e-05 
40 1 1.67555e-06 1.19376e-05 2.95086e-05 3.124e-05 
3 1 1.65901e-06 3.56e-06 8.45e-06 3.33e-05 
32 1 1.72123e-06 2.33e-06 3.78e-05 3.36e-05 
24 1 1.78344e-06 3.82e-05 1.51e-05 3.46e-05 
28 1 1.54496e-06 1.4e-05 2.7e-05 4.75e-05 
51 1 1.49034e-06 1.12998e-05 2.81697e-05 3.17313e-05 
27 1 1.61754e-06 4.61e-05 9.05e-05 1.64e-06 
29 1 1.94934e-06 1.72e-05 5.07e-05 3.67e-06 
37 1 1.91823e-06 4.87e-06 7.33e-05 8.66e-06 
47 1 1.53459e-06 4.23e-05 8.3e-05 8.79e-06 
7 1 1.63827e-06 2.18e-05 7.49e-05 1.17e-05 
18 1 1.74196e-06 2.74e-05 5.23e-05 1.64e-05 
5 1 1.71086e-06 2.27e-06 6.87e-05 1.67e-05 
8 1 1.47237e-06 1.68e-06 5.04e-05 2.55e-05 
21 1 1.82491e-06 4.14e-05 6.75e-05 2.72e-05 
23 1 1.66686e-06 1.07378e-05 8.22092e-05 2.93398e-05 
34 1 1.58643e-06 3.48e-05 5.2e-05 3.16e-05 
17 1 1.91823e-06 1.74e-05 7.8e-05 4.01e-05 
1 1 1.4309e-06 1.42e-05 5.47e-05 4.81e-05 
52 1 1.48261e-06 1.00995e-05 8.08692e-05 2.98315e-05 
36 1 1.45164e-06 6.14e-05 2.48e-05 3.62e-06 
31 1 1.71086e-06 6.29e-05 2.32e-05 9.14e-06 
20 1 1.78344e-06 5.62e-05 1.65e-05 9.76e-06 
11 1 1.72123e-06 5.72e-05 1.27e-05 1.29e-05 
2 1 1.44127e-06 6.4e-05 3e-05 1.94e-05 
9 1 1.72123e-06 5.3e-05 4.46e-05 2.03e-05 
15 1 1.80418e-06 9.75e-05 3.4e-06 2.83e-05 
4 1 1.9286e-06 8.06e-05 4.8e-05 4.22e-05 
26 1 1.45164e-06 8.67e-05 7.05e-05 5.41e-06 
49 1 1.62791e-06 6.79e-05 6.17e-05 1.76e-05 
48 1 1.58643e-06 5.05e-05 8.68e-05 2.14e-05 
14 1 1.85602e-06 7.19e-05 6.69e-05 2.23e-05 
45 1 1.54496e-06 9.79e-05 5.52e-05 2.62e-05 
19 1 1.49311e-06 9.58e-05 5.64e-05 2.67e-05 
35 1 1.60717e-06 9.58e-05 9.04e-05 2.81e-05 
39 1 1.7627e-06 7.64e-05 6.11e-05 3.07e-05 
12 1 1.56569e-06 9.51e-05 9.12e-05 3.11e-05 
43 1 1.78344e-06 8.18e-05 9.12e-05 3.37e-05 
42 1 1.54496e-06 6.65e-05 7.07e-05 3.51e-05 
44 1 1.66686e-06 5.69378e-05 6.73092e-05 3.74398e-05 
50 1 1.79381e-06 7.78e-05 6.28e-05 4.77e-05 
53 1 1.48261e-06 5.62995e-05 6.59692e-05 3.79315e-05 
ITEM: TIMESTEP
700
ITEM: NUMBER OF ATOMS
54
ITEM: BOX BOUNDS ff ff ff
0.0000000000000000e+00 1.0000000000000000e-04
0.0000000000000000e+00 1.0000000000000000e-04
0.0000000000000000e+00 5.0000000000000002e-05
ITEM: ATOMS id type diameter x y z 
10 1 1.94028e-06 1.91e-05 2.98e-05 2.24e-06 
13 1 1.66822e-06 1.10381e-05 8.41978e-06 6.54954e-06 
6 1 1.53345e-06 2.8e-05 4.34e-05 9.59e-06 
22 1 1.77337e-06 4.92e-05 3.42e-06 1.31e-05 
38 1 1.73165e-06 1.45e-05 2.35e-05 1.39e-05 
41 1 1.84639e-06 4.58e-05 1.72e-05 1.64e-05 
30 1 1.7838e-06 8.11e-06 4.1e-05 1.88e-05 
54 1 1.48382e-06 1.03993e-05 7.07867e-06 7.04167e-06 
46 1 1.5856e-06 3.81e-05 4.84e-05 2.27e-05 
25 1 1.94028e-06 1.25e-05 2.42e-05 2.46e-05 
33 1 1.64819e-06 3.54e-05 3.68e-05 2.67e-05 
16 1 1.54388e-06 4.63e-06 1.78e-05 2.83e-05 
40 1 1.68569e-06 1.19457e-05 2.95257e-05 3.12337e-05 
3 1 1.66906e-06 3.56e-06 8.45e-06 3.33e-05 
32 1 1.73165e-06 2.33e-06 3.78e-05 3.36e-05 
24 1 1.79424e-06 3.82e-05 1.51e-05 3.46e-05 
28 1 1.55431e-06 1.4e-05 2.7e-05 4.75e-05 
51 1 1.49936e-06 1.12916e-05 2.81526e-05 3.17376e-05 
27 1 1.62733e-06 4.61e-05 9.05e-05 1.64e-06 
29 1 1.96114e-06 1.72e-05 5.07e-05 3.67e-06 
37 1 1.92985e-06 4.87e-06 7.33e-05 8.66e-06 
47 1 1.54388e-06 4.23e-05 8.3e-05 8.79e-06 
7 1 1.64819e-06 2.18e-05 7.49e-05 1.17e-05 
18 1 1.75251e-06 2.74e-05 5.23e-05 1.64e-05 
5 1 1.72122e-06 2.27e-06 6.87e-05 1.67e-05 
8 1 1.48129e-06 1.68e-06 5.04e-05 2.55e-05 
21 1 1.83596e-06 4.14e-05 6.75e-05 2.72e-05 
23 1 1.67696e-06 1.07378e-05 8.22092e-05 2.93398e-05 
34 1 1.59604e-06 3.48e-05 5.2e-05 3.16e-05 
17 1 1.92985e-06 1.74e-05 7.8e-05 4.01e-05 
1 1 1.43956e-06 1.42e-05 5.47e-05 4.81e-05 
52 1 1.49159e-06 1.00995e-05 8.08692e-05 2.98315e-05 
36 1 1.46043e-06 6.14e-05 2.48e-05 3.62e-06 
31 1 1.72122e-06 6.29e-05 2.32e-05 9.14e-06 
20 1 1.79424e-06 5.62e-05 1.65e-05 9.76e-06 
11 1 1.73165e-06 5.72e-05 1.27e-05 1.29e-05 
2 1 1.44999e-06 6.4e-05 3e-05 1.94e-05 
9 1 1.73165e-06 5.3e-05 4.46e-05 2.03e-05 
15 1 1.8151e-06 9.75e-05 3.4e-06 2.83e-05 
4 1 1.94028e-06 8.06e-05 4.8e-05 4.22e-05 
26 1 1.46043e-06 8.67e-05 7.05e-05 5.41e-06 
49 1 1.63776e-06 6.79e-05 6.17e-05 1.76e-05 
48 1 1.59604e-06 5.05e-05 8.68e-05 2.14e-05 
14 1 1.86726e-06 7.19e-05 6.69e-05 2.23e-05 
45 1 1.55431e-06 9.79e-05 5.52e-05 2.62e-05 
19 1 1.50215e-06 9.58e-05 5.64e-05 2.67e-05 
35 1 1.6169e-06 9.58e-05 9.04e-05 2.81e-05 
39 1 1.77337e-06 7.64e-05 6.11e-05 3.07e-05 
12 1 1.57517e-06 9.51e-05 9.12e-05 3.11e-05 
43 1 1.79424e-06 8.18e-05 9.12e-05 3.37e-05 
42 1 1.55431e-06 6.65e-05 7.07e-05 3.51e-05 
44 1 1.67696e-06 5.69378e-05 6.73092e-05 3.74398e-05 
50 1 1.80467e-06 7.78e-05 6.28e-05 4.77e-05 
53 1 1.49159e-06 5.62995e-05 6.59692e-05 3.79315e-05 
ITEM: TIMESTEP
800
ITEM: NUMBER OF ATOMS
55
ITEM: BOX BOUNDS ff ff ff
0.0000000000000000e+00 1.0000000000000000e-04
0.0000000000000000e+00 1.0000000000000000e-04
0.0000000000000000e+00 5.0000000000000002e-05
ITEM: ATOMS id type diameter x y z 
10 1 1.95203e-06 1.91e-05 2.98e-05 2.24e-06 
13 1 1.67832e-06 1.10381e-05 8.41978e-06 6.54954e-06 
6 1 1.54273e-06 2.8e-05 4.34e-05 9.59e-06 
22 1 1.78411e-06 4.92e-05 3.42e-06 1.31e-05 
38 1 1.74213e-06 1.45e-05 2.35e-05 1.39e-05 
41 1 1.85757e-06 4.58e-05 1.72e-05 1.64e-05 
30 1 1.79461e-06 8.11e-06 4.1e-05 1.88e-05 
54 1 1.49281e-06 1.03993e-05 7.07867e-06 7.04167e-06 
46 1 1.5952e-06 3.81e-05 4.84e-05 2.27e-05 
25 1 1.95203e-06 1.25e-05 2.42e-05 2.46e-05 
33 1 1.65817e-06 3.54e-05 3.68e-05 2.67e-05 
16 1 1.55323e-06 4.63e-06 1.78e-05 2.83e-05 
40 1 1.6959e-06 1.19457e-05 2.95257e-05 3.12337e-05 
3 1 1.67916e-06 3.56e-06 8.45e-06 3.33e-05 
32 1 1.74213e-06 2.33e-06 3.78e-05 3.36e-05 
24 1 1.8051e-06 3.82e-05 1.51e-05 3.46e-05 
28 1 1.56372e-06 1.4e-05 2.7e-05 4.75e-05 
51 1 1.50844e-06 1.12916e-05 2.81526e-05 3.17376e-05 
27 1 1.63718e-06 4.61e-05 9.05e-05 1.64e-06 
29 1 1.65196e-06 1.75368e-05 5.14071e-05 3.41052e-06 
37 1 1.94153e-06 4.87e-06 7.33e-05 8.66e-06 
47 1 1.55323e-06 4.23e-05 8.3e-05 8.79e-06 
7 1 1.65817e-06 2.18e-05 7.49e-05 1.17e-05 
18 1 1.76312e-06 2.74e-05 5.23e-05 1.64e-05 
5 1 1.73164e-06 2.27e-06 6.87e-05 1.67e-05 
55 1 1.46936e-06 1.69004e-05 5.0071e-05 3.9008e-06 
8 1 1.49026e-06 1.68e-06 5.04e-05 2.55e-05 
21 1 1.84708e-06 4.14e-05 6.75e-05 2.72e-05 
23 1 1.68711e-06 1.0746e-05 8.22263e-05 2.93335e-05 
34 1 1.6057e-06 3.48e-05 5.2e-05 3.16e-05 
17 1 1.94153e-06 1.74e-05 7.8e-05 4.01e-05 
1 1 1.44828e-06 1.42e-05 5.47e-05 4.81e-05 
52 1 1.50062e-06 1.00913e-05 8.0852e-05 2.98378e-05 
36 1 1.46927e-06 6.14e-05 2.48e-05 3.62e-06 
31 1 1.73164e-06 6.29e-05 2.32e-05 9.14e-06 
20 1 1.8051e-06 5.62e-05 1.65e-05 9.76e-06 
11 1 1.74213e-06 5.72e-05 1.27e-05 1.29e-05 
2 1 1.45877e-06 6.4e-05 3e-05 1.94e-05 
9 1 1.74213e-06 5.3e-05 4.46e-05 2.03e-05 
15 1 1.82609e-06 9.75e-05 3.4e-06 2.83e-05 
4 1 1.95203e-06 8.06e-05 4.8e-05 4.22e-05 
26 1 1.46927e-06 8.67e-05 7.05e-05 5.41e-06 
49 1 1.64768e-06 6.79e-05 6.17e-05 1.76e-05 
48 1 1.6057e-06 5.05e-05 8.68e-05 2.14e-05 
14 1 1.87856e-06 7.19e-05 6.69e-05 2.23e-05 
45 1 1.56372e-06 9.79e-05 5.52e-05 2.62e-05 
19 1 1.51125e-06 9.58e-05 5.64e-05 2.67e-05 
35 1 1.62669e-06 9.58e-05 9.04e-05 2.81e-05 
39 1 1.78411e-06 7.64e-05 6.11e-05 3.07e-05 
12 1 1.58471e-06 9.51e-05 9.12e-05 3.11e-05 
43 1 1.8051e-06 8.18e-05 9.12e-05 3.37e-05 
42 1 1.56372e-06 6.65e-05 7.07e-05 3.51e-05 
44 1 1.68711e-06 5.6946e-05 6.73263e-05 3.74335e-05 
50 1 1.81559e-06 7.78e-05 6.28e-05 4.77e-05 
53 1 1.50062e-06 5.62913e-05 6.5952e-05 3.79378e-05 
ITEM: TIMESTEP
900
ITEM: NUMBER OF ATOMS
55
ITEM: BOX BOUNDS ff ff ff
0.0000000000000000e+00 1.0000000000000000e-04
0.0000000000000000e+00 1.0000000000000000e-04
0.0000000000000000e+00 5.0000000000000002e-05
ITEM: ATOMS id type diameter x y z 
10 1 1.96385e-06 1.91e-05 2.98e-05 2.24e-06 
13 1 1.68849e-06 1.10463e-05 8.43692e-06 6.54325e-06 
6 1 1.55207e-06 2.8e-05 4.34e-05 9.59e-06 
22 1 1.79491e-06 4.92e-05 3.42e-06 1.31e-05 
38 1 1.75268e-06 1.45e-05 2.35e-05 1.39e-05 
41 1 1.86882e-06 4.58e-05 1.72e-05 1.64e-05 
30 1 1.80547e-06 8.11e-06 4.1e-05 1.88e-05 
54 1 1.50185e-06 1.03911e-05 7.06153e-06 7.04796e-06 
46 1 1.60486e-06 3.81e-05 4.84e-05 2.27e-05 
25 1 1.96385e-06 1.25e-05 2.42e-05 2.46e-05 
33 1 1.66821e-06 3.54e-05 3.68e-05 2.67e-05 
16 1 1.56263e-06 4.63e-06 1.78e-05 2.83e-05 
40 1 1.70617e-06 1.19457e-05 2.95257e-05 3.12337e-05 
3 1 1.68933e-06 3.56e-06 8.45e-06 3.33e-05 
32 1 1.75268e-06 2.33e-06 3.78e-05 3.36e-05 
24 1 1.81603e-06 3.82e-05 1.51e-05 3.46e-05 
28 1 1.57319e-06 1.4e-05 2.7e-05 4.75e-05 
51 1 1.51757e-06 1.12916e-05 2.81526e-05 3.17376e-05 
27 1 1.6471e-06 4.61e-05 9.05e-05 1.64e-06 
29 1 1.66196e-06 1.75368e-05 5.14071e-05 3.41052e-06 
37 1 1.95329e-06 4.87e-06 7.33e-05 8.66e-06 
47 1 1.56263e-06 4.23e-05 8.3e-05 8.79e-06 
7 1 1.66821e-06 2.18e-05 7.49e-05 1.17e-05 
18 1 1.7738e-06 2.74e-05 5.23e-05 1.64e-05 
5 1 1.74212e-06 2.27e-06 6.87e-05 1.67e-05 
55 1 1.47826e-06 1.69004e-05 5.0071e-05 3.9008e-06 
8 1 1.49928e-06 1.68e-06 5.04e-05 2.55e-05 
21 1 1.85826e-06 4.14e-05 6.75e-05 2.72e-05 
23 1 1.69733e-06 1.0746e-05 8.22263e-05 2.93335e-05 
34 1 1.61542e-06 3.48e-05 5.2e-05 3.16e-05 
17 1 1.95329e-06 1.74e-05 7.8e-05 4.01e-05 
1 1 1.45705e-06 1.42e-05 5.47e-05 4.81e-05 
52 1 1.50971e-06 1.00913e-05 8.0852e-05 2.98378e-05 
36 1 1.47816e-06 6.14e-05 2.48e-05 3.62e-06 
31 1 1.74212e-06 6.29e-05 2.32e-05 9.14e-06 
20 1 1.81603e-06 5.62e-05 1.65e-05 9.76e-06 
11 1 1.75268e-06 5.72e-05 1.27e-05 1.29e-05 
2 1 1.46761e-06 6.4e-05 3e-05 1.94e-05 
9 1 1.75268e-06 5.3e-05 4.46e-05 2.03e-05 
15 1 1.83715e-06 9.75e-05 3.4e-06 2.83e-05 
4 1 1.96385e-06 8.06e-05 4.8e-05 4.22e-05 
26 1 1.47816e-06 8.67e-05 7.05e-05 5.41e-06 
49 1 1.65765e-06 6.79e-05 6.17e-05 1.76e-05 
48 1 1.61542e-06 5.05e-05 8.68e-05 2.14e-05 
14 1 1.88994e-06 7.19e-05 6.69e-05 2.23e-05 
45 1 1.57319e-06 9.79e-05 5.52e-05 2.62e-05 
19 1 1.5204e-06 9.58e-05 5.64e-05 2.67e-05 
35 1 1.63654e-06 9.58e-05 9.04e-05 2.81e-05 
39 1 1.79491e-06 7.64e-05 6.11e-05 3.07e-05 
12 1 1.5943e-06 9.51e-05 9.12e-05 3.11e-05 
43 1 1.81603e-06 8.18e-05 9.12e-05 3.37e-05 
42 1 1.57319e-06 6.65e-05 7.07e-05 3.51e-05 
44 1 1.69733e-06 5.6946e-05 6.73263e-05 3.74335e-05 
50 1 1.82659e-06 7.78e-05 6.28e-05 4.77e-05 
53 1 1.50971e-06 5.62913e-05 6.5952e-05 3.79378e-05 
ITEM: TIMESTEP
1000
ITEM: NUMBER OF ATOMS
58
ITEM: BOX BOUNDS ff ff ff
0.0000000000000000e+00 1.0000000000000000e-04
0.0000000000000000e+00 1.0000000000000000e-04
0.0000000000000000e+00 5.0000000000000002e-05
ITEM: ATOMS id type diameter x y z 
56 1 1.46515e-06 1.96506e-05 2.93447e-05 2.0816e-06 
10 1 1.65914e-06 1.84765e-05 3.03155e-05 2.41937e-06 
13 1 1.69871e-06 1.10463e-05 8.43692e-06 6.54325e-06 
54 1 1.51094e-06 1.03911e-05 7.06153e-06 7.04796e-06 
6 1 1.56147e-06 2.8e-05 4.34e-05 9.59e-06 
22 1 1.80578e-06 4.92e-05 3.42e-06 1.31e-05 
38 1 1.76329e-06 1.45e-05 2.35e-05 1.39e-05 
41 1 1.88014e-06 4.58e-05 1.72e-05 1.64e-05 
30 1 1.8164e-06 8.11e-06 4.1e-05 1.88e-05 
46 1 1.61458e-06 3.81e-05 4.84e-05 2.27e-05 
57 1 1.46515e-06 1.30506e-05 2.37447e-05 2.44416e-05 
25 1 1.65914e-06 1.18765e-05 2.47155e-05 2.47794e-05 
33 1 1.67831e-06 3.54e-05 3.68e-05 2.67e-05 
16 1 1.57209e-06 4.63e-06 1.78e-05 2.83e-05 
40 1 1.7165e-06 1.19457e-05 2.95257e-05 3.12337e-05 
51 1 1.52676e-06 1.12916e-05 2.81526e-05 3.17376e-05 
3 1 1.69956e-06 3.56e-06 8.45e-06 3.33e-05 
32 1 1.76329e-06 2.33e-06 3.78e-05 3.36e-05 
24 1 1.82703e-06 3.82e-05 1.51e-05 3.46e-05 
28 1 1.58271e-06 1.4e-05 2.7e-05 4.75e-05 
27 1 1.65707e-06 4.61e-05 9.05e-05 1.64e-06 
29 1 1.67203e-06 1.75368e-05 5.14071e-05 3.41052e-06 
55 1 1.48721e-06 1.69004e-05 5.0071e-05 3.9008e-06 
37 1 1.96511e-06 4.87e-06 7.33e-05 8.66e-06 
47 1 1.57209e-06 4.23e-05 8.3e-05 8.79e-06 
7 1 1.67831e-06 2.18e-05 7.49e-05 1.17e-05 
18 1 1.78454e-06 2.74e-05 5.23e-05 1.64e-05 
5 1 1.75267e-06 2.27e-06 6.87e-05 1.67e-05 
8 1 1.50836e-06 1.68e-06 5.04e-05 2.55e-05 
21 1 1.86951e-06 4.14e-05 6.75e-05 2.72e-05 
23 1 1.7076e-06 1.0746e-05 8.22263e-05 2.93335e-05 
52 1 1.51885e-06 1.00913e-05 8.0852e-05 2.98378e-05 
34 1 1.6252e-06 3.48e-05 5.2e-05 3.16e-05 
17 1 1.96511e-06 1.74e-05 7.8e-05 4.01e-05 
1 1 1.46587e-06 1.42e-05 5.47e-05 4.81e-05 
36 1 1.48711e-06 6.14e-05 2.48e-05 3.62e-06 
31 1 1.75267e-06 6.29e-05 2.32e-05 9.14e-06 
20 1 1.82703e-06 5.62e-05 1.65e-05 9.76e-06 
11 1 1.76329e-06 5.72e-05 1.27e-05 1.29e-05 
2 1 1.47649e-06 6.4e-05 3e-05 1.94e-05 
9 1 1.76329e-06 5.3e-05 4.46e-05 2.03e-05 
15 1 1.84827e-06 9.75e-05 3.4e-06 2.83e-05 
4 1 1.65424e-06 8.09373e-05 4.87081e-05 4.19402e-05 
58 1 1.47139e-06 8.03e-05 4.73702e-05 4.24311e-05 
26 1 1.48711e-06 8.67e-05 7.05e-05 5.41e-06 
49 1 1.66769e-06 6.79e-05 6.17e-05 1.76e-05 
48 1 1.6252e-06 5.05e-05 8.68e-05 2.14e-05 
14 1 1.90138e-06 7.19e-05 6.69e-05 2.23e-05 
45 1 1.58271e-06 9.79e-05 5.52e-05 2.62e-05 
19 1 1.5296e-06 9.58e-05 5.64e-05 2.67e-05 
35 1 1.64645e-06 9.58e-05 9.04e-05 2.81e-05 
39 1 1.80578e-06 7.64e-05 6.11e-05 3.07e-05 
12 1 1.60396e-06 9.51e-05 9.12e-05 3.11e-05 
43 1 1.82703e-06 8.18e-05 9.12e-05 3.37e-05 
42 1 1.58271e-06 6.65e-05 7.07e-05 3.51e-05 
44 1 1.7076e-06 5.6946e-05 6.73263e-05 3.74335e-05 
53 1 1.51885e-06 5.62913e-05 6.5952e-05 3.79378e-05 
50 1 1.83765e-06 7.78e-05 6.28e-05 4.77e-05 
ITEM: TIMESTEP
1100
ITEM: NUMBER OF ATOMS
60
ITEM: BOX BOUNDS ff ff ff
0.0000000000000000e+00 1.0000000000000000e-04
0.0000000000000000e+00 1.0000000000000000e-04
0.0000000000000000e+00 5.0000000000000002e-05
ITEM: ATOMS id type diameter x y z 
56 1 1.47402e-06 1.96506e-05 2.93447e-05 2.0816e-06 
10 1 1.66918e-06 1.84765e-05 3.03155e-05 2.41937e-06 
13 1 1.70899e-06 1.10463e-05 8.43692e-06 6.54325e-06 
54 1 1.52009e-06 1.03911e-05 7.06153e-06 7.04796e-06 
6 1 1.57092e-06 2.8e-05 4.34e-05 9.59e-06 
22 1 1.81671e-06 4.92e-05 3.42e-06 1.31e-05 
38 1 1.77397e-06 1.45e-05 2.35e-05 1.39e-05 
41 1 1.89152e-06 4.58e-05 1.72e-05 1.64e-05 
30 1 1.8274e-06 8.11e-06 4.1e-05 1.88e-05 
46 1 1.62436e-06 3.81e-05 4.84e-05 2.27e-05 
57 1 1.47402e-06 1.30506e-05 2.37447e-05 2.44416e-05 
25 1 1.66918e-06 1.18765e-05 2.47155e-05 2.47794e-05 
33 1 1.68848e-06 3.54e-05 3.68e-05 2.67e-05 
16 1 1.58161e-06 4.63e-06 1.78e-05 2.83e-05 
40 1 1.72689e-06 1.19457e-05 2.95257e-05 3.12337e-05 
51 1 1.536e-06 1.12916e-05 2.81526e-05 3.17376e-05 
3 1 1.70985e-06 3.56e-06 8.45e-06 3.33e-05 
32 1 1.77397e-06 2.33e-06 3.78e-05 3.36e-05 
24 1 1.83809e-06 3.82e-05 1.51e-05 3.46e-05 