ITEM: TIMESTEP
0
ITEM: NUMBER OF ATOMS
50
ITEM: BOX BOUNDS ff ff ff
0.0000000000000000e+00 1.0000000000000000e-04
0.0000000000000000e+00 1.0000000000000000e-04
0.0000000000000000e+00 5.0000000000000002e-05
ITEM: ATOMS id type diameter x y z 
4 1 1.55e-06 2.54e-05 4.95e-05 2.97e-06 
9 1 1.92e-06 4.24e-05 3.03e-05 6.3e-06 
45 1 1.67e-06 3.42e-05 1.74e-05 8.07e-06 
2 1 1.65e-06 8.52e-06 4.66e-05 1.17e-05 
13 1 1.75e-06 1.81e-05 3.82e-05 1.33e-05 
36 1 1.44e-06 3.88e-05 1.29e-05 2.05e-05 
23 1 1.39e-06 4.02e-05 3.58e-05 2.31e-05 
50 1 1.67e-06 3.72e-05 8.47e-06 3.18e-05 
14 1 1.82e-06 3.44e-05 1.51e-05 3.71e-05 
3 1 1.5e-06 2.52e-05 4.08e-05 3.84e-05 
19 1 1.86e-06 3.66e-05 1.75e-05 4.13e-05 
32 1 1.4e-06 4.75e-05 1.52e-05 4.34e-05 
12 1 1.93e-06 2.85e-05 2.84e-05 4.41e-05 
40 1 1.71e-06 4.55e-06 5.91e-05 7.47e-06 
26 1 1.53e-06 1.58e-05 8.73e-05 1.69e-05 
41 1 1.67e-06 2.52e-05 6.83e-05 1.81e-05 
33 1 1.85e-06 2.41e-05 5.93e-05 2.05e-05 
24 1 1.61e-06 9.09e-06 8.57e-05 2.18e-05 
18 1 1.89e-06 1.36e-05 9.13e-05 2.26e-05 
28 1 1.85e-06 6.36e-06 9.53e-05 2.44e-05 
27 1 1.76e-06 4.84e-05 5.84e-05 2.65e-05 
37 1 1.56e-06 4.11e-05 8.09e-05 2.81e-05 
48 1 1.37e-06 3.47e-05 8.35e-05 3.11e-05 
43 1 1.78e-06 3.79e-05 7.31e-05 3.28e-05 
1 1 1.72e-06 4.38e-05 9.72e-05 3.66e-05 
11 1 1.92e-06 1.36e-05 8.63e-05 3.75e-05 
34 1 1.6e-06 4.59e-05 9.62e-05 3.71e-05 
29 1 1.78e-06 2.82e-06 6.58e-05 3.84e-05 
44 1 1.77e-06 3.52e-06 8.21e-05 4.01e-05 
49 1 1.82e-06 2.49e-05 9.46e-05 4.03e-05 
20 1 1.69e-06 9.88e-06 9.24e-05 4.17e-05 
10 1 1.49e-06 6.49e-05 3.5e-05 3.03e-06 
42 1 1.67e-06 9.58e-05 1.34e-05 5.93e-06 
21 1 1.57e-06 7.83e-05 1.38e-05 6.28e-06 
6 1 1.76e-06 7.19e-05 3.75e-06 1.05e-05 
17 1 1.61e-06 7.45e-05 4.47e-05 1.59e-05 
38 1 1.48e-06 7.69e-05 9.66e-06 2.26e-05 
39 1 1.66e-06 7.69e-05 4.01e-05 3.39e-05 
35 1 1.75e-06 8.39e-05 4.83e-05 3.55e-05 
47 1 1.67e-06 9.19e-05 7.82e-06 3.74e-05 
16 1 1.8e-06 7.83e-05 2.43e-06 4.4e-05 
30 1 1.58e-06 7.12e-05 5.16e-05 3.74e-06 
7 1 1.81e-06 8.71e-05 9.71e-05 3.95e-06 
46 1 1.42e-06 7.6e-05 9.12e-05 1.01e-05 
31 1 1.89e-06 7.33e-05 8.78e-05 1.78e-05 
5 1 1.7e-06 5.4e-05 8.75e-05 3.45e-05 
15 1 1.44e-06 8.03e-05 7.18e-05 3.75e-05 
8 1 1.43e-06 5.91e-05 7.29e-05 3.81e-05 
22 1 1.56e-06 7.25e-05 8.23e-05 4.08e-05 
25 1 1.73e-06 6.89e-05 6.41e-05 4.57e-05 
ITEM: TIMESTEP
100
ITEM: NUMBER OF ATOMS
50
ITEM: BOX BOUNDS ff ff ff
0.0000000000000000e+00 1.0000000000000000e-04
0.0000000000000000e+00 1.0000000000000000e-04
0.0000000000000000e+00 5.0000000000000002e-05
ITEM: ATOMS id type diameter x y z 
4 1 1.56021e-06 2.54e-05 4.95e-05 2.97e-06 
9 1 1.93265e-06 4.24e-05 3.03e-05 6.3e-06 
45 1 1.681e-06 3.42e-05 1.74e-05 8.07e-06 
2 1 1.66087e-06 8.52e-06 4.66e-05 1.17e-05 
13 1 1.76153e-06 1.81e-05 3.82e-05 1.33e-05 
36 1 1.44949e-06 3.88e-05 1.29e-05 2.05e-05 
23 1 1.39916e-06 4.02e-05 3.58e-05 2.31e-05 
50 1 1.681e-06 3.72e-05 8.47e-06 3.18e-05 
14 1 1.83199e-06 3.44e-05 1.51e-05 3.71e-05 
3 1 1.50988e-06 2.52e-05 4.08e-05 3.84e-05 
19 1 1.87226e-06 3.66e-05 1.75e-05 4.13e-05 
32 1 1.40923e-06 4.75e-05 1.52e-05 4.34e-05 
12 1 1.94272e-06 2.85e-05 2.84e-05 4.41e-05 
40 1 1.72127e-06 4.55e-06 5.91e-05 7.47e-06 
26 1 1.54008e-06 1.58e-05 8.73e-05 1.69e-05 
41 1 1.681e-06 2.52e-05 6.83e-05 1.81e-05 
33 1 1.86219e-06 2.41e-05 5.93e-05 2.05e-05 
24 1 1.62061e-06 9.09e-06 8.57e-05 2.18e-05 
18 1 1.90245e-06 1.36e-05 9.13e-05 2.26e-05 
28 1 1.86219e-06 6.36e-06 9.53e-05 2.44e-05 
27 1 1.7716e-06 4.84e-05 5.84e-05 2.65e-05 
37 1 1.57028e-06 4.11e-05 8.09e-05 2.81e-05 
48 1 1.37903e-06 3.47e-05 8.35e-05 3.11e-05 
43 1 1.79173e-06 3.79e-05 7.31e-05 3.28e-05 
1 1 1.73133e-06 4.38e-05 9.72e-05 3.66e-05 
11 1 1.93265e-06 1.36e-05 8.63e-05 3.75e-05 
34 1 1.61054e-06 4.59e-05 9.62e-05 3.71e-05 
29 1 1.79173e-06 2.82e-06 6.58e-05 3.84e-05 
44 1 1.78166e-06 3.52e-06 8.21e-05 4.01e-05 
49 1 1.83199e-06 2.49e-05 9.46e-05 4.03e-05 
20 1 1.70114e-06 9.88e-06 9.24e-05 4.17e-05 
10 1 1.49982e-06 6.49e-05 3.5e-05 3.03e-06 
42 1 1.681e-06 9.58e-05 1.34e-05 5.93e-06 
21 1 1.58035e-06 7.83e-05 1.38e-05 6.28e-06 
6 1 1.7716e-06 7.19e-05 3.75e-06 1.05e-05 
17 1 1.62061e-06 7.45e-05 4.47e-05 1.59e-05 
38 1 1.48975e-06 7.69e-05 9.66e-06 2.26e-05 
39 1 1.67094e-06 7.69e-05 4.01e-05 3.39e-05 
35 1 1.76153e-06 8.39e-05 4.83e-05 3.55e-05 
47 1 1.681e-06 9.19e-05 7.82e-06 3.74e-05 
16 1 1.81186e-06 7.83e-05 2.43e-06 4.4e-05 
30 1 1.59041e-06 7.12e-05 5.16e-05 3.74e-06 
7 1 1.82193e-06 8.71e-05 9.71e-05 3.95e-06 
46 1 1.42936e-06 7.6e-05 9.12e-05 1.01e-05 
31 1 1.90245e-06 7.33e-05 8.78e-05 1.78e-05 
5 1 1.7112e-06 5.4e-05 8.75e-05 3.45e-05 
15 1 1.44949e-06 8.03e-05 7.18e-05 3.75e-05 
8 1 1.43942e-06 5.91e-05 7.29e-05 3.81e-05 
22 1 1.57028e-06 7.25e-05 8.23e-05 4.08e-05 
25 1 1.7414e-06 6.89e-05 6.41e-05 4.57e-05 
ITEM: TIMESTEP
200
ITEM: NUMBER OF ATOMS
50
ITEM: BOX BOUNDS ff ff ff
0.0000000000000000e+00 1.0000000000000000e-04
0.0000000000000000e+00 1.0000000000000000e-04
0.0000000000000000e+00 5.0000000000000002e-05
ITEM: ATOMS id type diameter x y z 
4 1 1.57049e-06 2.54e-05 4.95e-05 2.97e-06 
9 1 1.94539e-06 4.24e-05 3.03e-05 6.3e-06 
45 1 1.69208e-06 3.42e-05 1.74e-05 8.07e-06 
2 1 1.67182e-06 8.52e-06 4.66e-05 1.17e-05 
13 1 1.77314e-06 1.81e-05 3.82e-05 1.33e-05 
36 1 1.45904e-06 3.88e-05 1.29e-05 2.05e-05 
23 1 1.40838e-06 4.02e-05 3.58e-05 2.31e-05 
50 1 1.69208e-06 3.72e-05 8.47e-06 3.18e-05 
14 1 1.84406e-06 3.44e-05 1.51e-05 3.71e-05 
3 1 1.51983e-06 2.52e-05 4.08e-05 3.84e-05 
19 1 1.88459e-06 3.66e-05 1.75e-05 4.13e-05 
32 1 1.41851e-06 4.75e-05 1.52e-05 4.34e-05 
12 1 1.95552e-06 2.85e-05 2.84e-05 4.41e-05 
40 1 1.73261e-06 4.55e-06 5.91e-05 7.47e-06 
26 1 1.55023e-06 1.58e-05 8.73e-05 1.69e-05 
41 1 1.69208e-06 2.52e-05 6.83e-05 1.81e-05 
33 1 1.87446e-06 2.41e-05 5.93e-05 2.05e-05 
24 1 1.63129e-06 9.09e-06 8.57e-05 2.18e-05 
18 1 1.91499e-06 1.36e-05 9.13e-05 2.26e-05 
28 1 1.87446e-06 6.36e-06 9.53e-05 2.44e-05 
27 1 1.78327e-06 4.84e-05 5.84e-05 2.65e-05 
37 1 1.58063e-06 4.11e-05 8.09e-05 2.81e-05 
48 1 1.38811e-06 3.47e-05 8.35e-05 3.11e-05 
43 1 1.80354e-06 3.79e-05 7.31e-05 3.28e-05 
1 1 1.74274e-06 4.38e-05 9.72e-05 3.66e-05 
11 1 1.94539e-06 1.36e-05 8.63e-05 3.75e-05 
34 1 1.62116e-06 4.59e-05 9.62e-05 3.71e-05 
29 1 1.80354e-06 2.82e-06 6.58e-05 3.84e-05 
44 1 1.7934e-06 3.52e-06 8.21e-05 4.01e-05 
49 1 1.84406e-06 2.49e-05 9.46e-05 4.03e-05 
20 1 1.71235e-06 9.88e-06 9.24e-05 4.17e-05 
10 1 1.5097e-06 6.49e-05 3.5e-05 3.03e-06 
42 1 1.69208e-06 9.58e-05 1.34e-05 5.93e-06 
21 1 1.59076e-06 7.83e-05 1.38e-05 6.28e-06 
6 1 1.78327e-06 7.19e-05 3.75e-06 1.05e-05 
17 1 1.63129e-06 7.45e-05 4.47e-05 1.59e-05 
38 1 1.49957e-06 7.69e-05 9.66e-06 2.26e-05 
39 1 1.68195e-06 7.69e-05 4.01e-05 3.39e-05 
35 1 1.77314e-06 8.39e-05 4.83e-05 3.55e-05 
47 1 1.69208e-06 9.19e-05 7.82e-06 3.74e-05 
16 1 1.8238e-06 7.83e-05 2.43e-06 4.4e-05 
30 1 1.60089e-06 7.12e-05 5.16e-05 3.74e-06 
7 1 1.83393e-06 8.71e-05 9.71e-05 3.95e-06 
46 1 1.43878e-06 7.6e-05 9.12e-05 1.01e-05 
31 1 1.91499e-06 7.33e-05 8.78e-05 1.78e-05 
5 1 1.72248e-06 5.4e-05 8.75e-05 3.45e-05 
15 1 1.45904e-06 8.03e-05 7.18e-05 3.75e-05 
8 1 1.44891e-06 5.91e-05 7.29e-05 3.81e-05 
22 1 1.58063e-06 7.25e-05 8.23e-05 4.08e-05 
25 1 1.75287e-06 6.89e-05 6.41e-05 4.57e-05 
ITEM: TIMESTEP
300
ITEM: NUMBER OF ATOMS
50
ITEM: BOX BOUNDS ff ff ff
0.0000000000000000e+00 1.0000000000000000e-04
0.0000000000000000e+00 1.0000000000000000e-04
0.0000000000000000e+00 5.0000000000000002e-05
ITEM: ATOMS id type diameter x y z 
4 1 1.58084e-06 2.54e-05 4.95e-05 2.97e-06 
9 1 1.95821e-06 4.24e-05 3.03e-05 6.3e-06 
45 1 1.70323e-06 3.42e-05 1.74e-05 8.07e-06 
2 1 1.68283e-06 8.52e-06 4.66e-05 1.17e-05 
13 1 1.78482e-06 1.81e-05 3.82e-05 1.33e-05 
36 1 1.46865e-06 3.88e-05 1.29e-05 2.05e-05 
23 1 1.41766e-06 4.02e-05 3.58e-05 2.31e-05 
50 1 1.70323e-06 3.72e-05 8.47e-06 3.18e-05 
14 1 1.85622e-06 3.44e-05 1.51e-05 3.71e-05 
3 1 1.52985e-06 2.52e-05 4.08e-05 3.84e-05 
19 1 1.89701e-06 3.66e-05 1.75e-05 4.13e-05 
32 1 1.42786e-06 4.75e-05 1.52e-05 4.34e-05 
12 1 1.9684e-06 2.85e-05 2.84e-05 4.41e-05 
40 1 1.74403e-06 4.55e-06 5.91e-05 7.47e-06 
26 1 1.56045e-06 1.58e-05 8.73e-05 1.69e-05 
41 1 1.70323e-06 2.52e-05 6.83e-05 1.81e-05 
33 1 1.88681e-06 2.41e-05 5.93e-05 2.05e-05 
24 1 1.64204e-06 9.09e-06 8.57e-05 2.18e-05 
18 1 1.92761e-06 1.36e-05 9.13e-05 2.26e-05 
28 1 1.88681e-06 6.36e-06 9.53e-05 2.44e-05 
27 1 1.79502e-06 4.84e-05 5.84e-05 2.65e-05 
37 1 1.59104e-06 4.11e-05 8.09e-05 2.81e-05 
48 1 1.39726e-06 3.47e-05 8.35e-05 3.11e-05 
43 1 1.81542e-06 3.79e-05 7.31e-05 3.28e-05 
1 1 1.75423e-06 4.38e-05 9.72e-05 3.66e-05 
11 1 1.95821e-06 1.36e-05 8.63e-05 3.75e-05 
34 1 1.63184e-06 4.59e-05 9.62e-05 3.71e-05 
29 1 1.81542e-06 2.82e-06 6.58e-05 3.84e-05 
44 1 1.80522e-06 3.52e-06 8.21e-05 4.01e-05 
49 1 1.85622e-06 2.49e-05 9.46e-05 4.03e-05 
20 1 1.72363e-06 9.88e-06 9.24e-05 4.17e-05 
10 1 1.51965e-06 6.49e-05 3.5e-05 3.03e-06 
42 1 1.70323e-06 9.58e-05 1.34e-05 5.93e-06 
21 1 1.60124e-06 7.83e-05 1.38e-05 6.28e-06 
6 1 1.79502e-06 7.19e-05 3.75e-06 1.05e-05 
17 1 1.64204e-06 7.45e-05 4.47e-05 1.59e-05 
38 1 1.50945e-06 7.69e-05 9.66e-06 2.26e-05 
39 1 1.69303e-06 7.69e-05 4.01e-05 3.39e-05 
35 1 1.78482e-06 8.39e-05 4.83e-05 3.55e-05 
47 1 1.70323e-06 9.19e-05 7.82e-06 3.74e-05 
16 1 1.83582e-06 7.83e-05 2.43e-06 4.4e-05 
30 1 1.61144e-06 7.12e-05 5.16e-05 3.74e-06 
7 1 1.84602e-06 8.71e-05 9.71e-05 3.95e-06 
46 1 1.44826e-06 7.6e-05 9.12e-05 1.01e-05 
31 1 1.92761e-06 7.33e-05 8.78e-05 1.78e-05 
5 1 1.73383e-06 5.4e-05 8.75e-05 3.45e-05 
15 1 1.46865e-06 8.03e-05 7.18e-05 3.75e-05 
8 1 1.45846e-06 5.91e-05 7.29e-05 3.81e-05 
22 1 1.59104e-06 7.25e-05 8.23e-05 4.08e-05 
25 1 1.76442e-06 6.89e-05 6.41e-05 4.57e-05 
ITEM: TIMESTEP
400
ITEM: NUMBER OF ATOMS
51
ITEM: BOX BOUNDS ff ff ff
0.0000000000000000e+00 1.0000000000000000e-04
0.0000000000000000e+00 1.0000000000000000e-04
0.0000000000000000e+00 5.0000000000000002e-05
ITEM: ATOMS id type diameter x y z 
4 1 1.59126e-06 2.54e-05 4.95e-05 2.97e-06 
9 1 1.97111e-06 4.24e-05 3.03e-05 6.3e-06 
45 1 1.71445e-06 3.42e-05 1.74e-05 8.07e-06 
2 1 1.69392e-06 8.52e-06 4.66e-05 1.17e-05 
13 1 1.79658e-06 1.81e-05 3.82e-05 1.33e-05 
36 1 1.47833e-06 3.88e-05 1.29e-05 2.05e-05 
23 1 1.427e-06 4.02e-05 3.58e-05 2.31e-05 
50 1 1.71445e-06 3.72e-05 8.47e-06 3.18e-05 
14 1 1.86845e-06 3.44e-05 1.51e-05 3.71e-05 
3 1 1.53993e-06 2.52e-05 4.08e-05 3.84e-05 
19 1 1.90951e-06 3.66e-05 1.75e-05 4.13e-05 
32 1 1.43727e-06 4.75e-05 1.52e-05 4.34e-05 
12 1 1.49432e-06 2.78776e-05 2.82228e-05 4.44711e-05 
51 1 1.64381e-06 2.91846e-05 2.85949e-05 4.36917e-05 
40 1 1.75552e-06 4.55e-06 5.91e-05 7.47e-06 
26 1 1.57073e-06 1.58e-05 8.73e-05 1.69e-05 
41 1 1.71445e-06 2.52e-05 6.83e-05 1.81e-05 
33 1 1.89925e-06 2.41e-05 5.93e-05 2.05e-05 
24 1 1.65286e-06 9.09e-06 8.57e-05 2.18e-05 
18 1 1.94031e-06 1.36e-05 9.13e-05 2.26e-05 
28 1 1.89925e-06 6.36e-06 9.53e-05 2.44e-05 
27 1 1.80685e-06 4.84e-05 5.84e-05 2.65e-05 
37 1 1.60153e-06 4.11e-05 8.09e-05 2.81e-05 
48 1 1.40647e-06 3.47e-05 8.35e-05 3.11e-05 
43 1 1.82738e-06 3.79e-05 7.31e-05 3.28e-05 
1 1 1.76579e-06 4.38e-05 9.72e-05 3.66e-05 
11 1 1.97111e-06 1.36e-05 8.63e-05 3.75e-05 
34 1 1.64259e-06 4.59e-05 9.62e-05 3.71e-05 
29 1 1.82738e-06 2.82e-06 6.58e-05 3.84e-05 
44 1 1.81712e-06 3.52e-06 8.21e-05 4.01e-05 
49 1 1.86845e-06 2.49e-05 9.46e-05 4.03e-05 
20 1 1.73499e-06 9.88e-06 9.24e-05 4.17e-05 
10 1 1.52966e-06 6.49e-05 3.5e-05 3.03e-06 
42 1 1.71445e-06 9.58e-05 1.34e-05 5.93e-06 
21 1 1.61179e-06 7.83e-05 1.38e-05 6.28e-06 
6 1 1.80685e-06 7.19e-05 3.75e-06 1.05e-05 
17 1 1.65286e-06 7.45e-05 4.47e-05 1.59e-05 
38 1 1.5194e-06 7.69e-05 9.66e-06 2.26e-05 
39 1 1.70419e-06 7.69e-05 4.01e-05 3.39e-05 
35 1 1.79658e-06 8.39e-05 4.83e-05 3.55e-05 
47 1 1.71445e-06 9.19e-05 7.82e-06 3.74e-05 
16 1 1.84791e-06 7.83e-05 2.43e-06 4.4e-05 
30 1 1.62206e-06 7.12e-05 5.16e-05 3.74e-06 
7 1 1.85818e-06 8.71e-05 9.71e-05 3.95e-06 
46 1 1.4578e-06 7.6e-05 9.12e-05 1.01e-05 
31 1 1.94031e-06 7.33e-05 8.78e-05 1.78e-05 
5 1 1.74525e-06 5.4e-05 8.75e-05 3.45e-05 
15 1 1.47833e-06 8.03e-05 7.18e-05 3.75e-05 
8 1 1.46807e-06 5.91e-05 7.29e-05 3.81e-05 
22 1 1.60153e-06 7.25e-05 8.23e-05 4.08e-05 
25 1 1.77605e-06 6.89e-05 6.41e-05 4.57e-05 
ITEM: TIMESTEP
500
ITEM: NUMBER OF ATOMS
53
ITEM: BOX BOUNDS ff ff ff
0.0000000000000000e+00 1.0000000000000000e-04
0.0000000000000000e+00 1.0000000000000000e-04
0.0000000000000000e+00 5.0000000000000002e-05
ITEM: ATOMS id type diameter x y z 
4 1 1.60175e-06 2.54e-05 4.95e-05 2.97e-06 
9 1 1.49637e-06 4.17768e-05 3.01226e-05 6.67166e-06 
45 1 1.72575e-06 3.42e-05 1.74e-05 8.07e-06 
2 1 1.70508e-06 8.52e-06 4.66e-05 1.17e-05 
13 1 1.80842e-06 1.81e-05 3.82e-05 1.33e-05 
52 1 1.64607e-06 4.30856e-05 3.04952e-05 5.89116e-06 
36 1 1.48807e-06 3.88e-05 1.29e-05 2.05e-05 
23 1 1.4364e-06 4.02e-05 3.58e-05 2.31e-05 
50 1 1.72575e-06 3.72e-05 8.47e-06 3.18e-05 
14 1 1.88076e-06 3.44e-05 1.51e-05 3.71e-05 
3 1 1.55008e-06 2.52e-05 4.08e-05 3.84e-05 
19 1 1.92209e-06 3.66e-05 1.75e-05 4.13e-05 
32 1 1.44674e-06 4.75e-05 1.52e-05 4.34e-05 
12 1 1.50416e-06 2.78776e-05 2.82228e-05 4.44711e-05 
51 1 1.65465e-06 2.91846e-05 2.85949e-05 4.36917e-05 
40 1 1.76709e-06 4.55e-06 5.91e-05 7.47e-06 
26 1 1.58108e-06 1.58e-05 8.73e-05 1.69e-05 
41 1 1.72575e-06 2.52e-05 6.83e-05 1.81e-05 
33 1 1.91176e-06 2.41e-05 5.93e-05 2.05e-05 
24 1 1.66375e-06 9.09e-06 8.57e-05 2.18e-05 
18 1 1.9531e-06 1.36e-05 9.13e-05 2.26e-05 
28 1 1.91176e-06 6.36e-06 9.53e-05 2.44e-05 
27 1 1.81876e-06 4.84e-05 5.84e-05 2.65e-05 
37 1 1.61208e-06 4.11e-05 8.09e-05 2.81e-05 
48 1 1.41574e-06 3.47e-05 8.35e-05 3.11e-05 
43 1 1.83942e-06 3.79e-05 7.31e-05 3.28e-05 
1 1 1.77742e-06 4.38e-05 9.72e-05 3.66e-05 
11 1 1.49637e-06 1.29768e-05 8.61226e-05 3.78717e-05 
34 1 1.65341e-06 4.59e-05 9.62e-05 3.71e-05 
29 1 1.83942e-06 2.82e-06 6.58e-05 3.84e-05 
44 1 1.82909e-06 3.52e-06 8.21e-05 4.01e-05 
49 1 1.88076e-06 2.49e-05 9.46e-05 4.03e-05 
20 1 1.74642e-06 9.88e-06 9.24e-05 4.17e-05 
53 1 1.64607e-06 1.42856e-05 8.64952e-05 3.70912e-05 
10 1 1.53974e-06 6.49e-05 3.5e-05 3.03e-06 
42 1 1.72575e-06 9.58e-05 1.34e-05 5.93e-06 
21 1 1.62241e-06 7.83e-05 1.38e-05 6.28e-06 
6 1 1.81876e-06 7.19e-05 3.75e-06 1.05e-05 
17 1 1.66375e-06 7.45e-05 4.47e-05 1.59e-05 
38 1 1.52941e-06 7.69e-05 9.66e-06 2.26e-05 
39 1 1.71542e-06 7.69e-05 4.01e-05 3.39e-05 
35 1 1.80842e-06 8.39e-05 4.83e-05 3.55e-05 
47 1 1.72575e-06 9.19e-05 7.82e-06 3.74e-05 
16 1 1.86009e-06 7.83e-05 2.43e-06 4.4e-05 
30 1 1.63275e-06 7.12e-05 5.16e-05 3.74e-06 
7 1 1.87043e-06 8.71e-05 9.71e-05 3.95e-06 
46 1 1.46741e-06 7.6e-05 9.12e-05 1.01e-05 
31 1 1.9531e-06 7.33e-05 8.78e-05 1.78e-05 
5 1 1.75675e-06 5.4e-05 8.75e-05 3.45e-05 
15 1 1.48807e-06 8.03e-05 7.18e-05 3.75e-05 
8 1 1.47774e-06 5.91e-05 7.29e-05 3.81e-05 
22 1 1.61208e-06 7.25e-05 8.23e-05 4.08e-05 
25 1 1.78775e-06 6.89e-05 6.41e-05 4.57e-05 
ITEM: TIMESTEP
600
ITEM: NUMBER OF ATOMS
53
ITEM: BOX BOUNDS ff ff ff
0.0000000000000000e+00 1.0000000000000000e-04
0.0000000000000000e+00 1.0000000000000000e-04
0.0000000000000000e+00 5.0000000000000002e-05
ITEM: ATOMS id type diameter x y z 
4 1 1.6123e-06 2.54e-05 4.95e-05 2.97e-06 
9 1 1.50623e-06 4.17768e-05 3.01226e-05 6.67166e-06 
45 1 1.73712e-06 3.42e-05 1.74e-05 8.07e-06 
2 1 1.71632e-06 8.52e-06 4.66e-05 1.17e-05 
13 1 1.82034e-06 1.81e-05 3.82e-05 1.33e-05 
52 1 1.65692e-06 4.30856e-05 3.04952e-05 5.89116e-06 
36 1 1.49788e-06 3.88e-05 1.29e-05 2.05e-05 
23 1 1.44587e-06 4.02e-05 3.58e-05 2.31e-05 
50 1 1.73712e-06 3.72e-05 8.47e-06 3.18e-05 
14 1 1.89315e-06 3.44e-05 1.51e-05 3.71e-05 
3 1 1.56029e-06 2.52e-05 4.08e-05 3.84e-05 
19 1 1.93476e-06 3.66e-05 1.75e-05 4.13e-05 
32 1 1.45627e-06 4.75e-05 1.52e-05 4.34e-05 
12 1 1.51407e-06 2.78776e-05 2.82228e-05 4.44711e-05 
51 1 1.66555e-06 2.91846e-05 2.85949e-05 4.36917e-05 
40 1 1.77873e-06 4.55e-06 5.91e-05 7.47e-06 
26 1 1.5915e-06 1.58e-05 8.73e-05 1.69e-05 
41 1 1.73712e-06 2.52e-05 6.83e-05 1.81e-05 
33 1 1.92436e-06 2.41e-05 5.93e-05 2.05e-05 
24 1 1.67471e-06 9.09e-06 8.57e-05 2.18e-05 
18 1 1.96597e-06 1.36e-05 9.13e-05 2.26e-05 
28 1 1.92436e-06 6.36e-06 9.53e-05 2.44e-05 
27 1 1.83074e-06 4.84e-05 5.84e-05 2.65e-05 
37 1 1.6227e-06 4.11e-05 8.09e-05 2.81e-05 
48 1 1.42507e-06 3.47e-05 8.35e-05 3.11e-05 
43 1 1.85154e-06 3.79e-05 7.31e-05 3.28e-05 
1 1 1.78913e-06 4.38e-05 9.72e-05 3.66e-05 
11 1 1.50623e-06 1.29768e-05 8.61226e-05 3.78717e-05 
34 1 1.66431e-06 4.59e-05 9.62e-05 3.71e-05 
29 1 1.85154e-06 2.82e-06 6.58e-05 3.84e-05 
44 1 1.84114e-06 3.52e-06 8.21e-05 4.01e-05 
49 1 1.89315e-06 2.49e-05 9.46e-05 4.03e-05 
20 1 1.75793e-06 9.88e-06 9.24e-05 4.17e-05 
53 1 1.65692e-06 1.42856e-05 8.64952e-05 3.70912e-05 
10 1 1.54989e-06 6.49e-05 3.5e-05 3.03e-06 
42 1 1.73712e-06 9.58e-05 1.34e-05 5.93e-06 
21 1 1.6331e-06 7.83e-05 1.38e-05 6.28e-06 
6 1 1.83074e-06 7.19e-05 3.75e-06 1.05e-05 
17 1 1.67471e-06 7.45e-05 4.47e-05 1.59e-05 
38 1 1.53949e-06 7.69e-05 9.66e-06 2.26e-05 
39 1 1.72672e-06 7.69e-05 4.01e-05 3.39e-05 
35 1 1.82034e-06 8.39e-05 4.83e-05 3.55e-05 
47 1 1.73712e-06 9.19e-05 7.82e-06 3.74e-05 
16 1 1.87235e-06 7.83e-05 2.43e-06 4.4e-05 
30 1 1.64351e-06 7.12e-05 5.16e-05 3.74e-06 
7 1 1.88275e-06 8.71e-05 9.71e-05 3.95e-06 
46 1 1.47707e-06 7.6e-05 9.12e-05 1.01e-05 
31 1 1.96597e-06 7.33e-05 8.78e-05 1.78e-05 
5 1 1.76833e-06 5.4e-05 8.75e-05 3.45e-05 
15 1 1.49788e-06 8.03e-05 7.18e-05 3.75e-05 
8 1 1.48748e-06 5.91e-05 7.29e-05 3.81e-05 
22 1 1.6227e-06 7.25e-05 8.23e-05 4.08e-05 
25 1 1.79953e-06 6.89e-05 6.41e-05 4.57e-05 
ITEM: TIMESTEP
700
ITEM: NUMBER OF ATOMS
55
ITEM: BOX BOUNDS ff ff ff
0.0000000000000000e+00 1.0000000000000000e-04
0.0000000000000000e+00 1.0000000000000000e-04
0.0000000000000000e+00 5.0000000000000002e-05
ITEM: ATOMS id type diameter x y z 
4 1 1.62292e-06 2.54e-05 4.95e-05 2.97e-06 
9 1 1.51615e-06 4.17768e-05 3.01226e-05 6.67166e-06 
45 1 1.74857e-06 3.42e-05 1.74e-05 8.07e-06 
2 1 1.72763e-06 8.52e-06 4.66e-05 1.17e-05 
13 1 1.83233e-06 1.81e-05 3.82e-05 1.33e-05 
52 1 1.66784e-06 4.30856e-05 3.04952e-05 5.89116e-06 
36 1 1.50775e-06 3.88e-05 1.29e-05 2.05e-05 
23 1 1.4554e-06 4.02e-05 3.58e-05 2.31e-05 
50 1 1.74857e-06 3.72e-05 8.47e-06 3.18e-05 
14 1 1.90563e-06 3.44e-05 1.51e-05 3.71e-05 
3 1 1.57057e-06 2.52e-05 4.08e-05 3.84e-05 
19 1 1.94751e-06 3.66e-05 1.75e-05 4.13e-05 
32 1 1.46587e-06 4.75e-05 1.52e-05 4.34e-05 
12 1 1.52405e-06 2.78609e-05 2.82181e-05 4.44811e-05 
51 1 1.67652e-06 2.92013e-05 2.85996e-05 4.36818e-05 
40 1 1.79045e-06 4.55e-06 5.91e-05 7.47e-06 
26 1 1.60198e-06 1.58e-05 8.73e-05 1.69e-05 
41 1 1.74857e-06 2.52e-05 6.83e-05 1.81e-05 
33 1 1.93704e-06 2.41e-05 5.93e-05 2.05e-05 
24 1 1.68575e-06 9.09e-06 8.57e-05 2.18e-05 
18 1 1.58489e-06 1.36093e-05 9.13038e-05 2.33911e-05 
28 1 1.93704e-06 6.36e-06 9.53e-05 2.44e-05 
27 1 1.8428e-06 4.84e-05 5.84e-05 2.65e-05 
37 1 1.63339e-06 4.11e-05 8.09e-05 2.81e-05 
48 1 1.43446e-06 3.47e-05 8.35e-05 3.11e-05 
43 1 1.86375e-06 3.79e-05 7.31e-05 3.28e-05 
1 1 1.80092e-06 4.38e-05 9.72e-05 3.66e-05 
11 1 1.51615e-06 1.29768e-05 8.61226e-05 3.78717e-05 
34 1 1.67528e-06 4.59e-05 9.62e-05 3.71e-05 
29 1 1.86375e-06 2.82e-06 6.58e-05 3.84e-05 
44 1 1.85327e-06 3.52e-06 8.21e-05 4.01e-05 
49 1 1.90563e-06 2.49e-05 9.46e-05 4.03e-05 
20 1 1.76951e-06 9.88e-06 9.24e-05 4.17e-05 
53 1 1.66784e-06 1.42856e-05 8.64952e-05 3.70912e-05 
54 1 1.55619e-06 1.35909e-05 9.12963e-05 2.18232e-05 
10 1 1.5601e-06 6.49e-05 3.5e-05 3.03e-06 
42 1 1.74857e-06 9.58e-05 1.34e-05 5.93e-06 
21 1 1.64387e-06 7.83e-05 1.38e-05 6.28e-06 
6 1 1.8428e-06 7.19e-05 3.75e-06 1.05e-05 
17 1 1.68575e-06 7.45e-05 4.47e-05 1.59e-05 
38 1 1.54963e-06 7.69e-05 9.66e-06 2.26e-05 
39 1 1.7381e-06 7.69e-05 4.01e-05 3.39e-05 
35 1 1.83233e-06 8.39e-05 4.83e-05 3.55e-05 
47 1 1.74857e-06 9.19e-05 7.82e-06 3.74e-05 
16 1 1.88469e-06 7.83e-05 2.43e-06 4.4e-05 
30 1 1.65434e-06 7.12e-05 5.16e-05 3.74e-06 
7 1 1.89516e-06 8.71e-05 9.71e-05 3.95e-06 
46 1 1.48681e-06 7.6e-05 9.12e-05 1.01e-05 
31 1 1.49246e-06 7.26784e-05 8.76231e-05 1.81707e-05 
55 1 1.64178e-06 7.39838e-05 8.79947e-05 1.73922e-05 
5 1 1.77998e-06 5.4e-05 8.75e-05 3.45e-05 
15 1 1.50775e-06 8.03e-05 7.18e-05 3.75e-05 
8 1 1.49728e-06 5.91e-05 7.29e-05 3.81e-05 
22 1 1.63339e-06 7.25e-05 8.23e-05 4.08e-05 
25 1 1.81139e-06 6.89e-05 6.41e-05 4.57e-05 
ITEM: TIMESTEP
800
ITEM: NUMBER OF ATOMS
55
ITEM: BOX BOUNDS ff ff ff
0.0000000000000000e+00 1.0000000000000000e-04
0.0000000000000000e+00 1.0000000000000000e-04
0.0000000000000000e+00 5.0000000000000002e-05
ITEM: ATOMS id type diameter x y z 
4 1 1.63362e-06 2.54e-05 4.95e-05 2.97e-06 
9 1 1.52615e-06 4.17601e-05 3.01178e-05 6.68161e-06 
45 1 1.76009e-06 3.42e-05 1.74e-05 8.07e-06 
2 1 1.73901e-06 8.52e-06 4.66e-05 1.17e-05 
13 1 1.84441e-06 1.81e-05 3.82e-05 1.33e-05 
52 1 1.67883e-06 4.31023e-05 3.04999e-05 5.88121e-06 
36 1 1.51768e-06 3.88e-05 1.29e-05 2.05e-05 
23 1 1.46499e-06 4.02e-05 3.58e-05 2.31e-05 
50 1 1.76009e-06 3.72e-05 8.47e-06 3.18e-05 
14 1 1.91818e-06 3.44e-05 1.51e-05 3.71e-05 
3 1 1.58092e-06 2.52e-05 4.08e-05 3.84e-05 
19 1 1.96034e-06 3.66e-05 1.75e-05 4.13e-05 
32 1 1.47553e-06 4.75e-05 1.52e-05 4.34e-05 
12 1 1.53409e-06 2.78609e-05 2.82181e-05 4.44811e-05 
51 1 1.68757e-06 2.92013e-05 2.85996e-05 4.36818e-05 
40 1 1.80225e-06 4.55e-06 5.91e-05 7.47e-06 
26 1 1.61254e-06 1.58e-05 8.73e-05 1.69e-05 
41 1 1.76009e-06 2.52e-05 6.83e-05 1.81e-05 
33 1 1.9498e-06 2.41e-05 5.93e-05 2.05e-05 
24 1 1.69686e-06 9.09e-06 8.57e-05 2.18e-05 
18 1 1.59533e-06 1.36093e-05 9.13038e-05 2.33911e-05 
28 1 1.9498e-06 6.36e-06 9.53e-05 2.44e-05 
27 1 1.85495e-06 4.84e-05 5.84e-05 2.65e-05 
37 1 1.64416e-06 4.11e-05 8.09e-05 2.81e-05 
48 1 1.44391e-06 3.47e-05 8.35e-05 3.11e-05 
43 1 1.87603e-06 3.79e-05 7.31e-05 3.28e-05 
1 1 1.81279e-06 4.38e-05 9.72e-05 3.66e-05 
11 1 1.52615e-06 1.29601e-05 8.61178e-05 3.78816e-05 
34 1 1.68632e-06 4.59e-05 9.62e-05 3.71e-05 
29 1 1.87603e-06 2.82e-06 6.58e-05 3.84e-05 
44 1 1.86549e-06 3.52e-06 8.21e-05 4.01e-05 
49 1 1.91818e-06 2.49e-05 9.46e-05 4.03e-05 
20 1 1.78117e-06 9.88e-06 9.24e-05 4.17e-05 
53 1 1.67883e-06 1.43023e-05 8.64999e-05 3.70812e-05 
54 1 1.56644e-06 1.35909e-05 9.12963e-05 2.18232e-05 
10 1 1.57038e-06 6.49e-05 3.5e-05 3.03e-06 
42 1 1.76009e-06 9.58e-05 1.34e-05 5.93e-06 
21 1 1.6547e-06 7.83e-05 1.38e-05 6.28e-06 
6 1 1.85495e-06 7.19e-05 3.75e-06 1.05e-05 
17 1 1.69686e-06 7.45e-05 4.47e-05 1.59e-05 
38 1 1.55984e-06 7.69e-05 9.66e-06 2.26e-05 
39 1 1.74955e-06 7.69e-05 4.01e-05 3.39e-05 
35 1 1.84441e-06 8.39e-05 4.83e-05 3.55e-05 
47 1 1.76009e-06 9.19e-05 7.82e-06 3.74e-05 
16 1 1.89711e-06 7.83e-05 2.43e-06 4.4e-05 
30 1 1.66524e-06 7.12e-05 5.16e-05 3.74e-06 
7 1 1.90764e-06 8.71e-05 9.71e-05 3.95e-06 
46 1 1.49661e-06 7.6e-05 9.12e-05 1.01e-05 
31 1 1.5023e-06 7.26784e-05 8.76231e-05 1.81707e-05 
55 1 1.6526e-06 7.39838e-05 8.79947e-05 1.73922e-05 
5 1 1.79171e-06 5.4e-05 8.75e-05 3.45e-05 
15 1 1.51768e-06 8.03e-05 7.18e-05 3.75e-05 
8 1 1.50714e-06 5.91e-05 7.29e-05 3.81e-05 
22 1 1.64416e-06 7.25e-05 8.23e-05 4.08e-05 
25 1 1.82333e-06 6.89e-05 6.41e-05 4.57e-05 
ITEM: TIMESTEP
900
ITEM: NUMBER OF ATOMS
56
ITEM: BOX BOUNDS ff ff ff
0.0000000000000000e+00 1.0000000000000000e-04
0.0000000000000000e+00 1.0000000000000000e-04
0.0000000000000000e+00 5.0000000000000002e-05
ITEM: ATOMS id type diameter x y z 
4 1 1.64438e-06 2.54e-05 4.95e-05 2.97e-06 
9 1 1.5362e-06 4.17601e-05 3.01178e-05 6.68161e-06 
45 1 1.77169e-06 3.42e-05 1.74e-05 8.07e-06 
2 1 1.75047e-06 8.52e-06 4.66e-05 1.17e-05 
13 1 1.85656e-06 1.81e-05 3.82e-05 1.33e-05 
52 1 1.68989e-06 4.31023e-05 3.04999e-05 5.88121e-06 
36 1 1.52768e-06 3.88e-05 1.29e-05 2.05e-05 
23 1 1.47464e-06 4.02e-05 3.58e-05 2.31e-05 
50 1 1.77169e-06 3.72e-05 8.47e-06 3.18e-05 
14 1 1.93082e-06 3.44e-05 1.51e-05 3.71e-05 
3 1 1.59134e-06 2.52e-05 4.08e-05 3.84e-05 
19 1 1.58036e-06 3.66093e-05 1.75038e-05 4.20889e-05 
32 1 1.48525e-06 4.75e-05 1.52e-05 4.34e-05 
12 1 1.5442e-06 2.78609e-05 2.82181e-05 4.44811e-05 
51 1 1.69869e-06 2.92013e-05 2.85996e-05 4.36818e-05 
56 1 1.55174e-06 3.65909e-05 1.74963e-05 4.05254e-05 
40 1 1.81413e-06 4.55e-06 5.91e-05 7.47e-06 
26 1 1.62316e-06 1.58e-05 8.73e-05 1.69e-05 
41 1 1.77169e-06 2.52e-05 6.83e-05 1.81e-05 
33 1 1.96265e-06 2.41e-05 5.93e-05 2.05e-05 
24 1 1.70804e-06 9.09e-06 8.57e-05 2.18e-05 
18 1 1.60585e-06 1.36093e-05 9.13038e-05 2.33911e-05 
28 1 1.96265e-06 6.36e-06 9.53e-05 2.44e-05 
27 1 1.86717e-06 4.84e-05 5.84e-05 2.65e-05 
37 1 1.65499e-06 4.11e-05 8.09e-05 2.81e-05 
48 1 1.45342e-06 3.47e-05 8.35e-05 3.11e-05 
43 1 1.88839e-06 3.79e-05 7.31e-05 3.28e-05 
1 1 1.82473e-06 4.38e-05 9.72e-05 3.66e-05 
11 1 1.5362e-06 1.29601e-05 8.61178e-05 3.78816e-05 
34 1 1.69743e-06 4.59e-05 9.62e-05 3.71e-05 
29 1 1.88839e-06 2.82e-06 6.58e-05 3.84e-05 
44 1 1.87778e-06 3.52e-06 8.21e-05 4.01e-05 
49 1 1.93082e-06 2.49e-05 9.46e-05 4.03e-05 
20 1 1.79291e-06 9.88e-06 9.24e-05 4.17e-05 
53 1 1.68989e-06 1.43023e-05 8.64999e-05 3.70812e-05 
54 1 1.57676e-06 1.35909e-05 9.12963e-05 2.18232e-05 
10 1 1.58073e-06 6.49e-05 3.5e-05 3.03e-06 
42 1 1.77169e-06 9.58e-05 1.34e-05 5.93e-06 
21 1 1.6656e-06 7.83e-05 1.38e-05 6.28e-06 
6 1 1.86717e-06 7.19e-05 3.75e-06 1.05e-05 
17 1 1.70804e-06 7.45e-05 4.47e-05 1.59e-05 
38 1 1.57012e-06 7.69e-05 9.66e-06 2.26e-05 
39 1 1.76108e-06 7.69e-05 4.01e-05 3.39e-05 
35 1 1.85656e-06 8.39e-05 4.83e-05 3.55e-05 
47 1 1.77169e-06 9.19e-05 7.82e-06 3.74e-05 
16 1 1.90961e-06 7.83e-05 2.43e-06 4.4e-05 
30 1 1.67621e-06 7.12e-05 5.16e-05 3.74e-06 
7 1 1.92021e-06 8.71e-05 9.71e-05 3.95e-06 
46 1 1.50647e-06 7.6e-05 9.12e-05 1.01e-05 
31 1 1.5122e-06 7.26784e-05 8.76231e-05 1.81707e-05 
55 1 1.66349e-06 7.39838e-05 8.79947e-05 1.73922e-05 
5 1 1.80352e-06 5.4e-05 8.75e-05 3.45e-05 
15 1 1.52768e-06 8.03e-05 7.18e-05 3.75e-05 
8 1 1.51708e-06 5.91e-05 7.29e-05 3.81e-05 
22 1 1.65499e-06 7.25e-05 8.23e-05 4.08e-05 
25 1 1.83534e-06 6.89e-05 6.41e-05 4.57e-05 
ITEM: TIMESTEP
1000
ITEM: NUMBER OF ATOMS
58
ITEM: BOX BOUNDS ff ff ff
0.0000000000000000e+00 1.0000000000000000e-04
0.0000000000000000e+00 1.0000000000000000e-04
0.0000000000000000e+00 5.0000000000000002e-05
ITEM: ATOMS id type diameter x y z 
4 1 1.65522e-06 2.54e-05 4.95e-05 2.97e-06 
52 1 1.70103e-06 4.31023e-05 3.04999e-05 5.88121e-06 
9 1 1.54632e-06 4.17601e-05 3.01178e-05 6.68161e-06 
45 1 1.78336e-06 3.42e-05 1.74e-05 8.07e-06 
2 1 1.76201e-06 8.52e-06 4.66e-05 1.17e-05 
13 1 1.86879e-06 1.81e-05 3.82e-05 1.33e-05 
36 1 1.53775e-06 3.88e-05 1.29e-05 2.05e-05 
23 1 1.48436e-06 4.02e-05 3.58e-05 2.31e-05 
50 1 1.78336e-06 3.72e-05 8.47e-06 3.18e-05 
14 1 1.94355e-06 3.44e-05 1.51e-05 3.71e-05 
3 1 1.60182e-06 2.52e-05 4.08e-05 3.84e-05 
56 1 1.56196e-06 3.65909e-05 1.74963e-05 4.05254e-05 
19 1 1.59077e-06 3.66093e-05 1.75038e-05 4.20889e-05 
32 1 1.49504e-06 4.75e-05 1.52e-05 4.34e-05 
51 1 1.70989e-06 2.92013e-05 2.85996e-05 4.36818e-05 
12 1 1.55438e-06 2.78609e-05 2.82181e-05 4.44811e-05 
40 1 1.82608e-06 4.55e-06 5.91e-05 7.47e-06 
26 1 1.63386e-06 1.58e-05 8.73e-05 1.69e-05 
41 1 1.78336e-06 2.52e-05 6.83e-05 1.81e-05 
57 1 1.48515e-06 2.4218e-05 5.92471e-05 1.977e-05 
33 1 1.64295e-06 2.39694e-05 5.93585e-05 2.13076e-05 
24 1 1.71929e-06 9.09e-06 8.57e-05 2.18e-05 
54 1 1.58715e-06 1.35906e-05 9.12962e-05 2.18032e-05 
18 1 1.61643e-06 1.36095e-05 9.13039e-05 2.34111e-05 
58 1 1.61028e-06 5.68157e-06 9.4906e-05 2.42248e-05 
28 1 1.52335e-06 7.00181e-06 9.56727e-05 2.45657e-05 
27 1 1.87947e-06 4.84e-05 5.84e-05 2.65e-05 
37 1 1.6659e-06 4.11e-05 8.09e-05 2.81e-05 
48 1 1.463e-06 3.47e-05 8.35e-05 3.11e-05 
43 1 1.90083e-06 3.79e-05 7.31e-05 3.28e-05 
1 1 1.83676e-06 4.38e-05 9.72e-05 3.66e-05 
53 1 1.70103e-06 1.43023e-05 8.64999e-05 3.70812e-05 
34 1 1.70861e-06 4.59e-05 9.62e-05 3.71e-05 
11 1 1.54632e-06 1.29601e-05 8.61178e-05 3.78816e-05 
29 1 1.90083e-06 2.82e-06 6.58e-05 3.84e-05 
44 1 1.89015e-06 3.52e-06 8.21e-05 4.01e-05 
49 1 1.94355e-06 2.49e-05 9.46e-05 4.03e-05 
20 1 1.80472e-06 9.88e-06 9.24e-05 4.17e-05 
10 1 1.59115e-06 6.49e-05 3.5e-05 3.03e-06 
42 1 1.78336e-06 9.58e-05 1.34e-05 5.93e-06 
21 1 1.67658e-06 7.83e-05 1.38e-05 6.28e-06 
6 1 1.87947e-06 7.19e-05 3.75e-06 1.05e-05 
17 1 1.71929e-06 7.45e-05 4.47e-05 1.59e-05 
38 1 1.58047e-06 7.69e-05 9.66e-06 2.26e-05 
39 1 1.77269e-06 7.69e-05 4.01e-05 3.39e-05 
35 1 1.86879e-06 8.39e-05 4.83e-05 3.55e-05 
47 1 1.78336e-06 9.19e-05 7.82e-06 3.74e-05 
16 1 1.92219e-06 7.83e-05 2.43e-06 4.4e-05 
30 1 1.68725e-06 7.12e-05 5.16e-05 3.74e-06 
7 1 1.93287e-06 8.71e-05 9.71e-05 3.95e-06 
46 1 1.51639e-06 7.6e-05 9.12e-05 1.01e-05 
55 1 1.67445e-06 7.40005e-05 8.79994e-05 1.73823e-05 
31 1 1.52216e-06 7.26617e-05 8.76183e-05 1.81806e-05 
5 1 1.8154e-06 5.4e-05 8.75e-05 3.45e-05 
15 1 1.53775e-06 8.03e-05 7.18e-05 3.75e-05 
8 1 1.52707e-06 5.91e-05 7.29e-05 3.81e-05 
22 1 1.6659e-06 7.25e-05 8.23e-05 4.08e-05 
25 1 1.84744e-06 6.89e-05 6.41e-05 4.57e-05 
ITEM: TIMESTEP
1100
ITEM: NUMBER OF ATOMS
58
ITEM: BOX BOUNDS ff ff ff
0.0000000000000000e+00 1.0000000000000000e-04
0.0000000000000000e+00 1.0000000000000000e-04
0.0000000000000000e+00 5.0000000000000002e-05
ITEM: ATOMS id type diameter x y z 
4 1 1.66613e-06 2.54e-05 4.95e-05 2.97e-06 
52 1 1.71223e-06 4.31023e-05 3.04999e-05 5.88121e-06 
9 1 1.55651e-06 4.17601e-05 3.01178e-05 6.68161e-06 
45 1 1.79512e-06 3.42e-05 1.74e-05 8.07e-06 
2 1 1.77362e-06 8.52e-06 4.66e-05 1.17e-05 
13 1 1.88111e-06 1.81e-05 3.82e-05 1.33e-05 
36 1 1.54788e-06 3.88e-05 1.29e-05 2.05e-05 
23 1 1.49414e-06 4.02e-05 3.58e-05 2.31e-05 
50 1 1.79512e-06 3.72e-05 8.47e-06 3.18e-05 
14 1 1.95635e-06 3.44e-05 1.51e-05 3.71e-05 
3 1 1.61238e-06 2.52e-05 4.08e-05 3.84e-05 
56 1 1.57225e-06 3.65909e-05 1.74963e-05 4.05254e-05 
19 1 1.60125e-06 3.66093e-05 1.75038e-05 4.20889e-05 
32 1 1.50489e-06 4.75e-05 1.52e-05 4.34e-05 
51 1 1.72115e-06 2.9218e-05 2.86044e-05 4.36718e-05 