LAMMPS (20 Nov 2019)
# NUFEB simulation

atom_style	bio
atom_modify	map array sort 1000 5.0e-7
boundary	ff ff ff
newton		off
processors  * * *

comm_modify	vel yes
#variable reps loop 1
read_data_bio atom_50_50_100_1_2021-08-31.in
  orthogonal box = (0 0 0) to (0.0001 0.0001 1e-05)
  8 by 4 by 1 MPI processor grid
  reading atoms ...
  100 atoms
  4 nutrients
#shell mkdir Run_50_50_100_1
#shell cd Run_50_50_100_1
##############Define initial particle distribution##############

lattice sc 1e-6 origin 0 0 0
Lattice spacing in x,y,z = 100 100 100
region reg block 0 1000 0 1000 0 100

group CYANO type 1
50 atoms in group CYANO
group ECW type 2
50 atoms in group ECW

neighbor	5e-7 bin
neigh_modify	delay 0 one 5000

##############Define DEM Variables&Commands##############

pair_style  gran/hooke/history 1.e-4 NULL 1.e-5 NULL 0.0 1
pair_coeff  * *

timestep 10

fix 1 all nve/limit 1e-8
fix fv all viscous 1e-5

fix zw all wall/gran hooke/history 2000 NULL 500.0 NULL 1.5 0 zplane  0.0  1e-05

variable kanc equal 50

variable ke equal 5e+10


##############Define IBm Variables##############

#variables used in fix eps_extract
variable EPSdens equal 30
variable EPSratio equal 1.3

#variables used in fix division
variable divDia1 equal 1.96e-6
variable divDia2 equal 1.04e-6

#variables used in fix kinetics
variable diffT equal 1e-4
variable tol equal 1e-11
variable etaHET equal 0.6
variable layer equal -1

#variables used in fix death
#variable deadDia equal 9e-7


##############Define IBm Commands##############

fix k1 all kinetics 100 50 50 5 v_diffT v_layer niter 1000000
fix kgm all kinetics/growth/monod sucexp 1.0
fix g1 all kinetics/diffusion v_tol
fix d1 CYANO divide 100 v_EPSdens v_divDia1 965187
fix d2 ECW divide 100 v_EPSdens v_divDia2 664410
#fix d2 all death 1 v_deadDia demflag 0


##############Define IBm Computes##############

compute myNtypes all ntypes
compute myMass all biomass
compute myCon all avg_con

##############Simulation exit condition##############
variable co2 equal c_myCon[4]
fix 10 all halt 100 v_co2 <= 1e-19

variable light equal c_myCon[1]
fix 11 all halt 100 v_light <= 1e-19

##############Simulation Output##############
dump    id all custom 100 output.lammmps id type diameter x y z
dump    du1 all vtk 100 atom_*.vtu id type diameter x y z
dump    du2 all grid 100 grid_%_*.vti con
dump    du3 all bio 100 ntypes biomass avg_con
dump    traj all bio/hdf5 100 trajectory.h5 id type radius x y z con
thermo_style    custom step cpu atoms c_myNtypes[*] c_myMass[*] c_myCon[*]
thermo		100
thermo_modify	lost ignore


run 35000
Model is defined as a closed system. 
Neighbor list info ...
  update every 1 steps, delay 0 steps, check yes
  max neighbors/atom: 5000, page size: 100000
  master list distance cutoff = 2.43e-06
  ghost atom cutoff = 2.43e-06
  binsize = 1.215e-06, bins = 83 83 9
  1 neighbor lists, perpetual/occasional/extra = 1 0 0
  (1) pair gran/hooke/history, perpetual
      attributes: half, newton off, size, history
      pair build: half/size/bin/newtoff
      stencil: half/bin/3d/newtoff
      bin: standard
Per MPI rank memory allocation (min/avg/max) = 5.794 | 10.76 | 12.11 Mbytes
Step CPU Atoms c_myNtypes[1] c_myNtypes[2] c_myMass[1] c_myMass[2] c_myCon[1] c_myCon[2] c_myCon[3] c_myCon[4] 
       0            0      100           50           50 4.4349806e-14 9.5504687e-15          0.1        0.009     3.42e-20       0.0299 
number of iterations: 325704 
     100    15.487205      140           50           90 4.4937539e-14 9.5431455e-15          0.1 0.0090007794  0.035637846  0.029898702 
number of iterations: 4112 
     200    15.829561      157           50          107 4.5533061e-14 9.5366284e-15          0.1 0.0090007897  0.070609245  0.029898685 
number of iterations: 2160 
     300    16.063896      157           50          107 4.6136475e-14 9.5309196e-15          0.1 0.0090008001   0.10602197  0.029898667 
number of iterations: 1725 
     400    16.293836      157           50          107 4.6747886e-14 9.5260134e-15          0.1 0.0090008107   0.14188563   0.02989865 
number of iterations: 1505 
     500    16.535463      158           51          107 4.7367399e-14 9.5219035e-15          0.1 0.0090008214   0.17820687  0.029898632 
number of iterations: 1382 
     600    16.742399      158           51          107 4.7995122e-14 9.5185833e-15          0.1 0.0090008322   0.21499223  0.029898614 
number of iterations: 1387 
     700    16.939115      159           52          107 4.8631164e-14 9.5160471e-15          0.1 0.0090008432   0.25224826  0.029898595 
number of iterations: 1388 
     800     17.14286      159           52          107 4.9275634e-14 9.5142884e-15          0.1 0.0090008544   0.28998158  0.029898577 
number of iterations: 1391 
     900    17.343053      159           52          107 4.9928646e-14 9.5133013e-15          0.1 0.0090008656   0.32819887  0.029898558 
number of iterations: 1394 
    1000     17.57225      159           52          107 5.0590311e-14 9.5130804e-15          0.1 0.0090008771    0.3669069  0.029898539 
number of iterations: 1396 
    1100    17.759011      160           53          107 5.1260744e-14 9.5136202e-15          0.1 0.0090008887    0.4061124  0.029898519 
number of iterations: 1415 
    1200    17.969422      162           55          107 5.1940063e-14 9.5149162e-15          0.1 0.0090008947   0.44582241  0.029898509 
number of iterations: 1399 
    1300    18.219088      162           55          107 5.2628384e-14 9.5169627e-15          0.1 0.0090009065   0.48604396  0.029898489 
number of iterations: 1402 
    1400     18.41008      162           55          107 5.3325826e-14 9.519755e-15          0.1 0.0090009185   0.52678415  0.029898469 
number of iterations: 1411 
    1500    18.604124      163           56          107 5.4032512e-14 9.5232885e-15          0.1 0.0090009307   0.56805032  0.029898449 
number of iterations: 1408 
    1600    18.790078      163           56          107 5.4748562e-14 9.5275586e-15          0.1  0.009000943   0.60984961  0.029898429 
number of iterations: 1448 
    1700    18.966926      165           58          107 5.5474102e-14 9.5325608e-15          0.1 0.0090009554   0.65218939  0.029898408 
number of iterations: 1413 
    1800    19.210089      165           58          107 5.6209257e-14 9.5382912e-15          0.1 0.0090009681   0.69507714  0.029898387 
number of iterations: 1416 
    1900    19.415866      165           58          107 5.6954154e-14 9.5447458e-15          0.1 0.0090009809   0.73852042  0.029898365 
number of iterations: 1425 
    2000    19.630434      166           59          107 5.7708922e-14 9.5519215e-15          0.1 0.0090009939   0.78252711  0.029898344 
number of iterations: 1421 
    2100    19.829558      166           59          107 5.8473693e-14 9.559814e-15          0.1  0.009001007   0.82710475  0.029898322 
number of iterations: 1582 
    2200    20.016181      167           60          107 5.9248599e-14 9.5684195e-15          0.1 0.0090010239    0.8722612  0.029898294 
number of iterations: 1482 
    2300     20.23871      170           63          107 6.0033774e-14 9.5777362e-15          0.1 0.0090010375   0.91800418  0.029898271 
number of iterations: 1430 
    2400    20.419282      170           63          107 6.0829355e-14 9.5877594e-15          0.1 0.0090010512   0.96434198  0.029898248 
number of iterations: 1433 
    2500    20.614634      171           63          108 6.1635478e-14 9.5984856e-15          0.1 0.0090010651    1.0112827  0.029898225 
number of iterations: 1436 
    2600    20.799409      171           63          108 6.2452285e-14 9.6099122e-15          0.1 0.0090010792    1.0588347  0.029898201 
number of iterations: 1464 
    2700    20.976443      175           66          109 6.3279916e-14 9.6220358e-15          0.1 0.0090010935    1.1070066  0.029898178 
number of iterations: 1441 
    2800     21.17396      175           66          109 6.4118515e-14 9.6348543e-15          0.1 0.0090011079    1.1558065  0.029898153 
number of iterations: 1480 
    2900    21.353485      176           67          109 6.4968227e-14 9.6483656e-15          0.1 0.0090011226    1.2052431  0.029898129 
number of iterations: 1468 
    3000    21.549688      177           68          109  6.58292e-14 9.6625681e-15          0.1 0.0090011375     1.255325  0.029898104 
number of iterations: 1460 
    3100    21.765121      178           69          109 6.6701582e-14 9.6774583e-15          0.1 0.0090011525    1.3060611  0.029898079 
number of iterations: 1453 
    3200    21.971746      178           69          109 6.7585526e-14 9.6930341e-15          0.1 0.0090011678    1.3574603  0.029898054 
number of iterations: 1457 
    3300    22.142617      180           71          109 6.8481183e-14 9.709294e-15          0.1 0.0090011832    1.4095317  0.029898028 
number of iterations: 1458 
    3400    22.319065      182           72          110 6.938871e-14 9.7262355e-15          0.1 0.0090011989    1.4622843  0.029898002 
number of iterations: 1465 
    3500    22.535639      183           73          110 7.0308264e-14 9.7438565e-15          0.1 0.0090012148    1.5157276  0.029897975 
number of iterations: 1464 
    3600    22.701614      183           73          110 7.1240004e-14 9.7621558e-15          0.1 0.0090012308    1.5698708  0.029897948 
number of iterations: 1480 
    3700    22.884133      185           75          110 7.2184092e-14 9.7811305e-15          0.1 0.0090012471    1.6247237  0.029897921 
number of iterations: 1472 
    3800    23.060946      186           76          110 7.3140691e-14 9.8007807e-15          0.1 0.0090012637    1.6802956  0.029897894 
number of iterations: 1483 
    3900    23.226817      187           77          110 7.4109967e-14 9.8211052e-15          0.1 0.0090012804    1.7365964  0.029897866 
number of iterations: 1475 
    4000    23.438295      187           77          110 7.5092087e-14 9.8421025e-15          0.1 0.0090012973    1.7936359  0.029897838 
number of iterations: 1478 
    4100    23.622459      187           77          110 7.6087223e-14 9.8637715e-15          0.1 0.0090013145    1.8514241  0.029897809 
number of iterations: 1480 
    4200    23.797377      188           77          111 7.7095547e-14 9.8861118e-15          0.1 0.0090013319    1.9099713   0.02989778 
number of iterations: 1483 
    4300    23.984388      188           77          111 7.8117234e-14 9.9091219e-15          0.1 0.0090013496    1.9692876   0.02989775 
number of iterations: 1486 
    4400    24.172468      189           77          112 7.915246e-14 9.9328004e-15          0.1 0.0090013674    2.0293834  0.029897721 
number of iterations: 1489 
    4500    24.352164      189           77          112 8.0201404e-14 9.9571472e-15          0.1 0.0090013856    2.0902695   0.02989769 
number of iterations: 1492 
    4600    24.524544      190           77          113 8.126425e-14 9.9821618e-15          0.1 0.0090014039    2.1519563   0.02989766 
number of iterations: 1495 
    4700     24.68912      190           77          113 8.2341181e-14 1.0007844e-14          0.1 0.0090014225    2.2144547  0.029897629 
number of iterations: 1582 
    4800    24.878592      191           78          113 8.3432383e-14 1.0034192e-14          0.1 0.0090014455    2.2777757  0.029897591 
number of iterations: 1592 
    4900    25.054157      194           81          113 8.4538046e-14 1.0061207e-14          0.1 0.0090014694    2.3419304  0.029897551 
number of iterations: 1505 
    5000    25.232456      195           81          114 8.5658362e-14 1.0088887e-14          0.1 0.0090014889    2.4069301  0.029897518 
number of iterations: 1508 
    5100    25.403086      195           81          114 8.6793524e-14 1.0117234e-14          0.1 0.0090015086    2.4727861  0.029897485 
number of iterations: 1511 
    5200    25.586414      195           81          114 8.794373e-14 1.0146247e-14          0.1 0.0090015286      2.53951  0.029897452 
number of iterations: 1514 
    5300    25.786401      196           81          115 8.9109178e-14 1.0175927e-14          0.1 0.0090015488    2.6071135  0.029897418 
number of iterations: 1517 
    5400    26.003418      198           83          115 9.0290072e-14 1.0206272e-14          0.1 0.0090015661    2.6756086  0.029897389 
number of iterations: 1628 
    5500      26.1794      199           84          115 9.1486614e-14 1.0237284e-14          0.1 0.0090015896    2.7450071   0.02989735 
number of iterations: 1625 
    5600    26.405083      202           87          115 9.2699013e-14 1.0268964e-14          0.1  0.009001616    2.8153213  0.029897306 
number of iterations: 1526 
    5700    26.579953      202           87          115 9.392748e-14 1.0301312e-14          0.1 0.0090016374    2.8865634  0.029897271 
number of iterations: 1524 
    5800    26.796849      205           90          115 9.5172226e-14 1.0334328e-14          0.1 0.0090016527    2.9587459  0.029897245 
number of iterations: 1535 
    5900    26.994933      206           91          115 9.6433468e-14 1.0368013e-14          0.1 0.0090016746    3.0318815  0.029897209 
number of iterations: 1512 
    6000    27.176744      208           93          115 9.7711424e-14 1.0402367e-14          0.1 0.0090016863    3.1059825  0.029897189 
number of iterations: 1573 
    6100    27.364231      211           96          115 9.9006316e-14 1.043739e-14          0.1 0.0090017086    3.1810624  0.029897152 
number of iterations: 1538 
    6200    27.555866      214           99          115 1.0031837e-13 1.0473084e-14          0.1 0.0090017255    3.2571342  0.029897124 
number of iterations: 1629 
    6300    27.734701      216          101          115 1.0164781e-13 1.0509452e-14          0.1 0.0090017534    3.3342114  0.029897077 
number of iterations: 1549 
    6400    27.916284      216          101          115 1.0299486e-13 1.0546492e-14          0.1 0.0090017766    3.4123074  0.029897038 
number of iterations: 1549 
    6500    28.097588      219          103          116 1.0435977e-13 1.0584209e-14          0.1 0.0090018002    3.4914362  0.029896999 
number of iterations: 1588 
    6600    28.296582      220          104          116 1.0574277e-13 1.0622601e-14          0.1  0.009001824    3.5716114  0.029896959 
number of iterations: 1577 
    6700    28.483444      224          107          117 1.071441e-13 1.066167e-14          0.1 0.0090018431    3.6528468  0.029896928 
number of iterations: 1556 
    6800    28.672075      225          107          118 1.0856399e-13 1.0701417e-14          0.1 0.0090018675    3.7351569  0.029896887 
number of iterations: 1567 
    6900    28.858788      226          108          118 1.100027e-13 1.0741844e-14          0.1 0.0090018923     3.818556  0.029896846 
number of iterations: 1562 
    7000    29.037505      226          108          118 1.1146048e-13 1.0782952e-14          0.1 0.0090019173    3.9030589  0.029896804 
number of iterations: 1608 
    7100    29.269929      227          109          118 1.1293758e-13 1.0824743e-14          0.1 0.0090019405    3.9886802  0.029896765 
number of iterations: 1568 
    7200    29.512167      227          109          118 1.1443425e-13 1.0867218e-14          0.1 0.0090019663     4.075435  0.029896722 
number of iterations: 1570 
    7300    29.699754      228          110          118 1.1595076e-13 1.0910379e-14          0.1 0.0090019923    4.1633386  0.029896679 
number of iterations: 1583 
    7400    29.868068      233          115          118 1.1748736e-13 1.0954227e-14          0.1 0.0090020182    4.2524065  0.029896636 
number of iterations: 1580 
    7500    30.068195      233          115          118 1.1904432e-13 1.0998765e-14          0.1  0.009002045    4.3426541  0.029896591 
number of iterations: 1580 
    7600    30.234629      234          116          118 1.2062192e-13 1.1043994e-14          0.1 0.0090020721    4.4340972  0.029896546 
number of iterations: 1586 
    7700    30.423556      235          117          118 1.2222043e-13 1.1089918e-14          0.1 0.0090020995     4.526752    0.0298965 
number of iterations: 1663 
    7800    30.618467      243          125          118 1.2384012e-13 1.1136537e-14          0.1  0.009002128    4.6206343  0.029896453 
number of iterations: 1626 
    7900    30.792974      245          127          118 1.2548127e-13 1.1183854e-14          0.1 0.0090021535    4.7157603   0.02989641 
number of iterations: 1572 
    8000    30.976924      247          128          119 1.2714418e-13 1.1231871e-14          0.1 0.0090021792    4.8121473  0.029896367 
number of iterations: 1673 
    8100    31.184706      254          135          119 1.2882912e-13 1.1280591e-14          0.1 0.0090022112    4.9098122  0.029896314 
number of iterations: 1673 
    8200    31.371164      257          138          119 1.3053639e-13 1.1330016e-14          0.1 0.0090022456    5.0087714  0.029896257 
number of iterations: 1598 
    8300    31.552543      260          139          121 1.3226628e-13 1.1380149e-14          0.1 0.0090022754    5.1090427  0.029896207 
number of iterations: 1579 
    8400    31.729603      265          142          123 1.340191e-13 1.1430991e-14          0.1 0.0090023024    5.2106436  0.029896162 
number of iterations: 1628 
    8500    31.927779      266          142          124 1.3579515e-13 1.1482547e-14          0.1 0.0090023357    5.3135918  0.029896106 
number of iterations: 1604 
    8600    32.098907      268          143          125 1.3759473e-13 1.1534817e-14          0.1 0.0090023621    5.4179054  0.029896062 
number of iterations: 1590 
    8700    32.268088      270          145          125 1.3941816e-13 1.1587806e-14          0.1 0.0090023906    5.5236027  0.029896015 
number of iterations: 1615 
    8800     32.51041      270          145          125 1.4126576e-13 1.1641517e-14          0.1 0.0090024223    5.6307021  0.029895962 
number of iterations: 1611 
    8900    32.677902      272          146          126 1.4313784e-13 1.1695951e-14          0.1 0.0090024544    5.7392222  0.029895909 
number of iterations: 1620 
    9000    32.889938      273          147          126 1.4503473e-13 1.1751112e-14          0.1 0.0090024869    5.8491821  0.029895855 
number of iterations: 1618 
    9100    33.070141      273          147          126 1.4695676e-13 1.1807002e-14          0.1 0.0090025199    5.9606009    0.0298958 
number of iterations: 1683 
    9200    33.264916      276          150          126 1.4890426e-13 1.1863626e-14          0.1 0.0090025581    6.0734983  0.029895736 
number of iterations: 1708 
    9300    33.452088      276          150          126 1.5087757e-13 1.1920985e-14          0.1 0.0090025987     6.187894  0.029895668 
number of iterations: 1622 
    9400    33.640647      277          151          126 1.5287703e-13 1.1979084e-14          0.1 0.0090026331     6.303808  0.029895611 
number of iterations: 1631 
    9500    33.805422      277          151          126 1.5490299e-13 1.2037925e-14          0.1  0.009002668    6.4212605  0.029895553 
number of iterations: 1735 
    9600     33.99119      282          155          127 1.5695579e-13 1.2097514e-14          0.1 0.0090027103    6.5402721  0.029895482 
number of iterations: 1637 
    9700    34.163818      282          155          127 1.590358e-13 1.2157852e-14          0.1 0.0090027463    6.6608636  0.029895422 
number of iterations: 1653 
    9800    34.363919      284          156          128 1.6114337e-13 1.2218942e-14          0.1 0.0090027827     6.783056  0.029895362 
number of iterations: 1698 
    9900    34.580202      287          158          129 1.6327888e-13 1.228079e-14          0.1 0.0090028247    6.9068709  0.029895291 
number of iterations: 1631 
   10000    34.767877      289          160          129 1.6544268e-13 1.2343397e-14          0.1 0.0090028603    7.0323298  0.029895232 
number of iterations: 1636 
   10100    34.983154      295          165          130 1.6763516e-13 1.2406766e-14          0.1 0.0090028966     7.159454  0.029895172 
number of iterations: 1676 
   10200    35.163022      296          166          130 1.6985669e-13 1.2470904e-14          0.1 0.0090029357    7.2882667  0.029895107 
number of iterations: 1645 
   10300    35.341543      299          169          130 1.7210767e-13 1.2535813e-14          0.1 0.0090029746      7.41879  0.029895042 
number of iterations: 1656 
   10400     35.52624      299          169          130 1.7438847e-13 1.2601496e-14          0.1  0.009003014    7.5510469  0.029894976 
number of iterations: 1814 
   10500    35.725324      303          172          131 1.766995e-13 1.2667959e-14          0.1 0.0090030649    7.6850604  0.029894891 
number of iterations: 1658 
   10600    35.907963      305          174          131 1.7904115e-13 1.2735205e-14          0.1 0.0090030979    7.8208539  0.029894836 
number of iterations: 1711 
   10700    36.093789      306          175          131 1.8141384e-13 1.2803237e-14          0.1 0.0090031403    7.9584513  0.029894766 
number of iterations: 1726 
   10800    36.291525      308          176          132 1.8381797e-13 1.2872061e-14          0.1 0.0090031844    8.0978766  0.029894692 
number of iterations: 1662 
   10900    36.469847      311          179          132 1.8625396e-13 1.294168e-14          0.1 0.0090032202    8.2391541  0.029894632 
number of iterations: 1671 
   11000    36.651643      317          183          134 1.8872223e-13 1.3012098e-14          0.1  0.009003258    8.3823084   0.02989457 
number of iterations: 1679 
   11100     36.89631      320          185          135 1.9122322e-13 1.3083319e-14          0.1  0.009003294    8.5273647   0.02989451 
number of iterations: 1686 
   11200    37.076976      324          187          137 1.9375734e-13 1.3155351e-14          0.1 0.0090033376    8.6743489  0.029894437 
number of iterations: 1692 
   11300    37.273645      328          191          137 1.9632505e-13 1.3228197e-14          0.1 0.0090033708    8.8232863  0.029894382 
number of iterations: 1713 
   11400    37.463821      331          193          138 1.9892679e-13 1.330186e-14          0.1 0.0090034127    8.9742028  0.029894312 
number of iterations: 1688 
   11500    37.663433      331          193          138  2.01563e-13 1.3376345e-14          0.1  0.009003458    9.1271248  0.029894236 
number of iterations: 1727 
   11600    37.869418      336          196          140 2.0423415e-13 1.3451656e-14          0.1 0.0090035114    9.2820783  0.029894147 
number of iterations: 1631 
   11700    38.039928      341          199          142 2.069407e-13 1.3527799e-14          0.1 0.0090035404    9.4390912  0.029894099 
number of iterations: 1709 
   11800    38.262295      346          203          143 2.0968312e-13 1.3604779e-14          0.1 0.0090035831    9.5981908  0.029894028 
number of iterations: 1676 
   11900    38.447673      349          206          143 2.1246188e-13 1.3682599e-14          0.1 0.0090036215    9.7594048  0.029893964 
number of iterations: 1706 
   12000    38.655791      356          211          145 2.1527746e-13 1.3761266e-14          0.1 0.0090036686    9.9227614  0.029893885 
number of iterations: 1688 
   12100    38.881722      360          215          145 2.1813036e-13 1.3840784e-14          0.1 0.0090037125    10.088289  0.029893812 
number of iterations: 1737 
   12200    39.211589      362          217          145 2.2102107e-13 1.3921157e-14          0.1 0.0090037661    10.256017  0.029893723 
number of iterations: 1724 
   12300    39.413333      367          220          147 2.2395008e-13 1.4002393e-14          0.1 0.0090038174    10.425974  0.029893637 
number of iterations: 1737 
   12400    39.633495      376          228          148 2.2691791e-13 1.4084494e-14          0.1 0.0090038684    10.598191  0.029893552 
number of iterations: 1732 
   12500     39.82041      380          232          148 2.2992506e-13 1.4167467e-14          0.1 0.0090039234    10.772697  0.029893461 
number of iterations: 1727 
   12600    40.030374      384          234          150 2.3297207e-13 1.4251317e-14          0.1 0.0090039755    10.949522  0.029893374 
number of iterations: 1748 
   12700    40.221753      387          235          152 2.3605946e-13 1.4336048e-14          0.1 0.0090040308    11.128697  0.029893282 
number of iterations: 1720 
   12800     40.42836      393          238          155 2.3918776e-13 1.4421669e-14          0.1 0.0090040761    11.310254  0.029893206 
number of iterations: 1732 
   12900    40.635807      398          243          155 2.4235752e-13 1.4508182e-14          0.1 0.0090041258    11.494225  0.029893123 
number of iterations: 1766 
   13000    40.845084      403          247          156 2.4556929e-13 1.4595595e-14          0.1 0.0090041876    11.680641   0.02989302 
number of iterations: 1727 
   13100    41.072067      405          249          156 2.4882362e-13 1.4683911e-14          0.1 0.0090042413    11.869535  0.029892931 
number of iterations: 1737 
   13200    41.255802      412          256          156 2.5212107e-13 1.4773139e-14          0.1 0.0090042824    12.060941  0.029892862 
number of iterations: 1777 
   13300    41.449637      415          259          156 2.5546223e-13 1.4863282e-14          0.1 0.0090043403    12.254892  0.029892766 
number of iterations: 1785 
   13400    41.664372      418          261          157 2.5884766e-13 1.4954347e-14          0.1 0.0090044069    12.451421  0.029892655 
number of iterations: 1734 
   13500    41.880228      420          263          157 2.6227796e-13 1.5046339e-14          0.1 0.0090044642    12.650564  0.029892559 
number of iterations: 1732 
   13600    42.060661      426          268          158 2.6575371e-13 1.5139266e-14          0.1 0.0090045138    12.852354  0.029892477 
number of iterations: 1753 
   13700    42.267411      428          270          158 2.6927553e-13 1.5233133e-14          0.1  0.009004569    13.056827  0.029892385 
number of iterations: 1767 
   13800    42.531402      436          273          163 2.7284401e-13 1.5327946e-14          0.1 0.0090046321     13.26402   0.02989228 
number of iterations: 1748 
   13900     42.72398      442          276          166 2.7645979e-13 1.5423711e-14          0.1  0.009004695    13.473966  0.029892175 
number of iterations: 1754 
   14000    42.916227      445          278          167 2.8012349e-13 1.5520433e-14          0.1  0.009004754    13.686704  0.029892077 
number of iterations: 1725 
   14100    43.131658      450          283          167 2.8383573e-13 1.561812e-14          0.1 0.0090048001    13.902271     0.029892 
number of iterations: 1778 
   14200    43.322716      457          288          169 2.8759717e-13 1.5716779e-14          0.1 0.0090048649    14.120703  0.029891892 
number of iterations: 1782 
   14300    43.518745      464          292          172 2.9140846e-13 1.5816415e-14          0.1 0.0090049281     14.34204  0.029891786 
number of iterations: 1776 
   14400    43.702616      466          294          172 2.9527026e-13 1.5917036e-14          0.1 0.0090049947    14.566321  0.029891676 
number of iterations: 1782 
   14500    43.898625      471          299          172 2.9918323e-13 1.6018647e-14          0.1 0.0090050549    14.793582  0.029891575 
number of iterations: 1782 
   14600    44.084099      477          304          173 3.0314806e-13 1.6121257e-14          0.1 0.0090051255    15.023866  0.029891457 
number of iterations: 1836 
   14700    44.290365      483          309          174 3.0716543e-13 1.6224871e-14          0.1 0.0090051942    15.257212  0.029891343 
number of iterations: 1804 
   14800     44.47808      488          311          177 3.1123604e-13 1.6329496e-14          0.1 0.0090052671    15.493661  0.029891222 
number of iterations: 1791 
   14900    44.651227      492          315          177 3.153606e-13 1.643514e-14          0.1 0.0090053402    15.733253    0.0298911 
number of iterations: 1787 
   15000    44.839622      495          315          180 3.1953981e-13 1.6541808e-14          0.1  0.009005411    15.976032  0.029890982 
number of iterations: 1786 
   15100    45.073574      500          319          181 3.2377441e-13 1.6649509e-14          0.1 0.0090054827    16.222039  0.029890862 
number of iterations: 1844 
   15200     45.29264      507          325          182 3.2806512e-13 1.675825e-14          0.1 0.0090055662    16.471318  0.029890723 
number of iterations: 1814 
   15300    45.488816      512          329          183 3.324127e-13 1.6868036e-14          0.1 0.0090056473    16.723911  0.029890588 
number of iterations: 1819 
   15400    45.704068      514          331          183 3.3681789e-13 1.6978877e-14          0.1 0.0090057251    16.979863  0.029890459 
number of iterations: 1802 
   15500    45.916546      518          332          186 3.4128145e-13 1.7090779e-14          0.1 0.0090058009    17.239218  0.029890332 
number of iterations: 1797 
   15600    46.106128      523          336          187 3.4580417e-13 1.720375e-14          0.1 0.0090058782    17.502021  0.029890203 
number of iterations: 1817 
   15700    46.299526      526          338          188 3.5038683e-13 1.7317796e-14          0.1 0.0090059609    17.768319  0.029890066 
number of iterations: 1824 
   15800    46.500305      531          341          190 3.5503021e-13 1.7432926e-14          0.1 0.0090060432    18.038158  0.029889929 
number of iterations: 1896 
   15900    46.698218      536          346          190 3.5973513e-13 1.7549148e-14          0.1   0.00900614    18.311586  0.029889767 
number of iterations: 1806 
   16000    46.889568      539          349          190 3.645024e-13 1.7666469e-14          0.1  0.009006219    18.588648  0.029889636 
number of iterations: 1821 
   16100    47.094631      543          352          191 3.6933285e-13 1.7784896e-14          0.1 0.0090062985    18.869395  0.029889503 
number of iterations: 1811 
   16200     47.30534      552          358          194 3.7422731e-13 1.7904439e-14          0.1 0.0090063817    19.153875  0.029889365 
number of iterations: 1833 
   16300    47.486689      559          365          194 3.7918663e-13 1.8025104e-14          0.1 0.0090064588    19.442138  0.029889236 
number of iterations: 1838 
   16400    47.686164      572          376          196 3.8421167e-13  1.81469e-14          0.1 0.0090065444    19.734234  0.029889094 
number of iterations: 1836 
   16500     47.90876      574          378          196 3.8930331e-13 1.8269835e-14          0.1 0.0090066293    20.030213  0.029888952 
number of iterations: 1813 
   16600    48.108888      584          386          198 3.9446242e-13 1.8393916e-14          0.1 0.0090067107    20.330128  0.029888816 
number of iterations: 1867 
   16700     48.30967      592          392          200 3.996899e-13 1.8519153e-14          0.1 0.0090068093    20.634032  0.029888652 
number of iterations: 1833 
   16800    48.499887      600          399          201 4.0498665e-13 1.8645553e-14          0.1 0.0090069006    20.941976    0.0298885 
number of iterations: 1880 
   16900    48.705604      602          400          202 4.103536e-13 1.8773125e-14          0.1 0.0090069944    21.254015  0.029888344 
number of iterations: 1874 
   17000    48.925751      609          406          203 4.1579167e-13 1.8901878e-14          0.1 0.0090070884    21.570205  0.029888187 
number of iterations: 1838 
   17100    49.179388      620          415          205 4.2130181e-13 1.9031819e-14          0.1 0.0090071724    21.890597  0.029888047 
number of iterations: 1908 
   17200    49.403765      628          422          206 4.2688496e-13 1.9162958e-14          0.1 0.0090072835    22.215249  0.029887862 
number of iterations: 1853 
   17300    49.588747      632          426          206 4.3254211e-13 1.9295303e-14          0.1  0.009007376    22.544219  0.029887708 
number of iterations: 1887 
   17400    49.800446      641          434          207 4.3827423e-13 1.9428864e-14          0.1 0.0090074781    22.877563  0.029887538 
number of iterations: 1851 
   17500    50.002539      653          445          208 4.440823e-13 1.9563648e-14          0.1 0.0090075658    23.215339  0.029887392 
number of iterations: 1873 
   17600    50.206643      662          450          212 4.4996735e-13 1.9699666e-14          0.1  0.009007675    23.557607   0.02988721 
number of iterations: 1866 
   17700    50.406908      669          456          213 4.5593039e-13 1.9836926e-14          0.1 0.0090077718    23.904426  0.029887049 
number of iterations: 1840 
   17800    50.599086      674          460          214 4.6197245e-13 1.9975439e-14          0.1   0.00900786    24.255857  0.029886902 
number of iterations: 1851 
   17900    50.802974      682          465          217 4.6809458e-13 2.0115211e-14          0.1 0.0090079534     24.61196  0.029886746 
number of iterations: 1857 
   18000    51.032205      686          468          218 4.7429784e-13 2.0256253e-14          0.1 0.0090080533    24.972798   0.02988658 
number of iterations: 1890 
   18100    51.225885      694          475          219 4.805833e-13 2.0398575e-14          0.1 0.0090081773    25.338434  0.029886373 
number of iterations: 1882 
   18200    51.417412      702          483          219 4.8695206e-13 2.0542185e-14          0.1 0.0090082824    25.708933  0.029886198 
number of iterations: 1837 
   18300    51.622691      715          493          222 4.9340523e-13 2.0687094e-14          0.1 0.0090083794    26.084358  0.029886036 
number of iterations: 1872 
   18400    51.825133      721          498          223 4.9994391e-13 2.0833312e-14          0.1  0.009008486    26.464776  0.029885859 
number of iterations: 1881 
   18500     52.04829      731          505          226 5.0656924e-13 2.0980847e-14          0.1 0.0090085957    26.850251  0.029885676 
number of iterations: 1880 
   18600    52.264723      741          512          229 5.1328237e-13 2.1129709e-14          0.1 0.0090087025    27.240851  0.029885498 
number of iterations: 1897 
   18700    52.523595      751          520          231 5.2008446e-13 2.1279909e-14          0.1 0.0090088139    27.636645  0.029885313 
number of iterations: 1894 
   18800    52.728612      757          526          231 5.2697669e-13 2.1431457e-14          0.1 0.0090089276    28.037702  0.029885123 
number of iterations: 1944 
   18900    52.938368      766          531          235 5.3396027e-13 2.1584361e-14          0.1 0.0090090553     28.44409   0.02988491 
number of iterations: 1967 
   19000    53.162586      776          541          235 5.4103638e-13 2.1738634e-14          0.1 0.0090091867    28.855881  0.029884692 
number of iterations: 1909 
   19100    53.412238      783          545          238 5.4820628e-13 2.1894285e-14          0.1 0.0090093083    29.273148  0.029884489 
number of iterations: 1914 
   19200    53.614571      790          552          238 5.5547118e-13 2.2051325e-14          0.1 0.0090094362    29.695962  0.029884276 
number of iterations: 1904 
   19300    53.833069      796          557          239 5.6283237e-13 2.2209764e-14          0.1 0.0090095412    30.124398  0.029884101 
number of iterations: 1869 
   19400    54.046387      805          564          241 5.702911e-13 2.2369613e-14          0.1 0.0090096564     30.55853  0.029883909 
number of iterations: 1923 
   19500     54.26509      813          571          242 5.7784868e-13 2.2530882e-14          0.1  0.009009785    30.998433  0.029883695 
number of iterations: 1954 
   19600    54.469453      821          578          243 5.8550641e-13 2.2693583e-14          0.1 0.0090099158    31.444185  0.029883477 
number of iterations: 1901 
   19700    54.662527      829          584          245 5.9326562e-13 2.2857725e-14          0.1 0.0090100449    31.895863  0.029883262 
number of iterations: 1913 
   19800     54.86423      836          589          247 6.0112765e-13 2.3023322e-14          0.1 0.0090101642    32.353545  0.029883063 
number of iterations: 1944 
   19900    55.174619      848          599          249 6.0909388e-13 2.3190382e-14          0.1 0.0090103038    32.817311  0.029882831 
number of iterations: 1967 
   20000     55.39766      857          606          251 6.1716567e-13 2.3358918e-14          0.1 0.0090104506    33.287244  0.029882586 
number of iterations: 1947 
   20100    55.612964      864          612          252 6.2534444e-13 2.352894e-14          0.1 0.0090105833    33.763424  0.029882365 
number of iterations: 1913 
   20200    55.812135      875          621          254 6.3363158e-13 2.3700461e-14          0.1 0.0090107077    34.245935  0.029882158 
number of iterations: 1949 
   20300    56.033537      888          631          257 6.4202855e-13 2.3873491e-14          0.1 0.0090108501     34.73486   0.02988192 
number of iterations: 1956 
   20400    56.252463      897          637          260 6.505368e-13 2.4048042e-14          0.1 0.0090109992    35.230285  0.029881672 
number of iterations: 1929 
   20500    56.479683      909          647          262 6.591578e-13 2.4224126e-14          0.1 0.0090111212    35.732297  0.029881469 
number of iterations: 1948 
   20600    56.679737      919          655          264 6.6789304e-13 2.4401754e-14          0.1 0.0090112686    36.240982  0.029881223 
number of iterations: 1910 
   20700    56.885244      928          663          265 6.7674405e-13 2.4580938e-14          0.1 0.0090113998    36.756428  0.029881005 
number of iterations: 1956 
   20800    57.100768      941          673          268 6.8571234e-13 2.4761691e-14          0.1 0.0090115543    37.278727  0.029880747 
number of iterations: 1940 
   20900    57.325764      950          679          271 6.9479949e-13 2.4944024e-14          0.1 0.0090116894    37.807969  0.029880522 
number of iterations: 1952 
   21000    57.540623      964          693          271 7.0400706e-13 2.512795e-14          0.1 0.0090118377    38.344248  0.029880275 
number of iterations: 1961 
   21100    57.765835      972          700          272 7.1333665e-13 2.5313481e-14          0.1 0.0090119997    38.887654  0.029880005 
number of iterations: 1992 
   21200    57.985621      986          713          273 7.2278987e-13 2.5500629e-14          0.1 0.0090121567    39.438283  0.029879744 
number of iterations: 1951 
   21300    58.202123      994          717          277 7.3236837e-13 2.5689406e-14          0.1 0.0090123082    39.996233  0.029879491 
number of iterations: 1932 
   21400    58.414743     1005          727          278 7.4207381e-13 2.5879826e-14          0.1 0.0090124553    40.561599  0.029879246 
number of iterations: 1937 
   21500    58.637798     1015          737          278 7.5190786e-13  2.60719e-14          0.1 0.0090126075     41.13448  0.029878993 
number of iterations: 1979 
   21600    58.846738     1026          747          279 7.6187223e-13 2.6265643e-14          0.1 0.0090127674    41.714976  0.029878726 
number of iterations: 1974 
   21700    59.052908     1041          762          279 7.7196865e-13 2.6461065e-14          0.1 0.0090129199    42.303187  0.029878472 
number of iterations: 2005 
   21800      59.3319     1049          769          280 7.8219887e-13 2.6658182e-14          0.1 0.0090130993    42.899218  0.029878173 
number of iterations: 1985 
   21900    59.545188     1056          776          280 7.9256466e-13 2.6857005e-14          0.1 0.0090132659    43.503172  0.029877896 
number of iterations: 2007 
   22000    59.751979     1070          789          281 8.0306782e-13 2.7057549e-14          0.1 0.0090134426    44.115154  0.029877602 
number of iterations: 1988 
   22100    59.964686     1076          795          281 8.1371016e-13 2.7259826e-14          0.1 0.0090136119    44.735269   0.02987732 
number of iterations: 2009 
   22200     60.19056     1094          807          287 8.2449354e-13 2.746385e-14          0.1 0.0090137991    45.363626  0.029877008 
number of iterations: 2008 
   22300    60.395814     1103          815          288 8.3541982e-13 2.7669636e-14          0.1  0.009013984    46.000334    0.0298767 
number of iterations: 1976 
   22400     60.61329     1117          826          291 8.4649089e-13 2.7877195e-14          0.1 0.0090141616    46.645506  0.029876404 
number of iterations: 2003 
   22500    60.824271     1135          841          294 8.5770868e-13 2.8086544e-14          0.1  0.009014356    47.299252   0.02987608 
number of iterations: 2010 
   22600    61.074427     1150          852          298 8.6907513e-13 2.8297694e-14          0.1 0.0090145465    47.961686  0.029875763 
number of iterations: 2037 
   22700    61.298086     1165          866          299 8.805922e-13 2.8510661e-14          0.1 0.0090147573    48.632925  0.029875412 
number of iterations: 1996 
   22800    61.534991     1176          875          301 8.922619e-13 2.8725458e-14          0.1 0.0090149486    49.313085  0.029875093 
number of iterations: 1995 
   22900    61.786642     1200          896          304 9.0408625e-13  2.89421e-14          0.1 0.0090151188    50.002286  0.029874809 
number of iterations: 2035 
   23000    62.006249     1215          908          307 9.1606729e-13 2.9160601e-14          0.1 0.0090153333    50.700646  0.029874452 
number of iterations: 2028 
   23100    62.222905     1236          928          308 9.282071e-13 2.9380976e-14          0.1 0.0090155347    51.408286  0.029874117 
number of iterations: 2030 
   23200    62.481349     1243          933          310 9.4050779e-13 2.9603239e-14          0.1  0.009015741    52.125332  0.029873773 
number of iterations: 2052 
   23300    62.707873     1254          942          312 9.529715e-13 2.9827406e-14          0.1 0.0090159626    52.851907  0.029873404 
number of iterations: 2014 
   23400     62.94103     1269          955          314 9.6560036e-13 3.0053491e-14          0.1 0.0090161566     53.58814  0.029873081 
number of iterations: 2017 
   23500    63.155232     1283          969          314 9.7839659e-13 3.028151e-14          0.1 0.0090163813    54.334157  0.029872706 
number of iterations: 2059 
   23600    63.380131     1300          983          317 9.9136239e-13 3.0511477e-14          0.1 0.0090166089    55.090087  0.029872327 
number of iterations: 2040 
   23700    63.596425     1317          998          319   1.0045e-12 3.0743409e-14          0.1 0.0090168397    55.856065  0.029871943 
number of iterations: 2048 
   23800    63.811456     1341         1019          322 1.0178117e-12 3.097732e-14          0.1 0.0090170569    56.632223  0.029871581 
number of iterations: 2030 
   23900    64.024349     1359         1030          329 1.0312999e-12 3.1213226e-14          0.1 0.0090172819    57.418695  0.029871206 
number of iterations: 2037 
   24000    64.235426     1372         1041          331 1.0449667e-12 3.1451142e-14          0.1 0.0090174967    58.215619  0.029870848 
number of iterations: 2056 
   24100    64.460123     1389         1057          332 1.0588147e-12 3.1691085e-14          0.1 0.0090177353    59.023131  0.029870451 
number of iterations: 2054 
   24200    64.678162     1403         1067          336 1.0728462e-12 3.1933071e-14          0.1 0.0090179585    59.841375  0.029870079 
number of iterations: 2050 
   24300    64.892335     1415         1078          337 1.0870637e-12 3.2177115e-14          0.1 0.0090181756    60.670492  0.029869718 
number of iterations: 2053 
   24400    65.126948     1430         1090          340 1.1014695e-12 3.2423234e-14          0.1 0.0090184027    61.510627  0.029869339 
number of iterations: 2055 
   24500     65.35659     1444         1102          342 1.1160663e-12 3.2671444e-14          0.1  0.009018655    62.361925  0.029868919 
number of iterations: 2077 
   24600    65.586654     1468         1122          346 1.1308565e-12 3.2921763e-14          0.1 0.0090188954    63.224536  0.029868519 
number of iterations: 2095 
   24700    65.823209     1481         1133          348 1.1458427e-12 3.3174206e-14          0.1 0.0090191672     64.09861  0.029868066 
number of iterations: 2062 
   24800    66.031729     1502         1150          352 1.1610275e-12 3.342879e-14          0.1 0.0090194026    64.984299  0.029867674 
number of iterations: 2092 
   24900    66.245982     1524         1165          359 1.1764135e-12 3.3685533e-14          0.1  0.009019654    65.881757  0.029867255 
number of iterations: 2062 
   25000    66.459463     1541         1177          364 1.1920034e-12 3.3944451e-14          0.1 0.0090199075     66.79114  0.029866833 
number of iterations: 2061 
   25100    66.702064     1555         1188          367 1.2077999e-12 3.4205562e-14          0.1 0.0090201443    67.712607  0.029866438 
number of iterations: 2097 
   25200    66.929428     1569         1199          370 1.2238058e-12 3.4468883e-14          0.1 0.0090204423    68.646317  0.029865942 
number of iterations: 2077 
   25300    67.207936     1588         1214          374 1.2400237e-12 3.4734431e-14          0.1 0.0090206827    69.592435  0.029865541 
number of iterations: 2088 
   25400    67.417676     1611         1235          376 1.2564566e-12 3.5002225e-14          0.1 0.0090209552    70.551123  0.029865088 
number of iterations: 2113 
   25500    67.654692     1633         1251          382 1.2731072e-12 3.5272283e-14          0.1  0.009021249    71.522551  0.029864598 
number of iterations: 2104 
   25600    67.879756     1653         1270          383 1.2899785e-12 3.5544622e-14          0.1 0.0090215638    72.506886  0.029864074 
number of iterations: 2112 
   25700    68.106299     1670         1285          385 1.3070734e-12 3.581926e-14          0.1 0.0090218639      73.5043  0.029863574 
number of iterations: 2081 
   25800    68.357222     1689         1302          387 1.3243948e-12 3.6096215e-14          0.1 0.0090221548    74.514967  0.029863089 
number of iterations: 2106 
   25900     68.58609     1704         1314          390 1.3419458e-12 3.6375507e-14          0.1 0.0090224582    75.539063  0.029862584 
number of iterations: 2119 
   26000    68.838435     1724         1332          392 1.3597293e-12 3.6657152e-14          0.1 0.0090227603    76.576765  0.029862081 
number of iterations: 2137 
   26100     69.06126     1743         1349          394 1.3777485e-12 3.6941172e-14          0.1 0.0090230547    77.628255   0.02986159 
number of iterations: 2088 
   26200    69.324921     1776         1375          401 1.3960065e-12 3.7227584e-14          0.1  0.009023336    78.693714  0.029861122 
number of iterations: 2108 
   26300     69.60796     1797         1394          403 1.4145065e-12 3.7516407e-14          0.1 0.0090236501     79.77333  0.029860599 
number of iterations: 2112 
   26400    69.874946     1813         1405          408 1.4332516e-12 3.7807661e-14          0.1 0.0090239734    80.867289   0.02986006 
number of iterations: 2105 
   26500    70.118305     1835         1424          411 1.4522451e-12 3.8101365e-14          0.1 0.0090242737    81.975781   0.02985956 
number of iterations: 2120 
   26600    70.358738     1856         1442          414 1.4714903e-12 3.8397539e-14          0.1  0.009024617    83.098999  0.029858988 
number of iterations: 2139 
   26700    70.582539     1883         1464          419 1.4909905e-12 3.8696201e-14          0.1 0.0090249418    84.237139  0.029858447 
number of iterations: 2108 
   26800    70.814884     1906         1481          425 1.5107492e-12 3.8997373e-14          0.1 0.0090252469    85.390403  0.029857939 
number of iterations: 2130 
   26900    71.033151     1922         1496          426 1.5307697e-12 3.9301073e-14          0.1 0.0090255791    86.558986  0.029857386 
number of iterations: 2140 
   27000    71.250824     1946         1519          427 1.5510555e-12 3.9607322e-14          0.1 0.0090259443    87.743096  0.029856777 
number of iterations: 2109 
   27100    71.477544     1973         1544          429 1.5716102e-12 3.9916141e-14          0.1 0.0090262542    88.942936  0.029856261 
number of iterations: 2142 
   27200    71.765818     2002         1568          434 1.5924372e-12 4.0227551e-14          0.1 0.0090266088    90.158716   0.02985567 
number of iterations: 2167 
   27300    71.989074     2029         1591          438 1.6135402e-12 4.0541571e-14          0.1 0.0090269202    91.390647  0.029855152 
number of iterations: 2183 
   27400    72.231896     2053         1612          441 1.6349229e-12 4.0858224e-14          0.1 0.0090273136    92.638944  0.029854496 
number of iterations: 2150 
   27500    72.520255     2077         1632          445 1.6565889e-12 4.117753e-14          0.1 0.0090276786    93.903822  0.029853889 
number of iterations: 2122 
   27600    72.771397     2107         1659          448 1.6785421e-12 4.149951e-14          0.1 0.0090280206    95.185503  0.029853319 
number of iterations: 2128 
   27700    73.014638     2134         1684          450 1.7007861e-12 4.1824186e-14          0.1 0.0090283706    96.484209  0.029852736 
number of iterations: 2159 
   27800    73.248052     2164         1712          452 1.723325e-12 4.215158e-14          0.1 0.0090287474    97.800168  0.029852108 
number of iterations: 2136 
   27900    73.481586     2186         1731          455 1.7461625e-12 4.2481712e-14          0.1 0.0090291154    99.133607  0.029851495 
number of iterations: 2155 
   28000    73.709236     2211         1753          458 1.7693027e-12 4.2814605e-14          0.1 0.0090295018    100.48476  0.029850852 
number of iterations: 2142 
   28100    73.968789     2236         1775          461 1.7927495e-12 4.3150281e-14          0.1  0.009029884    101.85386  0.029850215 
number of iterations: 2168 
   28200    74.205436     2259         1797          462 1.816507e-12 4.3488762e-14          0.1 0.0090302814    103.24114  0.029849553 
number of iterations: 2157 
   28300    74.457876     2290         1821          469 1.8405794e-12 4.3830071e-14          0.1 0.0090306701    104.64686  0.029848906 
number of iterations: 2174 
   28400    74.682555     2312         1840          472 1.8649708e-12 4.4174231e-14          0.1 0.0090310471    106.07124  0.029848278 
number of iterations: 2189 
   28500    74.939482     2330         1857          473 1.8896854e-12 4.4521264e-14          0.1 0.0090314864    107.51455  0.029847546 
number of iterations: 2201 
   28600    75.180339     2369         1890          479 1.9147275e-12 4.4871194e-14          0.1 0.0090319099    108.97702  0.029846841 
number of iterations: 2187 
   28700    75.411302     2397         1914          483 1.9401014e-12 4.5224044e-14          0.1 0.0090323343    110.45893  0.029846134 
number of iterations: 2167 
   28800    75.644765     2438         1949          489 1.9658116e-12 4.5579837e-14          0.1 0.0090327528    111.96051  0.029845437 
number of iterations: 2204 
   28900     75.89547     2466         1971          495 1.9918626e-12 4.5938596e-14          0.1 0.0090331772    113.48204   0.02984473 
number of iterations: 2190 
   29000    76.132633     2490         1990          500 2.0182587e-12 4.6300346e-14          0.1 0.0090336272    115.02378   0.02984398 
number of iterations: 2178 
   29100    76.372613     2525         2021          504 2.0450046e-12 4.666511e-14          0.1 0.0090340434    116.58599  0.029843287 
number of iterations: 2179 
   29200    76.599558     2555         2046          509 2.0711861e-12 4.7032914e-14          0.1 0.0090344781    118.16826  0.029842563 
number of iterations: 2199 
   29300    76.832071     2586         2074          512 2.0986335e-12 4.7403781e-14          0.1 0.0090349552    119.77154  0.029841769 
number of iterations: 2210 
   29400    77.533288     2619         2104          515 2.1264445e-12 4.7777736e-14          0.1 0.0090354465    121.39611   0.02984095 
number of iterations: 2168 
   29500    77.767649     2651         2133          518 2.1546241e-12 4.8154803e-14          0.1 0.0090358885    123.04226  0.029840214 
number of iterations: 2190 
   29600    78.005275     2676         2157          519 2.1831771e-12 4.8535008e-14          0.1 0.0090363164    124.71027  0.029839501 
number of iterations: 2217 
   29700    78.248996     2716         2194          522 2.2121085e-12 4.8918376e-14          0.1 0.0090368359    126.40044  0.029838636 
number of iterations: 2213 
   29800    78.532139     2742         2218          524 2.2414233e-12 4.9304933e-14          0.1 0.0090373074    128.11306  0.029837851 
number of iterations: 2228 
   29900    78.779336     2770         2245          525 2.2711266e-12 4.9694705e-14          0.1 0.0090378241    129.84842   0.02983699 
number of iterations: 2212 
   30000    79.026976     2798         2268          530 2.3012235e-12 5.0087716e-14          0.1 0.0090383239    131.60682  0.029836158 
number of iterations: 2200 
   30100     79.31373     2836         2300          536 2.3317192e-12 5.0483994e-14          0.1 0.0090388105    133.38858  0.029835348 
number of iterations: 2241 
   30200    79.570998     2871         2332          539 2.362619e-12 5.0764205e-14          0.1 0.0090393185    135.19403  0.029834501 
number of iterations: 2230 
   30300    79.828319     2909         2366          543 2.3939284e-12 5.116615e-14          0.1 0.0090398627    137.02346  0.029833595 
number of iterations: 2213 
   30400    80.051392     2945         2401          544 2.4256526e-12 5.1571433e-14          0.1 0.0090403915    138.87718  0.029832714 
number of iterations: 2197 
   30500     80.29326     2993         2439          554 2.4577972e-12 5.1980081e-14          0.1 0.0090408819    140.75552  0.029831897 
number of iterations: 2219 
   30600    80.540919     3024         2468          556 2.4903678e-12 5.2392121e-14          0.1 0.0090413792     142.6588  0.029831069 
number of iterations: 2238 
   30700    80.788826     3054         2493          561  2.52337e-12 5.2807581e-14          0.1 0.0090419386    144.58736  0.029830137 
number of iterations: 2239 
   30800    81.053837     3096         2534          562 2.5568096e-12 5.3226487e-14          0.1 0.0090425066    146.54153  0.029829191 
number of iterations: 2242 
   30900    81.311942     3122         2555          567 2.5895874e-12 5.3648869e-14          0.1 0.0090430587    148.52081  0.029828272 
number of iterations: 2228 
   31000    81.567553     3154         2585          569 2.6239045e-12 5.4074754e-14          0.1 0.0090435928    150.52637  0.029827382 
number of iterations: 2226 
   31100    81.830982     3184         2610          574 2.6586763e-12 5.450417e-14          0.1 0.0090441431    152.55857  0.029826466 
number of iterations: 2256 
   31200    82.133452     3233         2654          579 2.6939089e-12 5.4937146e-14          0.1 0.0090447492    154.61774  0.029825456 
number of iterations: 2254 
   31300    82.377956     3269         2685          584 2.7296084e-12 5.537371e-14          0.1 0.0090453832    156.70426    0.0298244 
number of iterations: 2281 
   31400    82.680928     3307         2716          591 2.7657809e-12 5.581389e-14          0.1 0.0090459545    158.81849  0.029823449 
number of iterations: 2244 
   31500    82.926184     3353         2759          594 2.8024328e-12 5.6257716e-14          0.1 0.0090465176    160.96079  0.029822511 
number of iterations: 2240 
   31600    83.176799     3379         2781          598 2.8395704e-12 5.670522e-14          0.1 0.0090471003    163.13154   0.02982154 
number of iterations: 2245 
   31700    83.430555     3415         2814          601 2.8772002e-12 5.715643e-14          0.1 0.0090477113    165.33112  0.029820523 
number of iterations: 2249 
   31800    83.667759     3463         2855          608 2.9153286e-12 5.7611376e-14          0.1 0.0090483115    167.55991  0.029819523 
number of iterations: 2245 
   31900    83.934431     3511         2894          617 2.9539623e-12 5.8070088e-14          0.1 0.0090489208    169.81828  0.029818508 
number of iterations: 2294 
   32000    84.177568     3546         2926          620 2.9931079e-12 5.8532597e-14          0.1 0.0090496292    172.10665  0.029817328 
number of iterations: 2220 
   32100    84.441272     3591         2968          623 3.0327723e-12 5.8998933e-14          0.1  0.009050199     174.4254  0.029816379 
number of iterations: 2261 
   32200    84.699631     3635         3008          627 3.0729622e-12 5.9469127e-14          0.1 0.0090508271    176.77494  0.029815333 
number of iterations: 2275 
   32300    84.955609     3697         3061          636 3.1136848e-12 5.9943211e-14          0.1 0.0090515001    179.15567  0.029814212 
number of iterations: 2280 
   32400     85.19636     3742         3103          639 3.154947e-12 6.0421216e-14          0.1 0.0090521775    181.56802  0.029813084 
number of iterations: 2270 
   32500    85.432079     3789         3143          646 3.196756e-12 6.0903173e-14          0.1 0.0090528971     184.0124  0.029811886 
number of iterations: 2295 
   32600    85.719407     3848         3198          650 3.2391191e-12 6.1389116e-14          0.1 0.0090535988    186.48924  0.029810717 
number of iterations: 2310 
   32700    85.971768     3904         3248          656 3.2806273e-12 6.1879077e-14          0.1 0.0090543065    188.99787  0.029809538 
number of iterations: 2288 
   32800    86.234254     3952         3292          660 3.3229706e-12 6.2373086e-14          0.1 0.0090550225    191.53895  0.029808346 
number of iterations: 2257 
   32900    86.518686     3992         3328          664 3.3647717e-12 6.2871178e-14          0.1 0.0090556704    194.11206  0.029807266 
number of iterations: 2294 
   33000    86.775849     4048         3378          670 3.4093612e-12 6.3373384e-14          0.1 0.0090563786    196.71933  0.029806087 
number of iterations: 2278 
   33100    87.040673     4095         3417          678 3.4545416e-12 6.387974e-14          0.1 0.0090570558    199.36123  0.029804959 
number of iterations: 2312 
   33200     87.31031     4139         3456          683 3.5003207e-12 6.4390277e-14          0.1 0.0090578652     202.0382  0.029803611 
number of iterations: 2300 
   33300    87.566077     4190         3501          689 3.5467065e-12 6.4905031e-14          0.1 0.0090586526    204.75072    0.0298023 
number of iterations: 2307 
   33400    87.839726     4229         3538          691 3.5937069e-12 6.5424035e-14          0.1  0.009059457    207.49927   0.02980096 
number of iterations: 2308 
   33500    88.105496     4275         3577          698 3.6413302e-12 6.5947324e-14          0.1 0.0090602347    210.28431  0.029799665 
number of iterations: 2291 
   33600    88.404007     4327         3623          704 3.6895845e-12 6.6474934e-14          0.1 0.0090610307    213.10632  0.029798339 
number of iterations: 2305 
   33700    88.648956     4388         3678          710 3.7384783e-12 6.7006896e-14          0.1 0.0090618049     215.9658   0.02979705 
number of iterations: 2336 
   33800    88.908099     4452         3735          717  3.78802e-12 6.7543249e-14          0.1 0.0090626333    218.86326   0.02979567 
number of iterations: 2336 
   33900    89.178212     4505         3782          723 3.8382183e-12 6.8084028e-14          0.1 0.0090634685    221.79918  0.029794279 
number of iterations: 2283 
   34000    89.474737     4561         3829          732 3.8877686e-12 6.8629268e-14          0.1 0.0090642275    224.77308  0.029793015 
number of iterations: 2343 
   34100    89.761293     4628         3891          737 3.9392886e-12 6.9179005e-14          0.1 0.0090651256    227.78647  0.029791519 
number of iterations: 2330 
   34200    90.034756     4679         3937          742 3.9914914e-12 6.9733278e-14          0.1 0.0090659782    230.83987  0.029790099 
number of iterations: 2332 
   34300    90.310643     4737         3989          748 4.0443859e-12 7.0292122e-14          0.1 0.0090668452    233.93383  0.029788655 
number of iterations: 2322 
   34400     90.57409     4803         4045          758 4.0979814e-12 7.0855574e-14          0.1 0.0090677008    237.06889   0.02978723 
number of iterations: 2363 
   34500    90.821607     4859         4096          763 4.1513714e-12 7.1423671e-14          0.1 0.0090686022    240.24491  0.029785729 
number of iterations: 2324 
   34600    91.101001     4918         4151          767 4.2063846e-12 7.1996453e-14          0.1 0.0090695027    243.46307  0.029784229 
number of iterations: 2343 
   34700    91.381621     4989         4214          775 4.2621268e-12 7.2573955e-14          0.1 0.0090704156    246.72398  0.029782709 
number of iterations: 2361 
   34800    91.638443     5054         4273          781 4.3186076e-12 7.3156218e-14          0.1 0.0090713855    250.02819  0.029781093 
number of iterations: 2338 
   34900    91.900273     5108         4322          786 4.3758369e-12 7.374328e-14          0.1 0.0090723234    253.37628  0.029779531 
number of iterations: 2348 
   35000    92.190704     5170         4380          790 4.4338246e-12 7.4335178e-14          0.1  0.009073243     256.7688     0.029778 
Loop time of 92.1907 on 32 procs for 35000 steps with 5170 atoms

Performance: 328015559.871 tau/day, 379.648 timesteps/s
91.7% CPU use with 32 MPI tasks x no OpenMP threads

MPI task timing breakdown:
Section |  min time  |  avg time  |  max time  |%varavg| %total
---------------------------------------------------------------
Pair    | 0.0096131  | 0.073761   | 0.17171    |  15.6 |  0.08
Neigh   | 0.0042083  | 0.022006   | 0.049324   |   7.8 |  0.02
Comm    | 0.059277   | 0.18715    | 0.2752     |  13.0 |  0.20
Output  | 22.547     | 22.547     | 22.554     |   0.0 | 24.46
Modify  | 68.914     | 68.964     | 69.035     |   0.3 | 74.81
Other   |            | 0.3969     |            |       |  0.43

Nlocal:    161.562 ave 350 max 18 min
Histogram: 5 1 6 2 5 4 3 5 0 1
Nghost:    95.4062 ave 212 max 26 min
Histogram: 2 7 6 8 3 1 0 2 0 3
Neighs:    581.312 ave 1374 max 45 min
Histogram: 5 3 5 3 3 6 3 2 1 1

Total # of neighbors = 18602
Ave neighs/atom = 3.59807
Neighbor list builds = 683
Dangerous builds = 0
#shell cd ..
#clear
#next reps
#jump SELF
Total wall time: 0:01:32
