LAMMPS (20 Nov 2019)
Reading data file ...
  orthogonal box = (0 0 0) to (0.001 0.001 0.0001)
  2 by 3 by 1 MPI processor grid
  reading atoms ...
  2 atoms
  4 nutrients
Lattice spacing in x,y,z = 100 100 100
1 atoms in group CYANO
1 atoms in group ECW
Model is defined as a closed system. 
Neighbor list info ...
  update every 1 steps, delay 0 steps, check yes
  max neighbors/atom: 5000, page size: 100000
  master list distance cutoff = 1.89e-06
  ghost atom cutoff = 1.89e-06
  binsize = 9.45e-07, bins = 1059 1059 106
  1 neighbor lists, perpetual/occasional/extra = 1 0 0
  (1) pair gran/hooke/history, perpetual
      attributes: half, newton off, size, history
      pair build: half/size/bin/newtoff
      stencil: half/bin/3d/newtoff
      bin: standard
Setting up Verlet run ...
  Unit style    : lj
  Current step  : 0
  Time step     : 10
Per MPI rank memory allocation (min/avg/max) = 84.25 | 92.35 | 108.5 Mbytes
Step CPU Atoms c_myNtypes[1] c_myNtypes[2] c_myMass[1] c_myMass[2] c_myCon[1] c_myCon[2] c_myCon[3] c_myCon[4] 
       0            0        2            1            1 5.2028912e-16 1.3941014e-16          0.1        0.009     3.42e-20       0.0299 
number of iterations: 578268 
     100    3.3910693        3            1            2 5.2906561e-16 1.3929094e-16          0.1 0.0090000007 2.9740298e-08  0.029899999 
number of iterations: 265337 
     200    4.8457885        3            1            2 5.3799014e-16 1.3917185e-16          0.1 0.0090000007 1.2273938e-07  0.029899999 
number of iterations: 172174 
     300    5.8276075        3            1            2 5.4706522e-16 1.3905286e-16          0.1 0.0090000007 2.679185e-07  0.029899999 
number of iterations: 147091 
     400    6.6947496        3            1            2 5.5629337e-16 1.3893397e-16          0.1 0.0090000007 4.3528027e-07  0.029899999 
number of iterations: 128084 
     500    7.4355723        3            1            2 5.656772e-16 1.3881518e-16          0.1 0.0090000007 6.2300809e-07  0.029899999 
number of iterations: 113082 
     600    8.1088397        3            1            2 5.7521931e-16 1.3869649e-16          0.1 0.0090000008 8.2964895e-07  0.029899999 
number of iterations: 100862 
     700    8.7821006        3            1            2 5.8492238e-16 1.3857791e-16          0.1 0.0090000008 1.0540449e-06  0.029899999 
number of iterations: 90654 
     800    9.3252752        3            1            2 5.9478913e-16 1.3845943e-16          0.1 0.0090000008 1.2952754e-06  0.029899999 
number of iterations: 81957 
     900    9.8407168        3            1            2 6.0482232e-16 1.3834105e-16          0.1 0.0090000008 1.5525991e-06  0.029899999 
number of iterations: 74424 
    1000    10.763374        3            1            2 6.1502475e-16 1.3822277e-16          0.1 0.0090000008 1.8254208e-06  0.029899999 
number of iterations: 67812 
    1100    11.202099        3            1            2 6.2539929e-16 1.3810459e-16          0.1 0.0090000008 2.1132578e-06  0.029899999 
number of iterations: 61944 
    1200    11.633967        3            1            2 6.3594882e-16 1.3798652e-16          0.1 0.0090000008 2.4157168e-06  0.029899999 
number of iterations: 56687 
    1300    12.006356        3            1            2 6.4667631e-16 1.3786855e-16          0.1 0.0090000009 2.7324785e-06  0.029899999 
number of iterations: 51940 
    1400    12.371101        3            1            2 6.5758475e-16 1.3775068e-16          0.1 0.0090000009 3.0632829e-06  0.029899999 
number of iterations: 47622 
    1500    12.723184        3            1            2 6.6867721e-16 1.3763291e-16          0.1 0.0090000009 3.4079241e-06  0.029899999 
number of iterations: 43672 
    1600    13.053242        3            1            2 6.7995677e-16 1.3751524e-16          0.1 0.0090000009 3.7662357e-06  0.029899999 
number of iterations: 40039 
    1700    13.361213        3            1            2 6.9142661e-16 1.3739767e-16          0.1 0.0090000009 4.1380886e-06  0.029899999 
number of iterations: 36682 
    1800    13.683601        3            1            2 7.0308993e-16 1.3728021e-16          0.1 0.0090000009 4.523385e-06  0.029899998 
number of iterations: 33567 
    1900    13.969758        3            1            2 7.1494998e-16 1.3716284e-16          0.1  0.009000001 4.9220545e-06  0.029899998 
number of iterations: 30666 
    2000    14.607385        3            1            2 7.270101e-16 1.3704558e-16          0.1  0.009000001 5.3340502e-06  0.029899998 
number of iterations: 27955 
    2100    14.868718        3            1            2 7.3927365e-16 1.3692842e-16          0.1  0.009000001 5.7593469e-06  0.029899998 
number of iterations: 25414 
    2200    15.111754        3            1            2 7.5174408e-16 1.3681136e-16          0.1  0.009000001 6.1979381e-06  0.029899998 
number of iterations: 23026 
    2300     15.32771        3            1            2 7.6442485e-16 1.366944e-16          0.1  0.009000001 6.6498339e-06  0.029899998 
number of iterations: 20777 
    2400    15.539778        3            1            2 7.7731954e-16 1.3657754e-16          0.1  0.009000001 7.1150576e-06  0.029899998 
number of iterations: 18653 
    2500    15.747811        3            1            2 7.9043174e-16 1.3646078e-16          0.1 0.0090000011 7.5936493e-06  0.029899998 
number of iterations: 16643 
    2600    15.946679        3            1            2 8.0376512e-16 1.3634412e-16          0.1 0.0090000011 8.0856618e-06  0.029899998 
number of iterations: 14737 
    2700     16.12939        3            1            2 8.1732341e-16 1.3622757e-16          0.1 0.0090000011  8.59116e-06  0.029899998 
number of iterations: 12927 
    2800    16.308206        3            1            2 8.3111041e-16 1.3611111e-16          0.1 0.0090000011 9.1102185e-06  0.029899998 
number of iterations: 11205 
    2900    16.470563        3            1            2 8.4512998e-16 1.3599476e-16          0.1 0.0090000011 9.6429228e-06  0.029899998 
number of iterations: 9564 
    3000    17.030029        3            1            2 8.5938604e-16 1.3587851e-16          0.1 0.0090000012 1.0189369e-05  0.029899998 
number of iterations: 7999 
    3100    17.194387        3            1            2 8.7388257e-16 1.3576235e-16          0.1 0.0090000012 1.0749659e-05  0.029899998 
number of iterations: 7626 
    3200    17.349011        3            1            2 8.8862364e-16 1.356463e-16          0.1 0.0090000012 1.1323905e-05  0.029899998 
number of iterations: 7710 
    3300     17.48604        3            1            2 9.0361337e-16 1.3553035e-16          0.1 0.0090000012 1.1912227e-05  0.029899998 
number of iterations: 7794 
    3400    17.623406        3            1            2 9.1885595e-16 1.354145e-16          0.1 0.0090000012 1.2514757e-05  0.029899998 
number of iterations: 7879 
    3500     17.75664        3            1            2 9.3435565e-16 1.3529875e-16          0.1 0.0090000013 1.3131628e-05  0.029899998 
number of iterations: 7965 
    3600    17.883409        3            1            2 9.5011681e-16 1.351831e-16          0.1 0.0090000013 1.3762985e-05  0.029899998 
number of iterations: 8051 
    3700    18.032183        3            1            2 9.6614384e-16 1.3506755e-16          0.1 0.0090000013 1.4408707e-05  0.029899998 
number of iterations: 8138 
    3800    18.164532        3            1            2 9.8244121e-16 1.349521e-16          0.1 0.0090000013 1.5065321e-05  0.029899998 
number of iterations: 8225 
    3900    18.294509        3            1            2 9.990135e-16 1.3483675e-16          0.1 0.0090000013 1.5733011e-05  0.029899998 
number of iterations: 8313 
    4000    18.840196        3            1            2 1.0158653e-15 1.347215e-16          0.1 0.0090000014 1.6411964e-05  0.029899998 
number of iterations: 8402 
    4100    18.984105        3            1            2 1.0330014e-15 1.3460635e-16          0.1 0.0090000014 1.710237e-05  0.029899998 
number of iterations: 8491 
    4200    19.119328        3            1            2 1.0504266e-15 1.344913e-16          0.1 0.0090000014 1.7804422e-05  0.029899998 
number of iterations: 8580 
    4300    19.258456        3            1            2 1.0681457e-15 1.3437635e-16          0.1 0.0090000014 1.8518317e-05  0.029899998 
number of iterations: 8671 
    4400    19.393477        3            1            2 1.0861637e-15 1.342615e-16          0.1 0.0090000015 1.9244254e-05  0.029899998 
number of iterations: 8762 
    4500    19.525856        3            1            2 1.1044856e-15 1.3414675e-16          0.1 0.0090000015 1.9982436e-05  0.029899998 
number of iterations: 8853 
    4600    19.664617        3            1            2 1.1231166e-15 1.340321e-16          0.1 0.0090000015 2.073307e-05  0.029899998 
number of iterations: 8945 
    4700     19.79428        3            1            2 1.1420619e-15 1.3391754e-16          0.1 0.0090000015 2.1496366e-05  0.029899997 
number of iterations: 9037 
    4800    19.940319        3            1            2 1.1613267e-15 1.3380309e-16          0.1 0.0090000016 2.2272538e-05  0.029899997 
number of iterations: 9130 
    4900    20.080195        3            1            2 1.1809165e-15 1.3368874e-16          0.1 0.0090000016 2.3061803e-05  0.029899997 
number of iterations: 9224 
    5000     20.61825        3            1            2 1.2008368e-15 1.3357449e-16          0.1 0.0090000016 2.3864381e-05  0.029899997 
number of iterations: 9318 
    5100    20.756233        3            1            2 1.2210931e-15 1.3346034e-16          0.1 0.0090000016 2.4680498e-05  0.029899997 
number of iterations: 9413 
    5200    20.893084        3            1            2 1.2416911e-15 1.3334628e-16          0.1 0.0090000017 2.5510381e-05  0.029899997 
number of iterations: 9508 
    5300    21.032846        3            1            2 1.2626365e-15 1.3323233e-16          0.1 0.0090000017 2.6354263e-05  0.029899997 
number of iterations: 9604 
    5400    21.179878        3            1            2 1.2839353e-15 1.3311847e-16          0.1 0.0090000017 2.7212381e-05  0.029899997 
number of iterations: 9700 
    5500    21.325289        3            1            2 1.3055933e-15 1.3300472e-16          0.1 0.0090000018 2.8084973e-05  0.029899997 
number of iterations: 9797 
    5600    21.458117        3            1            2 1.3276167e-15 1.3289106e-16          0.1 0.0090000018 2.8972289e-05  0.029899997 
number of iterations: 9895 
    5700    21.600623        3            1            2 1.3500115e-15 1.3277751e-16          0.1 0.0090000018 2.9874572e-05  0.029899997 
number of iterations: 9992 
    5800    21.748641        3            1            2 1.3727842e-15 1.3266405e-16          0.1 0.0090000019 3.0792076e-05  0.029899997 
number of iterations: 10091 
    5900    21.905334        3            1            2 1.395941e-15 1.3255069e-16          0.1 0.0090000019 3.1725057e-05  0.029899997 
number of iterations: 10190 
    6000     22.45835        3            1            2 1.4194884e-15 1.3243743e-16          0.1 0.0090000019 3.2673775e-05  0.029899997 
number of iterations: 10290 
    6100    22.593236        3            1            2 1.443433e-15 1.3232427e-16          0.1  0.009000002 3.3638497e-05  0.029899997 
number of iterations: 10390 
    6200    22.739091        3            1            2 1.4677815e-15 1.322112e-16          0.1  0.009000002 3.4619493e-05  0.029899997 
number of iterations: 29954 
    6300    23.062575        4            2            2 1.4925407e-15 1.3209824e-16          0.1 0.0090000019 3.5617034e-05  0.029899997 
number of iterations: 5968 
    6400    23.184411        4            2            2 1.5177176e-15 1.3198537e-16          0.1 0.0090000019 3.6631401e-05  0.029899997 
number of iterations: 7323 
    6500    23.309467        4            2            2 1.5433192e-15 1.3187261e-16          0.1 0.0090000019 3.766288e-05  0.029899997 
number of iterations: 7702 
    6600    23.439498        4            2            2 1.5693527e-15 1.3175994e-16          0.1  0.009000002 3.8711758e-05  0.029899997 
number of iterations: 7956 
    6700    23.573074        4            2            2 1.5958252e-15 1.3164737e-16          0.1  0.009000002 3.9778329e-05  0.029899997 
number of iterations: 8420 
    6800    23.713196        4            2            2 1.6227444e-15 1.315349e-16          0.1  0.009000002 4.0862891e-05  0.029899997 
number of iterations: 8549 
    6900    23.857124        4            2            2 1.6501176e-15 1.3142253e-16          0.1 0.0090000021 4.1965748e-05  0.029899997 
number of iterations: 8660 
    7000    24.381265        4            2            2 1.6779526e-15 1.3131025e-16          0.1 0.0090000021 4.3087209e-05  0.029899997 
number of iterations: 8763 
    7100    24.517799        4            2            2 1.7062571e-15 1.3119808e-16          0.1 0.0090000021 4.4227587e-05  0.029899997 
number of iterations: 8864 
    7200    24.646574        4            2            2 1.7350391e-15  1.31086e-16          0.1 0.0090000022 4.5387202e-05  0.029899996 
number of iterations: 8963 
    7300      24.7814        4            2            2 1.7643065e-15 1.3097402e-16          0.1 0.0090000022 4.6566377e-05  0.029899996 
number of iterations: 9063 
    7400     24.92654        4            2            2 1.7940677e-15 1.3086214e-16          0.1 0.0090000022 4.7765443e-05  0.029899996 
number of iterations: 9162 
    7500    25.065935        4            2            2 1.8243309e-15 1.3075036e-16          0.1 0.0090000023 4.8984736e-05  0.029899996 
number of iterations: 9262 
    7600    25.206938        4            2            2 1.8551046e-15 1.3063868e-16          0.1 0.0090000023 5.0224596e-05  0.029899996 
number of iterations: 9362 
    7700    25.344652        4            2            2 1.8863974e-15 1.3052709e-16          0.1 0.0090000024 5.1485371e-05  0.029899996 
number of iterations: 9463 
    7800    25.478755        4            2            2 1.918218e-15 1.304156e-16          0.1 0.0090000024 5.2767413e-05  0.029899996 
number of iterations: 9564 
    7900    25.621305        4            2            2 1.9505754e-15 1.3030421e-16          0.1 0.0090000024 5.4071081e-05  0.029899996 
number of iterations: 9667 
    8000    26.163443        4            2            2 1.9834787e-15 1.3019292e-16          0.1 0.0090000025 5.539674e-05  0.029899996 
number of iterations: 9769 
    8100    26.319492        4            2            2 2.0169369e-15 1.3008173e-16          0.1 0.0090000025 5.6744761e-05  0.029899996 
number of iterations: 9873 
    8200    26.465725        4            2            2 2.0509596e-15 1.2997063e-16          0.1 0.0090000026 5.8115521e-05  0.029899996 
number of iterations: 9977 
    8300    26.615596        4            2            2 2.0855562e-15 1.2985963e-16          0.1 0.0090000026 5.9509404e-05  0.029899996 
number of iterations: 10082 
    8400    26.756232        4            2            2 2.1207363e-15 1.2974873e-16          0.1 0.0090000027 6.0926799e-05  0.029899996 
number of iterations: 10187 
    8500     26.90485        4            2            2 2.1565099e-15 1.2963793e-16          0.1 0.0090000027 6.2368104e-05  0.029899996 
number of iterations: 10293 
    8600    27.049983        4            2            2 2.1928869e-15 1.2952723e-16          0.1 0.0090000027 6.3833721e-05  0.029899996 
number of iterations: 10400 
    8700    27.201386        4            2            2 2.2298776e-15 1.2941662e-16          0.1 0.0090000028 6.532406e-05  0.029899995 
number of iterations: 10507 
    8800    27.350267        4            2            2 2.2674923e-15 1.2930611e-16          0.1 0.0090000028 6.683954e-05  0.029899995 
number of iterations: 10615 
    8900    27.499313        4            2            2 2.3057414e-15 1.291957e-16          0.1 0.0090000029 6.8380583e-05  0.029899995 
number of iterations: 10724 
    9000     28.06386        4            2            2 2.3446357e-15 1.2908538e-16          0.1 0.0090000029 6.9947622e-05  0.029899995 
number of iterations: 10833 
    9100    28.212545        4            2            2 2.3841862e-15 1.2897517e-16          0.1  0.009000003 7.1541094e-05  0.029899995 
number of iterations: 10943 
    9200    28.358611        4            2            2 2.4244038e-15 1.2886505e-16          0.1  0.009000003 7.3161445e-05  0.029899995 
number of iterations: 11054 
    9300    28.523399        4            2            2 2.4652998e-15 1.2875503e-16          0.1 0.0090000031 7.4809129e-05  0.029899995 
number of iterations: 11165 
    9400    28.682085        4            2            2 2.5068856e-15 1.286451e-16          0.1 0.0090000031 7.6484608e-05  0.029899995 
number of iterations: 11277 
    9500    28.833388        4            2            2 2.549173e-15 1.2853528e-16          0.1 0.0090000032 7.8188348e-05  0.029899995 
number of iterations: 11389 
    9600    28.985276        4            2            2 2.5921736e-15 1.2842555e-16          0.1 0.0090000033 7.9920829e-05  0.029899995 
number of iterations: 11502 
    9700    29.143598        4            2            2 2.6358997e-15 1.2831591e-16          0.1 0.0090000033 8.1682533e-05  0.029899995 
number of iterations: 11616 
    9800    29.302088        4            2            2 2.6803633e-15 1.2820638e-16          0.1 0.0090000034 8.3473955e-05  0.029899994 
number of iterations: 11730 
    9900     29.47103        4            2            2 2.7255769e-15 1.2809694e-16          0.1 0.0090000034 8.5295596e-05  0.029899994 
number of iterations: 11845 
   10000    30.047016        4            2            2 2.7715533e-15 1.279876e-16          0.1 0.0090000035 8.7147965e-05  0.029899994 
number of iterations: 11961 
   10100     30.20559        4            2            2 2.8183052e-15 1.2787836e-16          0.1 0.0090000035 8.903158e-05  0.029899994 
number of iterations: 12077 
   10200    30.377373        4            2            2 2.8658457e-15 1.2776922e-16          0.1 0.0090000036 9.0946969e-05  0.029899994 
number of iterations: 12193 
   10300    30.534783        4            2            2 2.9141881e-15 1.2766017e-16          0.1 0.0090000037 9.2894668e-05  0.029899994 
number of iterations: 12311 
   10400    30.689066        5            3            2 2.963346e-15 1.2755122e-16          0.1 0.0090000037 9.4875221e-05  0.029899994 
number of iterations: 12429 
   10500    30.852679        6            4            2 3.0133332e-15 1.2744237e-16          0.1 0.0090000038 9.6889184e-05  0.029899994 
number of iterations: 12547 
   10600    31.007463        6            4            2 3.0641635e-15 1.2733361e-16          0.1 0.0090000039 9.8937118e-05  0.029899994 
number of iterations: 12666 
   10700    31.185478        6            4            2 3.1158513e-15 1.2722495e-16          0.1 0.0090000039 0.0001010196  0.029899994 
number of iterations: 12786 
   10800    31.350916        6            4            2 3.168411e-15 1.2711639e-16          0.1  0.009000004 0.00010313721  0.029899993 
number of iterations: 12906 
   10900    31.522916        6            4            2 3.2218572e-15 1.2700792e-16          0.1 0.0090000041 0.00010529054  0.029899993 
number of iterations: 13027 
   11000    32.099411        6            4            2 3.2762051e-15 1.2689956e-16          0.1 0.0090000041 0.00010748019  0.029899993 
number of iterations: 13149 
   11100    32.266474        6            4            2 3.3314697e-15 1.2679129e-16          0.1 0.0090000042 0.00010970678  0.029899993 
number of iterations: 13271 
   11200    32.436033        6            4            2 3.3876665e-15 1.2668311e-16          0.1 0.0090000043 0.00011197093  0.029899993 
number of iterations: 13393 
   11300    32.608814        6            4            2 3.4448113e-15 1.2657504e-16          0.1 0.0090000043 0.00011427327  0.029899993 
number of iterations: 13517 
   11400    32.780192        6            4            2  3.50292e-15 1.2646706e-16          0.1 0.0090000044 0.00011661444  0.029899993 
number of iterations: 13640 
   11500    32.945287        6            4            2 3.5620089e-15 1.2635918e-16          0.1 0.0090000045 0.00011899511  0.029899993 
number of iterations: 13765 
   11600    33.116753        6            4            2 3.6220946e-15 1.2625139e-16          0.1 0.0090000046 0.00012141594  0.029899992 
number of iterations: 13890 
   11700    33.299326        6            4            2 3.6831938e-15 1.261437e-16          0.1 0.0090000046 0.00012387761  0.029899992 
number of iterations: 14015 
   11800    33.490803        6            4            2 3.7453237e-15 1.2603611e-16          0.1 0.0090000047 0.00012638079  0.029899992 
number of iterations: 14141 
   11900     33.68582        6            4            2 3.8085016e-15 1.2592862e-16          0.1 0.0090000048 0.00012892621  0.029899992 
number of iterations: 14268 
   12000    34.276571        6            4            2 3.8727452e-15 1.2582122e-16          0.1 0.0090000049 0.00013151456  0.029899992 
number of iterations: 14395 
   12100    34.466232        6            4            2 3.9380725e-15 1.2571392e-16          0.1  0.009000005 0.00013414657  0.029899992 
number of iterations: 14523 
   12200    34.646302        6            4            2 4.0045018e-15 1.2560672e-16          0.1  0.009000005 0.00013682298  0.029899992 
number of iterations: 14651 
   12300    34.837363        6            4            2 4.0720516e-15 1.2549961e-16          0.1 0.0090000051 0.00013954454  0.029899992 
number of iterations: 14780 
   12400     35.02978        6            4            2 4.140741e-15 1.2539261e-16          0.1 0.0090000052  0.000142312  0.029899991 
number of iterations: 14909 
   12500    35.193963        6            4            2 4.210589e-15 1.2528569e-16          0.1 0.0090000053 0.00014512615  0.029899991 
number of iterations: 15039 
   12600    35.385707        6            4            2 4.2816152e-15 1.2517888e-16          0.1 0.0090000054 0.00014798777  0.029899991 
number of iterations: 15169 
   12700    35.562873        6            4            2 4.3538395e-15 1.2507216e-16          0.1 0.0090000055 0.00015089766  0.029899991 
number of iterations: 15300 
   12800    35.750152        6            4            2 4.4272822e-15 1.2496554e-16          0.1 0.0090000056 0.00015385663  0.029899991 
number of iterations: 15432 
   12900    35.937524        6            4            2 4.5019637e-15 1.2485902e-16          0.1 0.0090000057 0.00015686552  0.029899991 
number of iterations: 15564 
   13000    36.528791        6            4            2 4.5779049e-15 1.2475259e-16          0.1 0.0090000058 0.00015992517   0.02989999 
number of iterations: 15696 
   13100    36.727129        6            4            2 4.6551272e-15 1.2464627e-16          0.1 0.0090000059 0.00016303642   0.02989999 
number of iterations: 15829 
   13200    36.937651        6            4            2 4.7336521e-15 1.2454003e-16          0.1  0.009000006 0.00016620016   0.02989999 
number of iterations: 15963 
   13300    37.124965        6            4            2 4.8135016e-15 1.244339e-16          0.1 0.0090000061 0.00016941727   0.02989999 
number of iterations: 16097 
   13400    37.328317        6            4            2 4.8946981e-15 1.2432786e-16          0.1 0.0090000062 0.00017268864   0.02989999 
number of iterations: 16231 
   13500    37.526619        6            4            2 4.9772642e-15 1.2422192e-16          0.1 0.0090000063 0.00017601519   0.02989999 
number of iterations: 29500 
   13600    37.837244        7            5            2 5.061223e-15 1.2411608e-16          0.1 0.0090000063 0.00017939786   0.02989999 
number of iterations: 15860 
   13700     38.03896        7            5            2 5.1465982e-15 1.2401033e-16          0.1 0.0090000064 0.00018283759  0.029899989 
number of iterations: 16635 
   13800    38.236521        7            5            2 5.2334134e-15 1.2390468e-16          0.1 0.0090000065 0.00018633534  0.029899989 
number of iterations: 16904 
   13900    38.456714        7            5            2 5.3216932e-15 1.2379913e-16          0.1 0.0090000066 0.00018989209  0.029899989 
number of iterations: 17066 
   14000    39.107062        7            5            2 5.411462e-15 1.2369368e-16          0.1 0.0090000067 0.00019350884  0.029899989 
number of iterations: 17204 
   14100    39.295556        7            5            2 5.5027452e-15 1.2358832e-16          0.1 0.0090000068 0.0001971866  0.029899989 
number of iterations: 17337 
   14200    39.494163        7            5            2 5.5955681e-15 1.2348306e-16          0.1 0.0090000069 0.0002009264  0.029899989 
number of iterations: 17468 
   14300     39.69223        7            5            2 5.6899568e-15 1.233779e-16          0.1  0.009000007 0.00020472928  0.029899988 
number of iterations: 17600 
   14400    39.901261        7            5            2 5.7859377e-15 1.2327284e-16          0.1 0.0090000071 0.00020859631  0.029899988 
number of iterations: 17731 
   14500    40.106836        7            5            2 5.8835377e-15 1.2316787e-16          0.1 0.0090000073 0.00021252857  0.029899988 
number of iterations: 37767 
   14600     40.48672        8            6            2 5.982784e-15 1.2306305e-16          0.1 0.0090000075 0.00021652716  0.029899988 
number of iterations: 37437 
   14700    40.885356        9            7            2 6.0837044e-15 1.2295837e-16          0.1 0.0090000077 0.00022059321  0.029899987 
number of iterations: 10696 
   14800    41.024612        9            7            2 6.1863273e-15 1.228538e-16          0.1 0.0090000078 0.00022472784  0.029899987 
number of iterations: 15347 
   14900    41.203085        9            7            2 6.2906812e-15 1.2274932e-16          0.1 0.0090000079 0.00022893222  0.029899987 
number of iterations: 15794 
   15000    41.801633        9            7            2 6.3967954e-15 1.2264495e-16          0.1  0.009000008 0.00023320751  0.029899987 
number of iterations: 16001 
   15100    41.983844        9            7            2 6.5046996e-15 1.2254067e-16          0.1 0.0090000082 0.00023755493  0.029899987 
number of iterations: 16155 
   15200    42.182427        9            7            2 6.614424e-15 1.2243649e-16          0.1 0.0090000083 0.00024197568  0.029899986 
number of iterations: 16296 
   15300    42.372409        9            7            2 6.7259993e-15 1.2233241e-16          0.1 0.0090000084  0.000246471  0.029899986 
number of iterations: 16433 
   15400    42.565996        9            7            2 6.8394566e-15 1.2222844e-16          0.1 0.0090000086 0.00025104216  0.029899986 
number of iterations: 16571 
   15500    42.762032        9            7            2 6.9548278e-15 1.2212456e-16          0.1 0.0090000087 0.00025569042  0.029899986 
number of iterations: 16708 
   15600    42.948433       10            8            2 7.0721452e-15 1.2202078e-16          0.1 0.0090000089 0.00026041708  0.029899985 
number of iterations: 30332 
   15700    43.346616       10            8            2 7.1914415e-15 1.219171e-16          0.1 0.0090000089 0.00026522348  0.029899985 
number of iterations: 16709 
   15800    43.556467       10            8            2 7.3127502e-15 1.2181352e-16          0.1  0.009000009 0.00027011096  0.029899985 
number of iterations: 17474 
   15900    43.763129       10            8            2 7.4361051e-15 1.2171004e-16          0.1 0.0090000092 0.00027508088  0.029899985 
number of iterations: 17736 
   16000    44.395065       10            8            2 7.5615409e-15 1.2160666e-16          0.1 0.0090000093 0.00028013463  0.029899985 
number of iterations: 17897 
   16100    44.606463       10            8            2 7.6890926e-15 1.2150338e-16          0.1 0.0090000095 0.00028527363  0.029899984 
number of iterations: 18035 
   16200     44.82988       10            8            2 7.8187959e-15 1.214002e-16          0.1 0.0090000096 0.00029049932  0.029899984 
number of iterations: 18169 
   16300     45.03957       10            8            2 7.9506871e-15 1.2129712e-16          0.1 0.0090000098 0.00029581316  0.029899984 
number of iterations: 18302 
   16400    45.262201       10            8            2 8.084803e-15 1.2119414e-16          0.1   0.00900001 0.00030121664  0.029899983 
number of iterations: 18435 
   16500    45.468074       10            8            2 8.2211814e-15 1.2109126e-16          0.1 0.0090000101 0.00030671126  0.029899983 
number of iterations: 18568 
   16600    45.686546       10            8            2 8.3598602e-15 1.2098848e-16          0.1 0.0090000103 0.00031229857  0.029899983 
number of iterations: 18701 
   16700    45.912331       10            8            2 8.5008783e-15 1.2088581e-16          0.1 0.0090000105 0.00031798013  0.029899983 
number of iterations: 18835 
   16800     46.12922       10            8            2 8.6442752e-15 1.2078323e-16          0.1 0.0090000107 0.00032375753  0.029899982 
number of iterations: 18969 
   16900    46.346234       10            8            2 8.7900909e-15 1.2068076e-16          0.1 0.0090000109 0.00032963238  0.029899982 
number of iterations: 19104 
   17000    46.966249       10            8            2 8.9383664e-15 1.2057838e-16          0.1  0.009000011 0.00033560634  0.029899982 
number of iterations: 19238 
   17100    47.180205       10            8            2 9.089143e-15 1.2047611e-16          0.1 0.0090000112 0.00034168106  0.029899981 
number of iterations: 19374 
   17200    47.400688       10            8            2 9.242463e-15 1.2037394e-16          0.1 0.0090000114 0.00034785826  0.029899981 
number of iterations: 19509 
   17300    47.615461       10            8            2 9.3983693e-15 1.2027187e-16          0.1 0.0090000116 0.00035413966  0.029899981 
number of iterations: 19645 
   17400     47.83259       10            8            2 9.5569055e-15 1.201699e-16          0.1 0.0090000118 0.00036052701   0.02989998 
number of iterations: 19782 
   17500    48.072533       11            9            2 9.7181159e-15 1.2006804e-16          0.1  0.009000012 0.00036702211   0.02989998 
number of iterations: 19918 
   17600    48.316695       11            9            2 9.8820457e-15 1.1996628e-16          0.1 0.0090000122 0.00037362677   0.02989998 
number of iterations: 20055 
   17700    48.547253       11            9            2 1.0048741e-14 1.1986461e-16          0.1 0.0090000124 0.00038034285  0.029899979 
number of iterations: 20193 
   17800    48.777521       11            9            2 1.0218248e-14 1.1976306e-16          0.1 0.0090000126 0.00038717221  0.029899979 
number of iterations: 20330 
   17900    49.025135       11            9            2 1.0390614e-14 1.196616e-16          0.1 0.0090000128 0.00039411677  0.029899979 
number of iterations: 20468 
   18000    49.691829       12           10            2 1.0565888e-14 1.1956024e-16          0.1 0.0090000131 0.00040117848  0.029899978 
number of iterations: 20607 
   18100    49.966596       13           11            2 1.0744118e-14 1.1945899e-16          0.1 0.0090000133 0.00040835931  0.029899978 
number of iterations: 20745 
   18200    50.197136       13           11            2 1.0925355e-14 1.1935785e-16          0.1 0.0090000135 0.00041566126  0.029899978 
number of iterations: 20884 
   18300    50.432034       13           11            2 1.1109649e-14 1.192568e-16          0.1 0.0090000137 0.00042308639  0.029899977 
number of iterations: 21024 
   18400    50.672115       13           11            2 1.1297052e-14 1.1915586e-16          0.1  0.009000014 0.00043063678  0.029899977 
number of iterations: 21164 
   18500    50.924867       13           11            2 1.1487616e-14 1.1905502e-16          0.1 0.0090000142 0.00043831452  0.029899976 
number of iterations: 21304 
   18600    51.156277       14           12            2 1.1681395e-14 1.1895429e-16          0.1 0.0090000144 0.00044612178  0.029899976 
number of iterations: 21444 
   18700    51.444413       14           12            2 1.1878442e-14 1.1885365e-16          0.1 0.0090000147 0.00045406073  0.029899976 
number of iterations: 21585 
   18800    51.689691       14           12            2 1.2078813e-14 1.1875313e-16          0.1 0.0090000149 0.0004621336  0.029899975 
number of iterations: 21726 
   18900    51.924541       14           12            2 1.2282565e-14 1.1865271e-16          0.1 0.0090000152 0.00047034265  0.029899975 
number of iterations: 21867 
   19000    52.571185       14           12            2 1.2489753e-14 1.1855239e-16          0.1 0.0090000154 0.00047869017  0.029899974 
number of iterations: 22009 
   19100    52.823992       14           12            2 1.2700436e-14 1.1845217e-16          0.1 0.0090000157 0.0004871785  0.029899974 
number of iterations: 22151 
   19200    53.090597       15           13            2 1.2914673e-14 1.1835207e-16          0.1  0.009000016 0.00049581002  0.029899974 
number of iterations: 22293 
   19300    53.328964       15           13            2 1.3132524e-14 1.1825206e-16          0.1 0.0090000162 0.00050458714  0.029899973 
number of iterations: 36763 
   19400    53.742868       16           14            2 1.3354049e-14 1.1815221e-16          0.1 0.0090000167 0.00051351231  0.029899972 
number of iterations: 19676 
   19500    53.968112       16           14            2 1.3579312e-14 1.1805246e-16          0.1 0.0090000169 0.00052258804  0.029899972 
number of iterations: 21550 
   19600    54.201236       17           15            2 1.3808374e-14 1.1795282e-16          0.1 0.0090000172 0.00053181687  0.029899971 
number of iterations: 21788 
   19700    54.441175       17           15            2  1.40413e-14 1.1785328e-16          0.1 0.0090000175 0.00054120137  0.029899971 
number of iterations: 21955 
   19800    54.677063       17           15            2 1.4278156e-14 1.1775385e-16          0.1 0.0090000178 0.00055074417   0.02989997 
number of iterations: 22112 
   19900    54.912092       17           15            2 1.4519006e-14 1.1765453e-16          0.1 0.0090000181 0.00056044795   0.02989997 
number of iterations: 22268 
   20000    55.540369       17           15            2 1.476392e-14 1.1755532e-16          0.1 0.0090000184 0.00057031541  0.029899969 
number of iterations: 22424 
   20100     55.79148       17           15            2 1.5012965e-14 1.1745621e-16          0.1 0.0090000187 0.00058034933  0.029899969 
number of iterations: 22580 
   20200     56.02347       18           16            2 1.5266211e-14 1.1735721e-16          0.1 0.0090000191 0.0005905525  0.029899968 
number of iterations: 22737 
   20300    56.265912       18           16            2 1.5523728e-14 1.1725832e-16          0.1 0.0090000194 0.00060092778  0.029899968 
number of iterations: 22894 
   20400    56.517678       18           16            2 1.578559e-14 1.1715954e-16          0.1 0.0090000197 0.00061147807  0.029899967 
number of iterations: 42949 
   20500    56.989236       18           16            2 1.6051869e-14 1.1706094e-16          0.1 0.0090000201 0.00062220634  0.029899967 
number of iterations: 30952 
   20600    57.309751       19           17            2 1.6322639e-14 1.1696244e-16          0.1 0.0090000205 0.00063311557  0.029899966 
number of iterations: 22207 
   20700    57.579369       19           17            2 1.6597977e-14 1.1686406e-16          0.1 0.0090000208 0.00064420883  0.029899965 
number of iterations: 22638 
   20800    57.855125       19           17            2 1.687796e-14 1.1676579e-16          0.1 0.0090000212 0.00065548922  0.029899965 
number of iterations: 22816 
   20900    58.139208       19           17            2 1.7162666e-14 1.1666762e-16          0.1 0.0090000215 0.00066695988  0.029899964 
number of iterations: 22976 
   21000    58.851209       19           17            2 1.7452174e-14 1.1656957e-16          0.1 0.0090000219 0.00067862404  0.029899964 
number of iterations: 23134 
   21100    59.150614       19           17            2 1.7746565e-14 1.1647164e-16          0.1 0.0090000223 0.00069048496  0.029899963 
number of iterations: 23292 
   21200    59.454963       19           17            2 1.8045923e-14 1.1637381e-16          0.1 0.0090000227 0.00070254595  0.029899962 
number of iterations: 31886 
   21300    59.821519       20           18            2 1.835033e-14 1.162761e-16          0.1 0.0090000229 0.00071481039  0.029899962 
number of iterations: 23243 
   21400    60.103398       20           18            2 1.8659872e-14 1.161785e-16          0.1 0.0090000233 0.00072728171  0.029899961 
number of iterations: 23859 
   21500    60.386465       20           18            2 1.8974636e-14 1.1608101e-16          0.1 0.0090000237 0.00073996341  0.029899961 
number of iterations: 24061 
   21600    60.680631       20           18            2 1.9294709e-14 1.1598364e-16          0.1 0.0090000241 0.00075285902   0.02989996 
number of iterations: 39030 
   21700    61.089698       21           19            2 1.9620181e-14 1.1588643e-16          0.1 0.0090000245 0.00076597217  0.029899959 
number of iterations: 21887 
   21800    61.340192       21           19            2 1.9951144e-14 1.1578933e-16          0.1 0.0090000249 0.00077930651  0.029899959 
number of iterations: 23710 
   21900    61.631561       21           19            2 2.0287689e-14 1.1569235e-16          0.1 0.0090000253 0.00079286578  0.029899958 
number of iterations: 23932 
   22000    62.320417       21           19            2 2.0629911e-14 1.1559549e-16          0.1 0.0090000257 0.00080665378  0.029899957 
number of iterations: 24090 
   22100    62.619183       21           19            2 2.0977907e-14 1.1549875e-16          0.1 0.0090000262 0.00082067436  0.029899957 
number of iterations: 24240 
   22200    62.893892       21           19            2 2.1331772e-14 1.1540212e-16          0.1 0.0090000266 0.00083493144  0.029899956 
number of iterations: 24390 
   22300    63.151467       22           20            2 2.1691606e-14 1.1530561e-16          0.1  0.009000027 0.00084942903  0.029899955 
number of iterations: 24539 
   22400    63.463155       22           20            2 2.2057511e-14 1.1520921e-16          0.1 0.0090000275 0.00086417116  0.029899954 
number of iterations: 24688 
   22500    63.761451       22           20            2 2.2429587e-14 1.1511294e-16          0.1  0.009000028 0.00087916197  0.029899954 
number of iterations: 24838 
   22600    64.050064       23           21            2 2.280794e-14 1.1501678e-16          0.1 0.0090000284 0.00089440565  0.029899953 
number of iterations: 39362 
   22700    64.445148       24           22            2 2.3192676e-14 1.149207e-16          0.1  0.009000029 0.00090990647  0.029899952 
number of iterations: 25751 
   22800    64.733193       26           24            2 2.3583901e-14 1.1482474e-16          0.1 0.0090000294 0.00092566877  0.029899951 
number of iterations: 47839 
   22900    65.234931       27           25            2 2.3981725e-14 1.1472879e-16          0.1   0.00900003 0.00094169695   0.02989995 
number of iterations: 26903 
   23000    65.937069       27           25            2 2.438626e-14 1.1463296e-16          0.1 0.0090000304 0.0009579955  0.029899949 
number of iterations: 42168 
   23100    66.368541       28           26            2 2.4797619e-14 1.145372e-16          0.1  0.009000031 0.00097456898  0.029899948 
number of iterations: 27704 
   23200    66.652454       28           26            2 2.5215917e-14 1.1444156e-16          0.1 0.0090000315 0.00099142204  0.029899948 
number of iterations: 27804 
   23300    66.946753       29           27            2 2.5641271e-14 1.1434604e-16          0.1  0.009000032 0.0010085594  0.029899947 
number of iterations: 27964 
   23400    67.240379       29           27            2 2.6073801e-14 1.1425064e-16          0.1 0.0090000325 0.0010259858  0.029899946 
number of iterations: 28132 
   23500    67.522231       29           27            2 2.6513626e-14 1.1415535e-16          0.1 0.0090000331 0.0010437062  0.029899945 
number of iterations: 28301 
   23600    67.811256       29           27            2 2.696087e-14 1.1406019e-16          0.1 0.0090000337 0.0010617255  0.029899944 
number of iterations: 28471 
   23700    68.102854       29           27            2 2.7415659e-14 1.1396515e-16          0.1 0.0090000342 0.0010800487  0.029899943 
number of iterations: 28641 
   23800    68.419095       30           28            2 2.7878119e-14 1.1387023e-16          0.1 0.0090000348  0.001098681  0.029899942 
number of iterations: 39928 
   23900    68.843904       31           29            2 2.8348381e-14 1.137754e-16          0.1 0.0090000354 0.0011176277  0.029899941 
number of iterations: 29259 
   24000    69.569169       31           29            2 2.8826575e-14 1.1368068e-16          0.1  0.009000036 0.0011368939   0.02989994 
number of iterations: 37663 
   24100    69.949615       32           30            2 2.9312835e-14 1.1358613e-16          0.1 0.0090000366 0.0011564851  0.029899939 
number of iterations: 28135 
   24200    70.221558       32           30            2 2.9807298e-14 1.1349171e-16          0.1 0.0090000372 0.0011764068  0.029899938 
number of iterations: 29459 
   24300    70.559331       32           30            2 3.0310101e-14 1.1339741e-16          0.1 0.0090000378 0.0011966646  0.029899937 
number of iterations: 29665 
   24400    70.864903       32           30            2 3.0821387e-14 1.1330323e-16          0.1 0.0090000385 0.0012172641  0.029899936 
number of iterations: 29840 
   24500    71.176989       33           31            2 3.1341296e-14 1.1320918e-16          0.1 0.0090000391  0.001238211  0.029899935 
number of iterations: 30013 
   24600    71.477893       33           31            2 3.1869976e-14 1.1311526e-16          0.1 0.0090000398 0.0012595113  0.029899934 
number of iterations: 30186 
   24700    71.804933       33           31            2 3.2407574e-14 1.1302146e-16          0.1 0.0090000405 0.0012811709  0.029899933 
number of iterations: 30359 
   24800    72.107919       33           31            2 3.2954241e-14 1.1292779e-16          0.1 0.0090000411 0.0013031958  0.029899932 
number of iterations: 31424 
   24900     72.43449       35           33            2 3.3510128e-14 1.1283424e-16          0.1 0.0090000417 0.0013255923  0.029899931 
number of iterations: 30649 
   25000    73.155439       35           33            2 3.4075393e-14 1.1274082e-16          0.1 0.0090000424 0.0013483666   0.02989993 
number of iterations: 41939 
   25100    73.594077       36           34            2 3.4650193e-14 1.1264748e-16          0.1 0.0090000431 0.0013715251  0.029899928 
number of iterations: 31359 
   25200    73.942822       37           35            2 3.5234689e-14 1.1255427e-16          0.1 0.0090000438 0.0013950741  0.029899927 
number of iterations: 31492 
   25300    74.283252       37           35            2 3.5829044e-14 1.1246119e-16          0.1 0.0090000446 0.0014190205  0.029899926 
number of iterations: 31663 
   25400    74.617217       37           35            2 3.6433425e-14 1.1236824e-16          0.1 0.0090000453 0.0014433707  0.029899925 
number of iterations: 31839 
   25500    74.947239       38           36            2 3.7048002e-14 1.1227542e-16          0.1 0.0090000461 0.0014681318  0.029899923 
number of iterations: 32015 
   25600    75.328107       38           36            2 3.7672945e-14 1.1218274e-16          0.1 0.0090000468 0.0014933105  0.029899922 
number of iterations: 32191 
   25700    75.673437       39           37            2 3.830843e-14 1.1209018e-16          0.1 0.0090000476 0.0015189139  0.029899921 
number of iterations: 32368 
   25800    76.056444       39           37            2 3.8954635e-14 1.1199776e-16          0.1 0.0090000484 0.0015449492  0.029899919 
number of iterations: 32545 
   25900     76.40549       40           38            2 3.961174e-14 1.1190548e-16          0.1 0.0090000493 0.0015714237  0.029899918 
number of iterations: 32722 
   26000     77.12303       40           38            2 4.027993e-14 1.1181333e-16          0.1 0.0090000501 0.0015983448  0.029899917 
number of iterations: 32900 
   26100    77.467872       40           38            2 4.0959391e-14 1.1172132e-16          0.1 0.0090000509   0.00162572  0.029899915 
number of iterations: 36912 
   26200    77.841712       42           40            2 4.1650313e-14 1.1162948e-16          0.1 0.0090000517 0.0016535569  0.029899914 
number of iterations: 31965 
   26300    78.190513       42           40            2 4.235289e-14 1.1153777e-16          0.1 0.0090000525 0.0016818635  0.029899913 
number of iterations: 33081 
   26400    78.532106       42           40            2 4.3067319e-14 1.1144621e-16          0.1 0.0090000534 0.0017106475  0.029899911 
number of iterations: 33285 
   26500    78.907955       42           40            2 4.3793799e-14 1.1135479e-16          0.1 0.0090000543 0.0017399171   0.02989991 
number of iterations: 33465 
   26600    79.253214       43           41            2 4.4532533e-14 1.112635e-16          0.1 0.0090000552 0.0017696804  0.029899908 
number of iterations: 33645 
   26700    79.651462       46           44            2 4.5283729e-14 1.1117236e-16          0.1 0.0090000561 0.0017999457  0.029899907 
number of iterations: 46258 
   26800     80.16498       47           45            2 4.6047596e-14 1.1108146e-16          0.1 0.0090000571 0.0018307216  0.029899905 
number of iterations: 42778 
   26900    80.667938       49           47            2 4.6824349e-14 1.1099077e-16          0.1 0.0090000582 0.0018620166  0.029899903 
number of iterations: 32713 
   27000    81.492922       50           48            2 4.7614204e-14 1.1090021e-16          0.1 0.0090000592 0.0018938396  0.029899902 
number of iterations: 33697 
   27100    81.862288       51           49            2 4.8417383e-14 1.1080981e-16          0.1 0.0090000602 0.0019261993    0.0298999 
number of iterations: 33896 
   27200     82.20206       52           50            2 4.923411e-14 1.1071956e-16          0.1 0.0090000612 0.0019591049  0.029899898 
number of iterations: 34077 
   27300    82.550424       53           51            2 5.0064615e-14 1.1062945e-16          0.1 0.0090000622 0.0019925656  0.029899897 
number of iterations: 39163 
   27400    82.944644       53           51            2 5.0909128e-14 1.1053951e-16          0.1 0.0090000636 0.0020265907  0.029899894 
number of iterations: 34226 
   27500     83.28404       53           51            2 5.1767887e-14 1.1044973e-16          0.1 0.0090000646 0.0020611897  0.029899893 
number of iterations: 34611 
   27600    83.677027       54           52            2 5.2641133e-14 1.1036009e-16          0.1 0.0090000657 0.0020963724  0.029899891 
number of iterations: 34795 
   27700    84.047983       55           53            2 5.3529108e-14 1.1027061e-16          0.1 0.0090000668 0.0021321486  0.029899889 
number of iterations: 34975 
   27800    84.413898       56           54            2 5.4432062e-14 1.1018129e-16          0.1  0.009000068 0.0021685282  0.029899887 
number of iterations: 35156 
   27900    84.776602       58           56            2 5.5350248e-14 1.1009212e-16          0.1 0.0090000691 0.0022055216  0.029899885 
number of iterations: 46052 
   28000    85.682396       61           59            2 5.6283922e-14 1.1000319e-16          0.1 0.0090000703 0.0022431389  0.029899883 
number of iterations: 34180 
   28100    86.064263       61           59            2 5.7233346e-14 1.0991443e-16          0.1 0.0090000715 0.0022813908  0.029899881 
number of iterations: 35276 
   28200    86.416751       61           59            2 5.8198785e-14 1.0982583e-16          0.1 0.0090000727 0.0023202879  0.029899879 
number of iterations: 35478 
   28300    86.784693       62           60            2 5.918051e-14 1.0973739e-16          0.1 0.0090000739 0.0023598412  0.029899877 
number of iterations: 44759 
   28400    87.252987       63           61            2 6.0178794e-14 1.0964907e-16          0.1 0.0090000752 0.0024000617  0.029899875 
number of iterations: 41402 
   28500    87.689276       65           63            2 6.1193919e-14 1.0956091e-16          0.1 0.0090000766 0.0024409606  0.029899873 
number of iterations: 40244 
   28600    88.131238       65           63            2 6.2226167e-14 1.0947297e-16          0.1 0.0090000779 0.0024825495   0.02989987 
number of iterations: 35892 
   28700    88.496322       65           63            2 6.3275827e-14 1.0938519e-16          0.1 0.0090000792 0.0025248398  0.029899868 
number of iterations: 36579 
   28800    88.888762       66           64            2 6.4343193e-14 1.0929758e-16          0.1 0.0090000806 0.0025678436  0.029899866 
number of iterations: 36772 
   28900     89.27046       68           66            2 6.5428565e-14 1.0921014e-16          0.1 0.0090000819 0.0026115728  0.029899864 
number of iterations: 36954 
   29000    90.071298       68           66            2 6.6532244e-14 1.0912287e-16          0.1 0.0090000833 0.0026560396  0.029899861 
number of iterations: 37137 
   29100    90.458484       68           66            2 6.7654542e-14 1.0903578e-16          0.1 0.0090000847 0.0027012565  0.029899859 
number of iterations: 38084 
   29200    90.866506       69           67            2 6.879577e-14 1.0894886e-16          0.1  0.009000086 0.0027472361  0.029899857 
number of iterations: 41326 
   29300    91.269633       69           67            2 6.995625e-14 1.0886212e-16          0.1 0.0090000876 0.0027939913  0.029899854 
number of iterations: 44855 
   29400    91.722282       70           68            2 7.1136305e-14 1.087755e-16          0.1 0.0090000891 0.0028415353  0.029899852 
number of iterations: 38074 
   29500    92.135601       70           68            2 7.2336265e-14 1.0868906e-16          0.1 0.0090000906 0.0028898812  0.029899849 
number of iterations: 41363 
   29600    92.542866       72           70            2 7.3556468e-14 1.0860285e-16          0.1 0.0090000921 0.0029390426  0.029899847 
number of iterations: 39901 
   29700    92.995571       72           70            2 7.4797253e-14 1.0851683e-16          0.1 0.0090000934 0.0029890333  0.029899845 
number of iterations: 36784 
   29800    93.348247       74           72            2 7.6058968e-14 1.0843099e-16          0.1 0.0090000949 0.0030398673  0.029899842 
number of iterations: 38883 
   29900    93.764346       76           74            2 7.7341966e-14 1.0834534e-16          0.1 0.0090000967 0.0030915588  0.029899839 
number of iterations: 38606 
   30000    94.611243       77           75            2 7.8646607e-14 1.082599e-16          0.1 0.0090000985 0.0031441222  0.029899836 
number of iterations: 38809 
   30100    95.036425       79           77            2 7.9973255e-14 1.0817464e-16          0.1 0.0090001002 0.0031975723  0.029899833 
number of iterations: 38994 
   30200    95.457198       82           80            2 8.1322281e-14 1.0808957e-16          0.1 0.0090001019  0.003251924  0.029899831 
number of iterations: 42868 
   30300    95.935065       83           81            2 8.2694064e-14 1.0800469e-16          0.1 0.0090001038 0.0033071926  0.029899827 
number of iterations: 39426 
   30400    96.383819       85           83            2 8.4088986e-14 1.0792001e-16          0.1 0.0090001055 0.0033633935  0.029899824 
number of iterations: 42751 
   30500    96.840982       85           83            2 8.5507438e-14 1.0783553e-16          0.1 0.0090001074 0.0034205423  0.029899821 
number of iterations: 39862 
   30600      97.2257       87           85            2 8.6949818e-14 1.0775124e-16          0.1 0.0090001092 0.0034786552  0.029899818 
number of iterations: 41472 
   30700    97.674638       88           86            2 8.8416528e-14 1.0766715e-16          0.1  0.009000111 0.0035377484  0.029899815 
number of iterations: 48585 
   30800    98.190719       88           86            2 8.990798e-14 1.0758334e-16          0.1 0.0090001129 0.0035978383  0.029899812 
number of iterations: 51085 
   30900    98.727717       89           87            2 9.142459e-14 1.0749965e-16          0.1 0.0090001149 0.0036589419  0.029899809 
number of iterations: 48815 
   31000    99.655704       90           88            2 9.2966782e-14 1.0741626e-16          0.1 0.0090001168 0.0037210763  0.029899806 
number of iterations: 39957 
   31100    100.09616       92           90            2 9.453499e-14 1.0733307e-16          0.1 0.0090001187 0.0037842587  0.029899803 
number of iterations: 40699 
   31200    100.55394       94           92            2 9.612965e-14 1.0725009e-16          0.1 0.0090001207 0.0038485069  0.029899799 
number of iterations: 44042 
   31300    100.99578       95           93            2 9.775121e-14 1.0716733e-16          0.1 0.0090001229 0.0039138389  0.029899796 
number of iterations: 41135 
   31400    101.41094       96           94            2 9.9400123e-14 1.0708478e-16          0.1  0.009000125 0.0039802729  0.029899792 
number of iterations: 44879 
   31500    101.87213       98           96            2 1.0107685e-13 1.0700245e-16          0.1 0.0090001273 0.0040478276  0.029899788 
number of iterations: 38803 
   31600    102.30867      102          100            2 1.0278186e-13 1.0692036e-16          0.1 0.0090001294 0.0041165219  0.029899785 
number of iterations: 43261 
   31700     102.8069      107          105            2 1.0451564e-13 1.0683847e-16          0.1 0.0090001311 0.0041863748  0.029899782 
number of iterations: 43290 
   31800    103.29533      112          110            2 1.0627865e-13 1.0675681e-16          0.1 0.0090001335 0.0042574061  0.029899778 
number of iterations: 46392 
   31900    103.83264      113          111            2 1.0807141e-13 1.0667545e-16          0.1 0.0090001358 0.0043296356  0.029899774 
number of iterations: 41626 
   32000    104.71011      114          112            2 1.0989441e-13 1.0659432e-16          0.1 0.0090001381 0.0044030835   0.02989977 
number of iterations: 45640 
   32100    105.17278      114          112            2 1.1174816e-13 1.0651349e-16          0.1 0.0090001404 0.0044777704  0.029899766 
number of iterations: 44638 
   32200    105.64112      115          113            2 1.1363318e-13 1.0643289e-16          0.1 0.0090001429 0.0045537171  0.029899762 
number of iterations: 42472 
   32300    106.11897      117          115            2   1.1555e-13 1.0635253e-16          0.1 0.0090001453 0.0046309449  0.029899758 
number of iterations: 42673 
   32400    106.58119      119          117            2 1.1749915e-13 1.0627241e-16          0.1 0.0090001478 0.0047094754  0.029899754 
number of iterations: 46883 
   32500    107.06482      120          118            2 1.1948118e-13 1.0619249e-16          0.1 0.0090001503 0.0047893306   0.02989975 
number of iterations: 43150 
   32600    107.49054      124          122            2 1.2149664e-13 1.0611282e-16          0.1 0.0090001526 0.0048705328  0.029899746 
number of iterations: 43321 
   32700    108.00192      127          125            2 1.2354611e-13 1.0603339e-16          0.1 0.0090001552 0.0049531048  0.029899742 
number of iterations: 43510 
   32800    108.47584      130          128            2 1.2563014e-13 1.0595421e-16          0.1 0.0090001578 0.0050370697  0.029899737 
number of iterations: 44902 
   32900    109.02304      131          129            2 1.2774933e-13 1.0587534e-16          0.1 0.0090001605 0.0051224509  0.029899733 
number of iterations: 43565 
   33000    109.86712      131          129            2 1.2990426e-13 1.0579672e-16          0.1 0.0090001632 0.0052092723  0.029899728 
number of iterations: 43972 
   33100    110.31139      132          130            2 1.3209555e-13 1.0571836e-16          0.1 0.0090001659 0.0052975583  0.029899724 
number of iterations: 48592 
   33200    110.78184      134          132            2 1.343238e-13 1.0564022e-16          0.1 0.0090001688 0.0053873336  0.029899719 
number of iterations: 50707 
   33300     111.3693      137          135            2 1.3658963e-13 1.0556244e-16          0.1 0.0090001716 0.0054786232  0.029899714 
number of iterations: 50064 
   33400     111.8993      141          139            2 1.3889369e-13 1.0548489e-16          0.1 0.0090001745 0.0055714527   0.02989971 
number of iterations: 47509 
   33500    112.42206      144          142            2 1.4123661e-13 1.0540757e-16          0.1 0.0090001772 0.0056658482  0.029899705 
number of iterations: 44875 
   33600    112.90436      146          144            2 1.4361906e-13 1.0533052e-16          0.1 0.0090001802 0.0057618359    0.0298997 
number of iterations: 50393 
   33700    113.44713      148          146            2 1.4604169e-13 1.0525369e-16          0.1 0.0090001833 0.0058594428  0.029899695 
number of iterations: 45429 
   33800    113.96565      151          149            2 1.4850519e-13 1.0517715e-16          0.1 0.0090001863 0.0059586961   0.02989969 
number of iterations: 52225 
   33900    114.51466      151          149            2 1.5101024e-13 1.0510088e-16          0.1 0.0090001901 0.0060596238  0.029899684 
number of iterations: 46976 
   34000    115.40581      154          152            2 1.5355755e-13 1.0502496e-16          0.1 0.0090001933 0.0061622539  0.029899678 
number of iterations: 44946 
   34100    115.91472      157          155            2 1.5614783e-13 1.0494933e-16          0.1 0.0090001963 0.0062666152  0.029899673 
number of iterations: 44941 
   34200    116.40724      159          157            2 1.5878181e-13  1.04874e-16          0.1 0.0090001994  0.006372737  0.029899668 
number of iterations: 53626 
   34300     116.9857      159          157            2 1.6146021e-13 1.0479888e-16          0.1 0.0090002027 0.0064806488  0.029899663 
number of iterations: 46671 
   34400    117.47704      160          158            2 1.641838e-13 1.0472406e-16          0.1 0.0090002061 0.0065903809  0.029899657 
number of iterations: 46851 
   34500    118.01658      162          160            2 1.6695333e-13 1.0464954e-16          0.1 0.0090002096 0.0067019641  0.029899651 
number of iterations: 46233 
   34600    118.54519      166          164            2 1.6976957e-13 1.0457532e-16          0.1 0.0090002129 0.0068154295  0.029899646 
number of iterations: 51863 
   34700    119.16319      169          167            2 1.7263332e-13 1.0450151e-16          0.1 0.0090002167 0.0069308089  0.029899639 
number of iterations: 46897 
   34800    119.68474      171          169            2 1.7554538e-13  1.04428e-16          0.1 0.0090002203 0.0070481345  0.029899633 
number of iterations: 46182 
   34900    120.26465      174          172            2 1.7850656e-13 1.0435486e-16          0.1 0.0090002242 0.0071674393  0.029899627 
number of iterations: 50458 
   35000    121.28585      177          175            2 1.8151769e-13  1.04282e-16          0.1  0.009000228 0.0072887565   0.02989962 
Loop time of 121.286 on 6 procs for 35000 steps with 177 atoms

Performance: 249328254.352 tau/day, 288.574 timesteps/s
94.5% CPU use with 6 MPI tasks x no OpenMP threads

MPI task timing breakdown:
Section |  min time  |  avg time  |  max time  |%varavg| %total
---------------------------------------------------------------
Pair    | 0.023295   | 0.03127    | 0.053848   |   6.6 |  0.03
Neigh   | 13.966     | 14.837     | 16.417     |  28.2 | 12.23
Comm    | 14.366     | 14.393     | 14.449     |   1.0 | 11.87
Output  | 10.226     | 10.228     | 10.228     |   0.0 |  8.43
Modify  | 79.897     | 81.274     | 82.021     |  10.5 | 67.01
Other   |            | 0.5222     |            |       |  0.43

Nlocal:    29.5 ave 110 max 0 min
Histogram: 4 0 0 0 0 0 1 0 0 1
Nghost:    12.8333 ave 39 max 0 min
Histogram: 4 0 0 0 0 0 0 0 0 2
Neighs:    108 ave 409 max 0 min
Histogram: 4 0 0 0 0 1 0 0 0 1

Total # of neighbors = 648
Ave neighs/atom = 3.66102
Neighbor list builds = 398
Dangerous builds = 0
Total wall time: 0:02:02
