LAMMPS (20 Nov 2019)
Reading data file ...
  orthogonal box = (0 0 0) to (0.0001 0.0001 5e-05)
  2 by 2 by 2 MPI processor grid
  reading atoms ...
  50 atoms
  4 nutrients
Lattice spacing in x,y,z = 100 100 100
50 atoms in group CYANO
0 atoms in group ECW
Model is defined as a closed system. 
Neighbor list info ...
  update every 1 steps, delay 0 steps, check yes
  max neighbors/atom: 5000, page size: 100000
  master list distance cutoff = 2.44e-06
  ghost atom cutoff = 2.44e-06
  binsize = 1.22e-06, bins = 82 82 41
  1 neighbor lists, perpetual/occasional/extra = 1 0 0
  (1) pair gran/hooke/history, perpetual
      attributes: half, newton off, size, history
      pair build: half/size/bin/newtoff
      stencil: half/bin/3d/newtoff
      bin: standard
Setting up Verlet run ...
  Unit style    : lj
  Current step  : 0
  Time step     : 10
Per MPI rank memory allocation (min/avg/max) = 6.964 | 11.46 | 12.34 Mbytes
Step CPU Atoms c_myNtypes[1] c_myNtypes[2] c_myMass[1] c_myMass[2] c_myCon[1] c_myCon[2] c_myCon[3] c_myCon[4] 
       0            0       50           50            0 4.8400471e-14            0          0.1        0.009     3.42e-20       0.0299 
number of iterations: 323413 
     100    4.9808807       50           50            0 4.9265304e-14            0          0.1 0.0090033342 0.0057528667  0.029894449 
number of iterations: 24528 
     200    5.6092686       50           50            0 5.0145591e-14            0          0.1 0.0090033938  0.011428395   0.02989435 
number of iterations: 24622 
     300    6.2256124       51           51            0 5.1041606e-14            0          0.1 0.0090034544  0.017204489  0.029894249 
number of iterations: 24716 
     400    6.8337519       54           54            0 5.1953632e-14            0          0.1 0.0090035162    0.0230834  0.029894146 
number of iterations: 24811 
     500    7.4443503       55           55            0 5.2881954e-14            0          0.1  0.009003579  0.029067112  0.029894041 
number of iterations: 24905 
     600    8.0310572       55           55            0 5.3826864e-14            0          0.1 0.0090036429  0.035157568  0.029893935 
number of iterations: 26644 
     700    8.6819997       56           56            0 5.4788657e-14            0          0.1 0.0090037288  0.041356717  0.029893792 
number of iterations: 25126 
     800    9.2776371       57           57            0 5.5767636e-14            0          0.1 0.0090037954  0.047666524  0.029893681 
number of iterations: 25247 
     900    9.9175028       61           61            0 5.6764108e-14            0          0.1 0.0090038632  0.054088986  0.029893568 
number of iterations: 25315 
    1000    10.557201       61           61            0 5.7778385e-14            0          0.1 0.0090039322  0.060626127  0.029893453 
number of iterations: 25410 
    1100    11.202667       65           65            0 5.8810785e-14            0          0.1 0.0090040025  0.067280004  0.029893336 
number of iterations: 25504 
    1200    11.839552       65           65            0 5.9861633e-14            0          0.1  0.009004074  0.074052712  0.029893217 
number of iterations: 25599 
    1300    12.468888       65           65            0 6.0931257e-14            0          0.1 0.0090041468   0.08094638  0.029893096 
number of iterations: 25693 
    1400    13.106287       66           66            0 6.2019994e-14            0          0.1 0.0090042209  0.087963174  0.029892972 
number of iterations: 25787 
    1500    13.741797       66           66            0 6.3128184e-14            0          0.1 0.0090042964  0.095105298  0.029892847 
number of iterations: 25882 
    1600    14.528594       66           66            0 6.4256176e-14            0          0.1 0.0090043731   0.10237499  0.029892719 
number of iterations: 25976 
    1700    15.187951       66           66            0 6.5404323e-14            0          0.1 0.0090044513   0.10977455  0.029892589 
number of iterations: 26071 
    1800    15.880143       68           68            0 6.6572985e-14            0          0.1 0.0090045308   0.11730628  0.029892456 
number of iterations: 26165 
    1900    16.522044       70           70            0 6.776253e-14            0          0.1 0.0090046118   0.12497255  0.029892322 
number of iterations: 26260 
    2000    17.164812       70           70            0 6.8973329e-14            0          0.1 0.0090046942   0.13277577  0.029892184 
number of iterations: 26354 
    2100    17.792336       71           71            0 7.0205764e-14            0          0.1 0.0090047781   0.14071839  0.029892045 
number of iterations: 26449 
    2200    18.427505       73           73            0 7.1460219e-14            0          0.1 0.0090048634    0.1488029  0.029891902 
number of iterations: 26543 
    2300    19.065448       73           73            0 7.273709e-14            0          0.1 0.0090049504   0.15703184  0.029891758 
number of iterations: 26638 
    2400    19.711213       73           73            0 7.4036776e-14            0          0.1 0.0090050388   0.16540778   0.02989161 
number of iterations: 26732 
    2500    20.424584       76           76            0 7.5359685e-14            0          0.1 0.0090051289   0.17393336  0.029891461 
number of iterations: 26827 
    2600    21.127517       76           76            0 7.6706233e-14            0          0.1 0.0090052205   0.18261125  0.029891308 
number of iterations: 26921 
    2700    21.866206       77           77            0 7.807684e-14            0          0.1 0.0090053138   0.19144417  0.029891153 
number of iterations: 27016 
    2800     22.55284       77           77            0 7.9471939e-14            0          0.1 0.0090054087    0.2004349  0.029890995 
number of iterations: 27111 
    2900     23.22024       78           78            0 8.0891965e-14            0          0.1 0.0090055054   0.20958626  0.029890834 
number of iterations: 27205 
    3000    23.860378       78           78            0 8.2337364e-14            0          0.1 0.0090056038   0.21890113   0.02989067 
number of iterations: 27300 
    3100    24.558166       79           79            0 8.380859e-14            0          0.1 0.0090057039   0.22838242  0.029890503 
number of iterations: 27842 
    3200    25.240192       80           80            0 8.5306104e-14            0          0.1 0.0090058127    0.2380331  0.029890322 
number of iterations: 27498 
    3300     25.90816       82           82            0 8.6830376e-14            0          0.1 0.0090059166    0.2478562  0.029890149 
number of iterations: 27597 
    3400    26.569871       87           87            0 8.8381885e-14            0          0.1 0.0090060223   0.25785481  0.029889973 
number of iterations: 27687 
    3500    27.207231       88           88            0 8.9961116e-14            0          0.1 0.0090061299   0.26803206  0.029889794 
number of iterations: 27781 
    3600    27.880561       90           90            0 9.1568565e-14            0          0.1 0.0090062395   0.27839115  0.029889611 
number of iterations: 27876 
    3700    28.537548       91           91            0 9.3204736e-14            0          0.1  0.009006351   0.28893532  0.029889426 
number of iterations: 27971 
    3800    29.203461       92           92            0 9.4870143e-14            0          0.1 0.0090064645   0.29966788  0.029889237 
number of iterations: 28066 
    3900    29.881098       95           95            0 9.6565307e-14            0          0.1   0.00900658   0.31059221  0.029889044 
number of iterations: 28158 
    4000    30.592937       97           97            0 9.8290762e-14            0          0.1 0.0090066975   0.32171172  0.029888849 
number of iterations: 28261 
    4100    31.274289       99           99            0 1.0004705e-13            0          0.1 0.0090068172    0.3330299  0.029888649 
number of iterations: 28954 
    4200    32.004397      104          104            0 1.0183471e-13            0          0.1  0.009006951    0.3445503  0.029888427 
number of iterations: 28456 
    4300    32.697388      104          104            0 1.0365432e-13            0          0.1 0.0090070752   0.35627653   0.02988822 
number of iterations: 28551 
    4400    33.421028      104          104            0 1.0550644e-13            0          0.1 0.0090072016   0.36821228  0.029888009 
number of iterations: 28089 
    4500    34.222579      105          105            0 1.0739166e-13            0          0.1 0.0090073204   0.38036131  0.029887811 
number of iterations: 28731 
    4600    34.977088      106          106            0 1.0931056e-13            0          0.1 0.0090074512   0.39272741  0.029887594 
number of iterations: 28826 
    4700    35.732067      106          106            0 1.1126375e-13            0          0.1 0.0090075843   0.40531446  0.029887372 
number of iterations: 28921 
    4800    36.409403      106          106            0 1.1325184e-13            0          0.1 0.0090077199   0.41812641  0.029887146 
number of iterations: 29014 
    4900    37.091403      107          107            0 1.1527545e-13            0          0.1 0.0090078578   0.43116728  0.029886917 
number of iterations: 29940 
    5000    37.828448      111          111            0 1.1733523e-13            0          0.1 0.0090080221   0.44444118  0.029886643 
number of iterations: 29219 
    5100    38.526228      114          114            0 1.194318e-13            0          0.1 0.0090081655   0.45795223  0.029886404 
number of iterations: 28948 
    5200    39.224462      115          115            0 1.2156584e-13            0          0.1 0.0090083038   0.47170472  0.029886174 
number of iterations: 28375 
    5300    39.907683      119          119            0 1.2373801e-13            0          0.1 0.0090084258   0.48570291  0.029885971 
number of iterations: 29716 
    5400    40.643467      125          125            0 1.2594899e-13            0          0.1 0.0090085816    0.4999512  0.029885711 
number of iterations: 29582 
    5500    41.363002      126          126            0 1.2819948e-13            0          0.1 0.0090087349   0.51445407  0.029885456 
number of iterations: 29681 
    5600     42.05556      129          129            0 1.3049018e-13            0          0.1  0.009008891   0.52921607  0.029885196 
number of iterations: 29779 
    5700    42.735699      133          133            0 1.3282181e-13            0          0.1 0.0090090499   0.54424179  0.029884932 
number of iterations: 29870 
    5800    43.498014      136          136            0 1.351951e-13            0          0.1 0.0090092116   0.55953597  0.029884662 
number of iterations: 29962 
    5900    44.241885      139          139            0 1.376108e-13            0          0.1 0.0090093762   0.57510342  0.029884388 
number of iterations: 30057 
    6000    44.949047      142          142            0 1.4006966e-13            0          0.1 0.0090095437   0.59094903  0.029884109 
number of iterations: 30156 
    6100    45.701239      145          145            0 1.4257246e-13            0          0.1 0.0090097143   0.60707776  0.029883825 
number of iterations: 30247 
    6200    46.412138      147          147            0 1.4511998e-13            0          0.1 0.0090098878   0.62349467  0.029883536 
number of iterations: 30342 
    6300    47.164606      147          147            0 1.4771302e-13            0          0.1 0.0090100645   0.64020492  0.029883242 
number of iterations: 30437 
    6400    47.876759      148          148            0 1.5035239e-13            0          0.1 0.0090102444   0.65721374  0.029882943 
number of iterations: 30532 
    6500     48.59143      151          151            0 1.5303893e-13            0          0.1 0.0090104274   0.67452647  0.029882638 
number of iterations: 30634 
    6600    49.320079      153          153            0 1.5577346e-13            0          0.1 0.0090106137   0.69214852  0.029882328 
number of iterations: 30723 
    6700    50.039366      156          156            0 1.5855686e-13            0          0.1 0.0090108034   0.71008543  0.029882012 
number of iterations: 30818 
    6800    50.824615      160          160            0 1.6138999e-13            0          0.1 0.0090109964   0.72834284   0.02988169 
number of iterations: 30913 
    6900    51.555891      162          162            0 1.6427375e-13            0          0.1 0.0090111929   0.74692647  0.029881363 
number of iterations: 31008 
    7000    52.277112      166          166            0 1.6720903e-13            0          0.1 0.0090113929   0.76584215   0.02988103 
number of iterations: 31429 
    7100     53.01483      168          168            0 1.7019676e-13            0          0.1 0.0090116069   0.78509581  0.029880674 
number of iterations: 30127 
    7200    53.727693      170          170            0 1.7323787e-13            0          0.1 0.0090117805   0.80469347  0.029880385 
number of iterations: 31282 
    7300    54.479152      173          173            0 1.7633333e-13            0          0.1  0.009011991   0.82464131  0.029880034 
number of iterations: 32251 
    7400    55.247765      176          176            0 1.7948409e-13            0          0.1 0.0090122392   0.84494552  0.029879621 
number of iterations: 31489 
    7500    56.108192      179          179            0 1.8269115e-13            0          0.1 0.0090124579   0.86561252  0.029879257 
number of iterations: 31585 
    7600    56.883926      182          182            0 1.8595552e-13            0          0.1 0.0090126805   0.88664879  0.029878886 
number of iterations: 31877 
    7700    57.624896      184          184            0 1.8927822e-13            0          0.1 0.0090129137   0.90806091  0.029878498 
number of iterations: 31778 
    7800     58.40997      186          186            0 1.9266028e-13            0          0.1 0.0090131445   0.92985562  0.029878114 
number of iterations: 31423 
    7900    59.147586      190          190            0 1.9610278e-13            0          0.1 0.0090133624   0.95203974  0.029877751 
number of iterations: 31623 
    8000    59.972892      192          192            0 1.9960679e-13            0          0.1 0.0090135893   0.97462026  0.029877373 
number of iterations: 31688 
    8100       60.946      195          195            0 2.0317341e-13            0          0.1 0.0090138191   0.99760424   0.02987699 
number of iterations: 32137 
    8200    62.082556      200          200            0 2.0680375e-13            0          0.1  0.009014066    1.0209989  0.029876579 
number of iterations: 31895 
    8300    63.016435      204          204            0 2.1049897e-13            0          0.1 0.0090143048    1.0448116  0.029876182 
number of iterations: 32323 
    8400    63.805855      208          208            0 2.1426021e-13            0          0.1 0.0090145604    1.0690498  0.029875756 
number of iterations: 32836 
    8500     64.64348      211          211            0 2.1808866e-13            0          0.1 0.0090148419     1.093721  0.029875287 
number of iterations: 32070 
    8600    65.399992      215          215            0 2.2198551e-13            0          0.1 0.0090150854    1.1188331  0.029874882 
number of iterations: 32609 
    8700      66.1827      216          216            0 2.2595199e-13            0          0.1  0.009015355    1.1443938  0.029874433 
number of iterations: 32191 
    8800    66.940209      223          223            0 2.2998935e-13            0          0.1 0.0090156039    1.1704113  0.029874019 
number of iterations: 33260 
    8900    67.718882      227          227            0 2.3409885e-13            0          0.1 0.0090159086    1.1968936  0.029873511 
number of iterations: 32894 
    9000    68.500391      232          232            0 2.3828178e-13            0          0.1 0.0090161929    1.2238492  0.029873038 
number of iterations: 33405 
    9100    69.272694      241          241            0 2.4253944e-13            0          0.1 0.0090165058    1.2512864  0.029872517 
number of iterations: 33093 
    9200     70.04949      245          245            0 2.4687319e-13            0          0.1 0.0090168007    1.2792138  0.029872026 
number of iterations: 33188 
    9300    70.863208      248          248            0 2.5128437e-13            0          0.1 0.0090171009    1.3076403  0.029871526 
number of iterations: 33282 
    9400    71.637569      252          252            0 2.5577437e-13            0          0.1 0.0090174065    1.3365746  0.029871017 
number of iterations: 33379 
    9500    72.404635      258          258            0 2.603446e-13            0          0.1 0.0090177175     1.366026  0.029870499 
number of iterations: 33475 
    9600    73.200489      259          259            0 2.6499648e-13            0          0.1 0.0090180341    1.3960035  0.029869972 
number of iterations: 33570 
    9700    74.044844      264          264            0 2.6973149e-13            0          0.1 0.0090183563    1.4265167  0.029869436 
number of iterations: 33663 
    9800    74.828902      269          269            0 2.7455111e-13            0          0.1 0.0090186843    1.4575751  0.029868889 
number of iterations: 33760 
    9900      75.6465      279          279            0 2.7945684e-13            0          0.1 0.0090190182    1.4891885  0.029868333 
number of iterations: 33952 
   10000    76.461448      285          285            0 2.8445023e-13            0          0.1 0.0090193634    1.5213667  0.029867759 
Loop time of 76.4615 on 8 procs for 10000 steps with 285 atoms

Performance: 112998041.609 tau/day, 130.785 timesteps/s
88.2% CPU use with 8 MPI tasks x no OpenMP threads

MPI task timing breakdown:
Section |  min time  |  avg time  |  max time  |%varavg| %total
---------------------------------------------------------------
Pair    | 0.0093452  | 0.011592   | 0.01429    |   1.4 |  0.02
Neigh   | 0.0070526  | 0.008307   | 0.0096309  |   1.1 |  0.01
Comm    | 0.041646   | 0.048497   | 0.055324   |   2.0 |  0.06
Output  | 13.464     | 13.465     | 13.467     |   0.0 | 17.61
Modify  | 62.857     | 62.859     | 62.862     |   0.0 | 82.21
Other   |            | 0.0697     |            |       |  0.09

Nlocal:    35.625 ave 65 max 15 min
Histogram: 1 0 2 3 0 0 0 1 0 1
Nghost:    7.25 ave 18 max 1 min
Histogram: 3 0 0 1 2 1 0 0 0 1
Neighs:    41.375 ave 80 max 15 min
Histogram: 1 0 3 2 0 0 0 0 1 1

Total # of neighbors = 331
Ave neighs/atom = 1.1614
Neighbor list builds = 112
Dangerous builds = 0
Total wall time: 0:01:16
