ITEM: TIMESTEP
0
ITEM: NUMBER OF ATOMS
50
ITEM: BOX BOUNDS ff ff ff
0.0000000000000000e+00 1.0000000000000000e-04
0.0000000000000000e+00 1.0000000000000000e-04
0.0000000000000000e+00 5.0000000000000002e-05
ITEM: ATOMS id type diameter x y z 
22 1 1.62e-06 3.98e-05 4.03e-05 4.3e-06 
29 1 1.47e-06 3.78e-05 1.81e-05 6.29e-06 
42 1 1.74e-06 7.8e-06 3.96e-05 8.03e-06 
5 1 1.93e-06 1.24e-05 7.4e-06 8.91e-06 
50 1 1.42e-06 3.43e-05 2.05e-05 1.31e-05 
33 1 1.56e-06 4.23e-05 4.47e-05 1.4e-05 
34 1 1.71e-06 3.5e-05 1.85e-05 1.45e-05 
46 1 1.74e-06 1.25e-05 3.87e-05 1.42e-05 
3 1 1.88e-06 4.49e-05 4.47e-05 1.77e-05 
39 1 1.6e-06 4.27e-06 4.45e-06 1.94e-05 
18 1 1.71e-06 4.33e-05 2.09e-05 2.08e-05 
7 1 1.85e-06 3.67e-05 3.01e-05 2.43e-05 
40 1 1.85e-06 4.61e-05 2.91e-05 2.88e-05 
27 1 1.48e-06 1.16e-05 2.94e-05 3.61e-05 
26 1 1.52e-06 4.01e-05 2.95e-05 3.93e-05 
21 1 1.65e-06 4.13e-05 1.25e-05 4.34e-05 
44 1 1.44e-06 2.51e-05 7.02e-05 1.57e-06 
10 1 1.45e-06 1.09e-05 9.77e-05 2.74e-06 
24 1 1.89e-06 1.01e-05 9.07e-05 4.53e-06 
13 1 1.63e-06 4.52e-05 6.65e-05 7.63e-06 
19 1 1.85e-06 2.41e-05 7.8e-05 8.94e-06 
14 1 1.54e-06 2.9e-05 7.54e-05 2.04e-05 
20 1 1.75e-06 3.22e-05 5.28e-05 2.22e-05 
12 1 1.93e-06 2.35e-05 9.23e-05 2.23e-05 
35 1 1.51e-06 4.6e-05 9.53e-05 2.35e-05 
37 1 1.92e-06 2.47e-05 9.2e-05 4.33e-05 
11 1 1.71e-06 4.85e-05 9.27e-05 4.47e-05 
23 1 1.62e-06 9.25e-05 2.35e-05 2.32e-06 
2 1 1.57e-06 7.16e-05 5.02e-06 6.05e-06 
36 1 1.64e-06 6.09e-05 4.52e-06 1.02e-05 
4 1 1.45e-06 7.91e-05 4.09e-05 2.06e-05 
49 1 1.85e-06 9.54e-05 1.73e-05 2.11e-05 
38 1 1.9e-06 7.91e-05 7.74e-06 3.03e-05 
30 1 1.54e-06 8.39e-05 1.92e-05 3.38e-05 
48 1 1.69e-06 7.35e-05 4.32e-05 3.4e-05 
6 1 1.47e-06 6.78e-05 3.14e-05 4.05e-05 
17 1 1.88e-06 7.24e-05 5.16e-05 1.09e-05 
1 1 1.61e-06 9.39e-05 5.21e-05 1.25e-05 
28 1 1.67e-06 5.86e-05 8.84e-05 1.44e-05 
43 1 1.93e-06 8.67e-05 8.69e-05 1.76e-05 
41 1 1.87e-06 6.07e-05 5.34e-05 2.3e-05 
32 1 1.94e-06 6.4e-05 5.83e-05 3.28e-05 
45 1 1.77e-06 6.63e-05 5.87e-05 3.49e-05 
15 1 1.46e-06 6.58e-05 8.85e-05 3.5e-05 
31 1 1.46e-06 7.25e-05 7.99e-05 3.61e-05 
9 1 1.78e-06 8.13e-05 6.78e-05 4.13e-05 
47 1 1.88e-06 6.57e-05 7.89e-05 4.4e-05 
25 1 1.78e-06 9.46e-05 9.45e-05 4.37e-05 
16 1 1.77e-06 5.74e-05 9.71e-05 4.7e-05 
8 1 1.82e-06 8.2e-05 9.23e-05 4.75e-05 
ITEM: TIMESTEP
100
ITEM: NUMBER OF ATOMS
50
ITEM: BOX BOUNDS ff ff ff
0.0000000000000000e+00 1.0000000000000000e-04
0.0000000000000000e+00 1.0000000000000000e-04
0.0000000000000000e+00 5.0000000000000002e-05
ITEM: ATOMS id type diameter x y z 
22 1 1.62959e-06 3.98e-05 4.03e-05 4.3e-06 
29 1 1.4787e-06 3.78e-05 1.81e-05 6.29e-06 
42 1 1.7503e-06 7.8e-06 3.96e-05 8.03e-06 
5 1 1.94143e-06 1.24e-05 7.4e-06 8.91e-06 
50 1 1.42841e-06 3.43e-05 2.05e-05 1.31e-05 
33 1 1.56924e-06 4.23e-05 4.47e-05 1.4e-05 
34 1 1.72012e-06 3.5e-05 1.85e-05 1.45e-05 
46 1 1.7503e-06 1.25e-05 3.87e-05 1.42e-05 
3 1 1.89113e-06 4.49e-05 4.47e-05 1.77e-05 
39 1 1.60947e-06 4.27e-06 4.45e-06 1.94e-05 
18 1 1.72012e-06 4.33e-05 2.09e-05 2.08e-05 
7 1 1.86095e-06 3.67e-05 3.01e-05 2.43e-05 
40 1 1.86095e-06 4.61e-05 2.91e-05 2.88e-05 
27 1 1.48876e-06 1.16e-05 2.94e-05 3.61e-05 
26 1 1.529e-06 4.01e-05 2.95e-05 3.93e-05 
21 1 1.65977e-06 4.13e-05 1.25e-05 4.34e-05 
44 1 1.44853e-06 2.51e-05 7.02e-05 1.57e-06 
10 1 1.45859e-06 1.09e-05 9.77e-05 2.74e-06 
24 1 1.90119e-06 1.01e-05 9.07e-05 4.53e-06 
13 1 1.63965e-06 4.52e-05 6.65e-05 7.63e-06 
19 1 1.86095e-06 2.41e-05 7.8e-05 8.94e-06 
14 1 1.54912e-06 2.9e-05 7.54e-05 2.04e-05 
20 1 1.76036e-06 3.22e-05 5.28e-05 2.22e-05 
12 1 1.94143e-06 2.35e-05 9.23e-05 2.23e-05 
35 1 1.51894e-06 4.6e-05 9.53e-05 2.35e-05 
37 1 1.93137e-06 2.47e-05 9.2e-05 4.33e-05 
11 1 1.72012e-06 4.85e-05 9.27e-05 4.47e-05 
23 1 1.62959e-06 9.25e-05 2.35e-05 2.32e-06 
2 1 1.5793e-06 7.16e-05 5.02e-06 6.05e-06 
36 1 1.64971e-06 6.09e-05 4.52e-06 1.02e-05 
4 1 1.45859e-06 7.91e-05 4.09e-05 2.06e-05 
49 1 1.86095e-06 9.54e-05 1.73e-05 2.11e-05 
38 1 1.91125e-06 7.91e-05 7.74e-06 3.03e-05 
30 1 1.54912e-06 8.39e-05 1.92e-05 3.38e-05 
48 1 1.70001e-06 7.35e-05 4.32e-05 3.4e-05 
6 1 1.4787e-06 6.78e-05 3.14e-05 4.05e-05 
17 1 1.89113e-06 7.24e-05 5.16e-05 1.09e-05 
1 1 1.61953e-06 9.39e-05 5.21e-05 1.25e-05 
28 1 1.67989e-06 5.86e-05 8.84e-05 1.44e-05 
43 1 1.94143e-06 8.67e-05 8.69e-05 1.76e-05 
41 1 1.88107e-06 6.07e-05 5.34e-05 2.3e-05 
32 1 1.95149e-06 6.4e-05 5.83e-05 3.28e-05 
45 1 1.78048e-06 6.63e-05 5.87e-05 3.49e-05 
15 1 1.46864e-06 6.58e-05 8.85e-05 3.5e-05 
31 1 1.46864e-06 7.25e-05 7.99e-05 3.61e-05 
9 1 1.79054e-06 8.13e-05 6.78e-05 4.13e-05 
47 1 1.89113e-06 6.57e-05 7.89e-05 4.4e-05 
25 1 1.79054e-06 9.46e-05 9.45e-05 4.37e-05 
16 1 1.78048e-06 5.74e-05 9.71e-05 4.7e-05 
8 1 1.83078e-06 8.2e-05 9.23e-05 4.75e-05 
ITEM: TIMESTEP
200
ITEM: NUMBER OF ATOMS
50
ITEM: BOX BOUNDS ff ff ff
0.0000000000000000e+00 1.0000000000000000e-04
0.0000000000000000e+00 1.0000000000000000e-04
0.0000000000000000e+00 5.0000000000000002e-05
ITEM: ATOMS id type diameter x y z 
22 1 1.63924e-06 3.98e-05 4.03e-05 4.3e-06 
29 1 1.48746e-06 3.78e-05 1.81e-05 6.29e-06 
42 1 1.76067e-06 7.8e-06 3.96e-05 8.03e-06 
5 1 1.95292e-06 1.24e-05 7.4e-06 8.91e-06 
50 1 1.43687e-06 3.43e-05 2.05e-05 1.31e-05 
33 1 1.57853e-06 4.23e-05 4.47e-05 1.4e-05 
34 1 1.73031e-06 3.5e-05 1.85e-05 1.45e-05 
46 1 1.76067e-06 1.25e-05 3.87e-05 1.42e-05 
3 1 1.90233e-06 4.49e-05 4.47e-05 1.77e-05 
39 1 1.619e-06 4.27e-06 4.45e-06 1.94e-05 
18 1 1.73031e-06 4.33e-05 2.09e-05 2.08e-05 
7 1 1.87197e-06 3.67e-05 3.01e-05 2.43e-05 
40 1 1.87197e-06 4.61e-05 2.91e-05 2.88e-05 
27 1 1.49758e-06 1.16e-05 2.94e-05 3.61e-05 
26 1 1.53805e-06 4.01e-05 2.95e-05 3.93e-05 
21 1 1.6696e-06 4.13e-05 1.25e-05 4.34e-05 
44 1 1.4571e-06 2.51e-05 7.02e-05 1.57e-06 
10 1 1.46722e-06 1.09e-05 9.77e-05 2.74e-06 
24 1 1.91245e-06 1.01e-05 9.07e-05 4.53e-06 
13 1 1.64936e-06 4.52e-05 6.65e-05 7.63e-06 
19 1 1.87197e-06 2.41e-05 7.8e-05 8.94e-06 
14 1 1.55829e-06 2.9e-05 7.54e-05 2.04e-05 
20 1 1.77078e-06 3.22e-05 5.28e-05 2.22e-05 
12 1 1.95292e-06 2.35e-05 9.23e-05 2.23e-05 
35 1 1.52793e-06 4.6e-05 9.53e-05 2.35e-05 
37 1 1.9428e-06 2.47e-05 9.2e-05 4.33e-05 
11 1 1.73031e-06 4.85e-05 9.27e-05 4.47e-05 
23 1 1.63924e-06 9.25e-05 2.35e-05 2.32e-06 
2 1 1.58865e-06 7.16e-05 5.02e-06 6.05e-06 
36 1 1.65948e-06 6.09e-05 4.52e-06 1.02e-05 
4 1 1.46722e-06 7.91e-05 4.09e-05 2.06e-05 
49 1 1.87197e-06 9.54e-05 1.73e-05 2.11e-05 
38 1 1.92257e-06 7.91e-05 7.74e-06 3.03e-05 
30 1 1.55829e-06 8.39e-05 1.92e-05 3.38e-05 
48 1 1.71007e-06 7.35e-05 4.32e-05 3.4e-05 
6 1 1.48746e-06 6.78e-05 3.14e-05 4.05e-05 
17 1 1.90233e-06 7.24e-05 5.16e-05 1.09e-05 
1 1 1.62912e-06 9.39e-05 5.21e-05 1.25e-05 
28 1 1.68983e-06 5.86e-05 8.84e-05 1.44e-05 
43 1 1.95292e-06 8.67e-05 8.69e-05 1.76e-05 
41 1 1.89221e-06 6.07e-05 5.34e-05 2.3e-05 
32 1 1.96304e-06 6.4e-05 5.83e-05 3.28e-05 
45 1 1.79102e-06 6.63e-05 5.87e-05 3.49e-05 
15 1 1.47734e-06 6.58e-05 8.85e-05 3.5e-05 
31 1 1.47734e-06 7.25e-05 7.99e-05 3.61e-05 
9 1 1.80114e-06 8.13e-05 6.78e-05 4.13e-05 
47 1 1.90233e-06 6.57e-05 7.89e-05 4.4e-05 
25 1 1.80114e-06 9.46e-05 9.45e-05 4.37e-05 
16 1 1.79102e-06 5.74e-05 9.71e-05 4.7e-05 
8 1 1.84162e-06 8.2e-05 9.23e-05 4.75e-05 
ITEM: TIMESTEP
300
ITEM: NUMBER OF ATOMS
51
ITEM: BOX BOUNDS ff ff ff
0.0000000000000000e+00 1.0000000000000000e-04
0.0000000000000000e+00 1.0000000000000000e-04
0.0000000000000000e+00 5.0000000000000002e-05
ITEM: ATOMS id type diameter x y z 
22 1 1.64895e-06 3.98e-05 4.03e-05 4.3e-06 
29 1 1.49627e-06 3.78e-05 1.81e-05 6.29e-06 
42 1 1.77109e-06 7.8e-06 3.96e-05 8.03e-06 
5 1 1.96449e-06 1.24e-05 7.4e-06 8.91e-06 
50 1 1.44537e-06 3.43e-05 2.05e-05 1.31e-05 
33 1 1.58787e-06 4.23e-05 4.47e-05 1.4e-05 
34 1 1.74055e-06 3.5e-05 1.85e-05 1.45e-05 
46 1 1.77109e-06 1.25e-05 3.87e-05 1.42e-05 
3 1 1.91359e-06 4.49e-05 4.47e-05 1.77e-05 
39 1 1.62859e-06 4.27e-06 4.45e-06 1.94e-05 
18 1 1.74055e-06 4.33e-05 2.09e-05 2.08e-05 
7 1 1.88306e-06 3.67e-05 3.01e-05 2.43e-05 
40 1 1.88306e-06 4.61e-05 2.91e-05 2.88e-05 
27 1 1.50645e-06 1.16e-05 2.94e-05 3.61e-05 
26 1 1.54716e-06 4.01e-05 2.95e-05 3.93e-05 
21 1 1.67948e-06 4.13e-05 1.25e-05 4.34e-05 
44 1 1.46573e-06 2.51e-05 7.02e-05 1.57e-06 
10 1 1.47591e-06 1.09e-05 9.77e-05 2.74e-06 
24 1 1.92377e-06 1.01e-05 9.07e-05 4.53e-06 
13 1 1.65913e-06 4.52e-05 6.65e-05 7.63e-06 
19 1 1.88306e-06 2.41e-05 7.8e-05 8.94e-06 
14 1 1.56752e-06 2.9e-05 7.54e-05 2.04e-05 
20 1 1.78127e-06 3.22e-05 5.28e-05 2.22e-05 
12 1 1.96449e-06 2.35e-05 9.23e-05 2.23e-05 
35 1 1.53698e-06 4.6e-05 9.53e-05 2.35e-05 
37 1 1.95431e-06 2.47e-05 9.2e-05 4.33e-05 
11 1 1.74055e-06 4.85e-05 9.27e-05 4.47e-05 
23 1 1.64895e-06 9.25e-05 2.35e-05 2.32e-06 
2 1 1.59805e-06 7.16e-05 5.02e-06 6.05e-06 
36 1 1.6693e-06 6.09e-05 4.52e-06 1.02e-05 
4 1 1.47591e-06 7.91e-05 4.09e-05 2.06e-05 
49 1 1.88306e-06 9.54e-05 1.73e-05 2.11e-05 
38 1 1.93395e-06 7.91e-05 7.74e-06 3.03e-05 
30 1 1.56752e-06 8.39e-05 1.92e-05 3.38e-05 
48 1 1.7202e-06 7.35e-05 4.32e-05 3.4e-05 
6 1 1.49627e-06 6.78e-05 3.14e-05 4.05e-05 
17 1 1.91359e-06 7.24e-05 5.16e-05 1.09e-05 
1 1 1.63877e-06 9.39e-05 5.21e-05 1.25e-05 
28 1 1.69984e-06 5.86e-05 8.84e-05 1.44e-05 
43 1 1.96449e-06 8.67e-05 8.69e-05 1.76e-05 
41 1 1.90341e-06 6.07e-05 5.34e-05 2.3e-05 
32 1 1.4683e-06 6.39863e-05 5.83522e-05 3.35315e-05 
45 1 1.80163e-06 6.63e-05 5.87e-05 3.49e-05 
15 1 1.48609e-06 6.58e-05 8.85e-05 3.5e-05 
31 1 1.48609e-06 7.25e-05 7.99e-05 3.61e-05 
9 1 1.81181e-06 8.13e-05 6.78e-05 4.13e-05 
47 1 1.91359e-06 6.57e-05 7.89e-05 4.4e-05 
25 1 1.81181e-06 9.46e-05 9.45e-05 4.37e-05 
16 1 1.80163e-06 5.74e-05 9.71e-05 4.7e-05 
8 1 1.85252e-06 8.2e-05 9.23e-05 4.75e-05 
51 1 1.65515e-06 6.40154e-05 5.82412e-05 3.19754e-05 
ITEM: TIMESTEP
400
ITEM: NUMBER OF ATOMS
54
ITEM: BOX BOUNDS ff ff ff
0.0000000000000000e+00 1.0000000000000000e-04
0.0000000000000000e+00 1.0000000000000000e-04
0.0000000000000000e+00 5.0000000000000002e-05
ITEM: ATOMS id type diameter x y z 
22 1 1.65871e-06 3.98e-05 4.03e-05 4.3e-06 
29 1 1.50513e-06 3.78e-05 1.81e-05 6.29e-06 
42 1 1.78158e-06 7.8e-06 3.96e-05 8.03e-06 
5 1 1.46938e-06 1.23863e-05 7.45224e-06 9.64203e-06 
50 1 1.45393e-06 3.43e-05 2.05e-05 1.31e-05 
33 1 1.59728e-06 4.23e-05 4.47e-05 1.4e-05 
34 1 1.75086e-06 3.5e-05 1.85e-05 1.45e-05 
46 1 1.78158e-06 1.25e-05 3.87e-05 1.42e-05 
3 1 1.92492e-06 4.49e-05 4.47e-05 1.77e-05 
39 1 1.63823e-06 4.27e-06 4.45e-06 1.94e-05 
52 1 1.65636e-06 1.24154e-05 7.34111e-06 8.08482e-06 
18 1 1.75086e-06 4.33e-05 2.09e-05 2.08e-05 
7 1 1.89421e-06 3.67e-05 3.01e-05 2.43e-05 
40 1 1.89421e-06 4.61e-05 2.91e-05 2.88e-05 
27 1 1.51536e-06 1.16e-05 2.94e-05 3.61e-05 
26 1 1.55632e-06 4.01e-05 2.95e-05 3.93e-05 
21 1 1.68943e-06 4.13e-05 1.25e-05 4.34e-05 
44 1 1.47441e-06 2.51e-05 7.02e-05 1.57e-06 
10 1 1.48465e-06 1.09e-05 9.77e-05 2.74e-06 
24 1 1.93516e-06 1.01e-05 9.07e-05 4.53e-06 
13 1 1.66895e-06 4.52e-05 6.65e-05 7.63e-06 
19 1 1.89421e-06 2.41e-05 7.8e-05 8.94e-06 
14 1 1.5768e-06 2.9e-05 7.54e-05 2.04e-05 
20 1 1.79182e-06 3.22e-05 5.28e-05 2.22e-05 
12 1 1.46938e-06 2.34863e-05 9.23522e-05 2.3032e-05 
35 1 1.54608e-06 4.6e-05 9.53e-05 2.35e-05 
37 1 1.96588e-06 2.47e-05 9.2e-05 4.33e-05 
11 1 1.75086e-06 4.85e-05 9.27e-05 4.47e-05 
53 1 1.65636e-06 2.35154e-05 9.22411e-05 2.14748e-05 
23 1 1.65871e-06 9.25e-05 2.35e-05 2.32e-06 
2 1 1.60752e-06 7.16e-05 5.02e-06 6.05e-06 
36 1 1.67919e-06 6.09e-05 4.52e-06 1.02e-05 
4 1 1.48465e-06 7.91e-05 4.09e-05 2.06e-05 
49 1 1.89421e-06 9.54e-05 1.73e-05 2.11e-05 
38 1 1.9454e-06 7.91e-05 7.74e-06 3.03e-05 
30 1 1.5768e-06 8.39e-05 1.92e-05 3.38e-05 
48 1 1.73038e-06 7.35e-05 4.32e-05 3.4e-05 
6 1 1.50513e-06 6.78e-05 3.14e-05 4.05e-05 
17 1 1.92492e-06 7.24e-05 5.16e-05 1.09e-05 
1 1 1.64847e-06 9.39e-05 5.21e-05 1.25e-05 
28 1 1.7099e-06 5.86e-05 8.84e-05 1.44e-05 
43 1 1.46938e-06 8.66863e-05 8.69522e-05 1.8332e-05 
54 1 1.65636e-06 8.67154e-05 8.68411e-05 1.67748e-05 
41 1 1.91468e-06 6.07e-05 5.34e-05 2.3e-05 
32 1 1.477e-06 6.39863e-05 5.83522e-05 3.35315e-05 
45 1 1.81229e-06 6.63e-05 5.87e-05 3.49e-05 
15 1 1.49489e-06 6.58e-05 8.85e-05 3.5e-05 
31 1 1.49489e-06 7.25e-05 7.99e-05 3.61e-05 
9 1 1.82253e-06 8.13e-05 6.78e-05 4.13e-05 
47 1 1.92492e-06 6.57e-05 7.89e-05 4.4e-05 
25 1 1.82253e-06 9.46e-05 9.45e-05 4.37e-05 
16 1 1.81229e-06 5.74e-05 9.71e-05 4.7e-05 
8 1 1.86349e-06 8.2e-05 9.23e-05 4.75e-05 
51 1 1.66495e-06 6.40154e-05 5.82412e-05 3.19754e-05 
ITEM: TIMESTEP
500
ITEM: NUMBER OF ATOMS
55
ITEM: BOX BOUNDS ff ff ff
0.0000000000000000e+00 1.0000000000000000e-04
0.0000000000000000e+00 1.0000000000000000e-04
0.0000000000000000e+00 5.0000000000000002e-05
ITEM: ATOMS id type diameter x y z 
22 1 1.66853e-06 3.98e-05 4.03e-05 4.3e-06 
29 1 1.51404e-06 3.78e-05 1.81e-05 6.29e-06 
42 1 1.79213e-06 7.8e-06 3.96e-05 8.03e-06 
5 1 1.47808e-06 1.23863e-05 7.45224e-06 9.64203e-06 
50 1 1.46254e-06 3.43e-05 2.05e-05 1.31e-05 
33 1 1.60673e-06 4.23e-05 4.47e-05 1.4e-05 
34 1 1.76123e-06 3.5e-05 1.85e-05 1.45e-05 
46 1 1.79213e-06 1.25e-05 3.87e-05 1.42e-05 
3 1 1.93632e-06 4.49e-05 4.47e-05 1.77e-05 
39 1 1.64793e-06 4.27e-06 4.45e-06 1.94e-05 
52 1 1.66617e-06 1.24154e-05 7.34111e-06 8.08482e-06 
18 1 1.76123e-06 4.33e-05 2.09e-05 2.08e-05 
7 1 1.90542e-06 3.67e-05 3.01e-05 2.43e-05 
40 1 1.90542e-06 4.61e-05 2.91e-05 2.88e-05 
27 1 1.52434e-06 1.16e-05 2.94e-05 3.61e-05 
26 1 1.56554e-06 4.01e-05 2.95e-05 3.93e-05 
21 1 1.69943e-06 4.13e-05 1.25e-05 4.34e-05 
44 1 1.48314e-06 2.51e-05 7.02e-05 1.57e-06 
10 1 1.49344e-06 1.09e-05 9.77e-05 2.74e-06 
24 1 1.94662e-06 1.01e-05 9.07e-05 4.53e-06 
13 1 1.67883e-06 4.52e-05 6.65e-05 7.63e-06 
19 1 1.90542e-06 2.41e-05 7.8e-05 8.94e-06 
14 1 1.58613e-06 2.9e-05 7.54e-05 2.04e-05 
20 1 1.80243e-06 3.22e-05 5.28e-05 2.22e-05 
12 1 1.47808e-06 2.34863e-05 9.23522e-05 2.3032e-05 
35 1 1.55524e-06 4.6e-05 9.53e-05 2.35e-05 
37 1 1.64825e-06 2.39822e-05 9.19371e-05 4.36984e-05 
11 1 1.76123e-06 4.85e-05 9.27e-05 4.47e-05 
53 1 1.66617e-06 2.35154e-05 9.22411e-05 2.14748e-05 
55 1 1.48207e-06 2.53454e-05 9.20566e-05 4.29417e-05 
23 1 1.66853e-06 9.25e-05 2.35e-05 2.32e-06 
2 1 1.61703e-06 7.16e-05 5.02e-06 6.05e-06 
36 1 1.68913e-06 6.09e-05 4.52e-06 1.02e-05 
4 1 1.49344e-06 7.91e-05 4.09e-05 2.06e-05 
49 1 1.90542e-06 9.54e-05 1.73e-05 2.11e-05 
38 1 1.95692e-06 7.91e-05 7.74e-06 3.03e-05 
30 1 1.58613e-06 8.39e-05 1.92e-05 3.38e-05 
48 1 1.74063e-06 7.35e-05 4.32e-05 3.4e-05 
6 1 1.51404e-06 6.78e-05 3.14e-05 4.05e-05 
17 1 1.93632e-06 7.24e-05 5.16e-05 1.09e-05 
1 1 1.65823e-06 9.39e-05 5.21e-05 1.25e-05 
28 1 1.72003e-06 5.86e-05 8.84e-05 1.44e-05 
43 1 1.47808e-06 8.66863e-05 8.69522e-05 1.8332e-05 
54 1 1.66617e-06 8.67154e-05 8.68411e-05 1.67748e-05 
41 1 1.92602e-06 6.07e-05 5.34e-05 2.3e-05 
32 1 1.48574e-06 6.39863e-05 5.83522e-05 3.35315e-05 
45 1 1.82302e-06 6.63e-05 5.87e-05 3.49e-05 
15 1 1.50374e-06 6.58e-05 8.85e-05 3.5e-05 
31 1 1.50374e-06 7.25e-05 7.99e-05 3.61e-05 
9 1 1.83332e-06 8.13e-05 6.78e-05 4.13e-05 
47 1 1.93632e-06 6.57e-05 7.89e-05 4.4e-05 
25 1 1.83332e-06 9.46e-05 9.45e-05 4.37e-05 
16 1 1.82302e-06 5.74e-05 9.71e-05 4.7e-05 
8 1 1.87452e-06 8.2e-05 9.23e-05 4.75e-05 
51 1 1.6748e-06 6.40154e-05 5.82412e-05 3.19754e-05 
ITEM: TIMESTEP
600
ITEM: NUMBER OF ATOMS
55
ITEM: BOX BOUNDS ff ff ff
0.0000000000000000e+00 1.0000000000000000e-04
0.0000000000000000e+00 1.0000000000000000e-04
0.0000000000000000e+00 5.0000000000000002e-05
ITEM: ATOMS id type diameter x y z 
22 1 1.67841e-06 3.98e-05 4.03e-05 4.3e-06 
29 1 1.523e-06 3.78e-05 1.81e-05 6.29e-06 
42 1 1.80274e-06 7.8e-06 3.96e-05 8.03e-06 
5 1 1.48683e-06 1.23863e-05 7.45224e-06 9.64203e-06 
50 1 1.4712e-06 3.43e-05 2.05e-05 1.31e-05 
33 1 1.61625e-06 4.23e-05 4.47e-05 1.4e-05 
34 1 1.77166e-06 3.5e-05 1.85e-05 1.45e-05 
46 1 1.80274e-06 1.25e-05 3.87e-05 1.42e-05 
3 1 1.94778e-06 4.49e-05 4.47e-05 1.77e-05 
39 1 1.65769e-06 4.27e-06 4.45e-06 1.94e-05 
52 1 1.67604e-06 1.24154e-05 7.34111e-06 8.08482e-06 
18 1 1.77166e-06 4.33e-05 2.09e-05 2.08e-05 
7 1 1.9167e-06 3.67e-05 3.01e-05 2.43e-05 
40 1 1.9167e-06 4.61e-05 2.91e-05 2.88e-05 
27 1 1.53336e-06 1.16e-05 2.94e-05 3.61e-05 
26 1 1.5748e-06 4.01e-05 2.95e-05 3.93e-05 
21 1 1.70949e-06 4.13e-05 1.25e-05 4.34e-05 
44 1 1.49192e-06 2.51e-05 7.02e-05 1.57e-06 
10 1 1.50228e-06 1.09e-05 9.77e-05 2.74e-06 
24 1 1.95815e-06 1.01e-05 9.07e-05 4.53e-06 
13 1 1.68877e-06 4.52e-05 6.65e-05 7.63e-06 
19 1 1.9167e-06 2.41e-05 7.8e-05 8.94e-06 
14 1 1.59553e-06 2.9e-05 7.54e-05 2.04e-05 
20 1 1.8131e-06 3.22e-05 5.28e-05 2.22e-05 
12 1 1.48683e-06 2.34863e-05 9.23522e-05 2.3032e-05 
35 1 1.56444e-06 4.6e-05 9.53e-05 2.35e-05 
37 1 1.65801e-06 2.39822e-05 9.19371e-05 4.36984e-05 
11 1 1.77166e-06 4.85e-05 9.27e-05 4.47e-05 
53 1 1.67604e-06 2.35154e-05 9.22411e-05 2.14748e-05 
55 1 1.49084e-06 2.53454e-05 9.20566e-05 4.29417e-05 
23 1 1.67841e-06 9.25e-05 2.35e-05 2.32e-06 
2 1 1.62661e-06 7.16e-05 5.02e-06 6.05e-06 
36 1 1.69913e-06 6.09e-05 4.52e-06 1.02e-05 
4 1 1.50228e-06 7.91e-05 4.09e-05 2.06e-05 
49 1 1.9167e-06 9.54e-05 1.73e-05 2.11e-05 
38 1 1.96851e-06 7.91e-05 7.74e-06 3.03e-05 
30 1 1.59553e-06 8.39e-05 1.92e-05 3.38e-05 
48 1 1.75093e-06 7.35e-05 4.32e-05 3.4e-05 
6 1 1.523e-06 6.78e-05 3.14e-05 4.05e-05 
17 1 1.94778e-06 7.24e-05 5.16e-05 1.09e-05 
1 1 1.66805e-06 9.39e-05 5.21e-05 1.25e-05 
28 1 1.73021e-06 5.86e-05 8.84e-05 1.44e-05 
43 1 1.48683e-06 8.66863e-05 8.69522e-05 1.8332e-05 
54 1 1.67604e-06 8.67154e-05 8.68411e-05 1.67748e-05 
41 1 1.93742e-06 6.07e-05 5.34e-05 2.3e-05 
32 1 1.49454e-06 6.39863e-05 5.83522e-05 3.35315e-05 
45 1 1.83382e-06 6.63e-05 5.87e-05 3.49e-05 
15 1 1.51264e-06 6.58e-05 8.85e-05 3.5e-05 
31 1 1.51264e-06 7.25e-05 7.99e-05 3.61e-05 
9 1 1.84418e-06 8.13e-05 6.78e-05 4.13e-05 
47 1 1.94779e-06 6.57e-05 7.89e-05 4.4e-05 
25 1 1.84418e-06 9.46e-05 9.45e-05 4.37e-05 
16 1 1.83382e-06 5.74e-05 9.71e-05 4.7e-05 
8 1 1.88562e-06 8.2e-05 9.23e-05 4.75e-05 
51 1 1.68472e-06 6.40154e-05 5.82412e-05 3.19754e-05 
ITEM: TIMESTEP
700
ITEM: NUMBER OF ATOMS
56
ITEM: BOX BOUNDS ff ff ff
0.0000000000000000e+00 1.0000000000000000e-04
0.0000000000000000e+00 1.0000000000000000e-04
0.0000000000000000e+00 5.0000000000000002e-05
ITEM: ATOMS id type diameter x y z 
22 1 1.68835e-06 3.98e-05 4.03e-05 4.3e-06 
29 1 1.53202e-06 3.78e-05 1.81e-05 6.29e-06 
42 1 1.81341e-06 7.8e-06 3.96e-05 8.03e-06 
5 1 1.49564e-06 1.23863e-05 7.45224e-06 9.64203e-06 
50 1 1.47991e-06 3.43e-05 2.05e-05 1.31e-05 
33 1 1.62582e-06 4.23e-05 4.47e-05 1.4e-05 
34 1 1.78215e-06 3.5e-05 1.85e-05 1.45e-05 
46 1 1.81341e-06 1.25e-05 3.87e-05 1.42e-05 
3 1 1.95932e-06 4.49e-05 4.47e-05 1.77e-05 
39 1 1.6675e-06 4.27e-06 4.45e-06 1.94e-05 
52 1 1.68596e-06 1.24154e-05 7.34111e-06 8.08482e-06 
18 1 1.78215e-06 4.33e-05 2.09e-05 2.08e-05 
7 1 1.92805e-06 3.67e-05 3.01e-05 2.43e-05 
40 1 1.92805e-06 4.61e-05 2.91e-05 2.88e-05 
27 1 1.54244e-06 1.16e-05 2.94e-05 3.61e-05 
26 1 1.58413e-06 4.01e-05 2.95e-05 3.93e-05 
21 1 1.71961e-06 4.13e-05 1.25e-05 4.34e-05 
44 1 1.50075e-06 2.51e-05 7.02e-05 1.57e-06 
10 1 1.51118e-06 1.09e-05 9.77e-05 2.74e-06 
24 1 1.96974e-06 1.01e-05 9.07e-05 4.53e-06 
13 1 1.69877e-06 4.52e-05 6.65e-05 7.63e-06 
19 1 1.92805e-06 2.41e-05 7.8e-05 8.94e-06 
14 1 1.60497e-06 2.9e-05 7.54e-05 2.04e-05 
20 1 1.82383e-06 3.22e-05 5.28e-05 2.22e-05 
12 1 1.49564e-06 2.34863e-05 9.23522e-05 2.3032e-05 
35 1 1.57371e-06 4.6e-05 9.53e-05 2.35e-05 
37 1 1.66783e-06 2.39822e-05 9.19371e-05 4.36984e-05 
11 1 1.78215e-06 4.85e-05 9.27e-05 4.47e-05 
53 1 1.68596e-06 2.35154e-05 9.22411e-05 2.14748e-05 
55 1 1.49967e-06 2.53454e-05 9.20566e-05 4.29417e-05 
23 1 1.68835e-06 9.25e-05 2.35e-05 2.32e-06 
2 1 1.63624e-06 7.16e-05 5.02e-06 6.05e-06 
36 1 1.70919e-06 6.09e-05 4.52e-06 1.02e-05 
4 1 1.51118e-06 7.91e-05 4.09e-05 2.06e-05 
49 1 1.92805e-06 9.54e-05 1.73e-05 2.11e-05 
38 1 1.47239e-06 7.90863e-05 7.79234e-06 3.10335e-05 
30 1 1.60497e-06 8.39e-05 1.92e-05 3.38e-05 
48 1 1.7613e-06 7.35e-05 4.32e-05 3.4e-05 
6 1 1.53202e-06 6.78e-05 3.14e-05 4.05e-05 
56 1 1.65975e-06 7.91154e-05 7.68099e-06 2.94731e-05 
17 1 1.95932e-06 7.24e-05 5.16e-05 1.09e-05 
1 1 1.67793e-06 9.39e-05 5.21e-05 1.25e-05 
28 1 1.74046e-06 5.86e-05 8.84e-05 1.44e-05 
43 1 1.49564e-06 8.66863e-05 8.69522e-05 1.8332e-05 
54 1 1.68596e-06 8.67154e-05 8.68411e-05 1.67748e-05 
41 1 1.9489e-06 6.07e-05 5.34e-05 2.3e-05 
32 1 1.50339e-06 6.3986e-05 5.83536e-05 3.35514e-05 
45 1 1.84468e-06 6.63e-05 5.87e-05 3.49e-05 
15 1 1.5216e-06 6.58e-05 8.85e-05 3.5e-05 
31 1 1.5216e-06 7.25e-05 7.99e-05 3.61e-05 
9 1 1.8551e-06 8.13e-05 6.78e-05 4.13e-05 
47 1 1.95932e-06 6.57e-05 7.89e-05 4.4e-05 
25 1 1.8551e-06 9.46e-05 9.45e-05 4.37e-05 
16 1 1.84468e-06 5.74e-05 9.71e-05 4.7e-05 
8 1 1.89679e-06 8.2e-05 9.23e-05 4.75e-05 
51 1 1.69469e-06 6.40158e-05 5.82397e-05 3.19555e-05 
ITEM: TIMESTEP
800
ITEM: NUMBER OF ATOMS
57
ITEM: BOX BOUNDS ff ff ff
0.0000000000000000e+00 1.0000000000000000e-04
0.0000000000000000e+00 1.0000000000000000e-04
0.0000000000000000e+00 5.0000000000000002e-05
ITEM: ATOMS id type diameter x y z 
22 1 1.69834e-06 3.98e-05 4.03e-05 4.3e-06 
29 1 1.54109e-06 3.78e-05 1.81e-05 6.29e-06 
42 1 1.82415e-06 7.8e-06 3.96e-05 8.03e-06 
5 1 1.50449e-06 1.2386e-05 7.45366e-06 9.66198e-06 
50 1 1.48867e-06 3.43e-05 2.05e-05 1.31e-05 
33 1 1.63544e-06 4.23e-05 4.47e-05 1.4e-05 
34 1 1.7927e-06 3.5e-05 1.85e-05 1.45e-05 
46 1 1.82415e-06 1.25e-05 3.87e-05 1.42e-05 
3 1 1.97092e-06 4.49e-05 4.47e-05 1.77e-05 
39 1 1.67738e-06 4.27e-06 4.45e-06 1.94e-05 
52 1 1.69594e-06 1.24158e-05 7.33969e-06 8.06487e-06 
18 1 1.7927e-06 4.33e-05 2.09e-05 2.08e-05 
7 1 1.93947e-06 3.67e-05 3.01e-05 2.43e-05 
40 1 1.93947e-06 4.61e-05 2.91e-05 2.88e-05 
27 1 1.55157e-06 1.16e-05 2.94e-05 3.61e-05 
26 1 1.59351e-06 4.01e-05 2.95e-05 3.93e-05 
21 1 1.7298e-06 4.13e-05 1.25e-05 4.34e-05 
44 1 1.50964e-06 2.51e-05 7.02e-05 1.57e-06 
10 1 1.52012e-06 1.09e-05 9.77e-05 2.74e-06 
24 1 1.47331e-06 1.00863e-05 9.07524e-05 5.26399e-06 
13 1 1.70883e-06 4.52e-05 6.65e-05 7.63e-06 
19 1 1.93947e-06 2.41e-05 7.8e-05 8.94e-06 
57 1 1.66079e-06 1.01154e-05 9.0641e-05 3.70261e-06 
14 1 1.61448e-06 2.9e-05 7.54e-05 2.04e-05 
20 1 1.83463e-06 3.22e-05 5.28e-05 2.22e-05 
12 1 1.50449e-06 2.3486e-05 9.23537e-05 2.3052e-05 
35 1 1.58303e-06 4.6e-05 9.53e-05 2.35e-05 
37 1 1.6777e-06 2.39822e-05 9.19371e-05 4.36984e-05 
11 1 1.7927e-06 4.85e-05 9.27e-05 4.47e-05 
53 1 1.69594e-06 2.35158e-05 9.22397e-05 2.14549e-05 
55 1 1.50855e-06 2.53454e-05 9.20566e-05 4.29417e-05 
23 1 1.69834e-06 9.25e-05 2.35e-05 2.32e-06 
2 1 1.64593e-06 7.16e-05 5.02e-06 6.05e-06 
36 1 1.71931e-06 6.09e-05 4.52e-06 1.02e-05 
4 1 1.52012e-06 7.91e-05 4.09e-05 2.06e-05 
49 1 1.93947e-06 9.54e-05 1.73e-05 2.11e-05 
38 1 1.48111e-06 7.90863e-05 7.79234e-06 3.10335e-05 
30 1 1.61448e-06 8.39e-05 1.92e-05 3.38e-05 
48 1 1.77173e-06 7.35e-05 4.32e-05 3.4e-05 
6 1 1.54109e-06 6.78e-05 3.14e-05 4.05e-05 
56 1 1.66958e-06 7.91154e-05 7.68099e-06 2.94731e-05 
17 1 1.97092e-06 7.24e-05 5.16e-05 1.09e-05 
1 1 1.68786e-06 9.39e-05 5.21e-05 1.25e-05 
28 1 1.75076e-06 5.86e-05 8.84e-05 1.44e-05 
43 1 1.50449e-06 8.6686e-05 8.69537e-05 1.8352e-05 
54 1 1.69594e-06 8.67158e-05 8.68397e-05 1.67549e-05 
41 1 1.96044e-06 6.07e-05 5.34e-05 2.3e-05 
32 1 1.51229e-06 6.3986e-05 5.83536e-05 3.35514e-05 
45 1 1.8556e-06 6.63e-05 5.87e-05 3.49e-05 
15 1 1.53061e-06 6.58e-05 8.85e-05 3.5e-05 
31 1 1.53061e-06 7.25e-05 7.99e-05 3.61e-05 
9 1 1.86608e-06 8.13e-05 6.78e-05 4.13e-05 
47 1 1.97092e-06 6.57e-05 7.89e-05 4.4e-05 
25 1 1.86608e-06 9.46e-05 9.45e-05 4.37e-05 
16 1 1.8556e-06 5.74e-05 9.71e-05 4.7e-05 
8 1 1.90802e-06 8.2e-05 9.23e-05 4.75e-05 
51 1 1.70473e-06 6.40158e-05 5.82397e-05 3.19555e-05 
ITEM: TIMESTEP
900
ITEM: NUMBER OF ATOMS
61
ITEM: BOX BOUNDS ff ff ff
0.0000000000000000e+00 1.0000000000000000e-04
0.0000000000000000e+00 1.0000000000000000e-04
0.0000000000000000e+00 5.0000000000000002e-05
ITEM: ATOMS id type diameter x y z 
22 1 1.7084e-06 3.98e-05 4.03e-05 4.3e-06 
29 1 1.55022e-06 3.78e-05 1.81e-05 6.29e-06 
42 1 1.83495e-06 7.8e-06 3.96e-05 8.03e-06 
5 1 1.5134e-06 1.2386e-05 7.45366e-06 9.66198e-06 
50 1 1.49749e-06 3.43e-05 2.05e-05 1.31e-05 
33 1 1.64513e-06 4.23e-05 4.47e-05 1.4e-05 
34 1 1.80331e-06 3.5e-05 1.85e-05 1.45e-05 
46 1 1.83495e-06 1.25e-05 3.87e-05 1.42e-05 
3 1 1.65248e-06 4.41804e-05 4.46369e-05 1.80995e-05 
39 1 1.68731e-06 4.27e-06 4.45e-06 1.94e-05 
52 1 1.70598e-06 1.24158e-05 7.33969e-06 8.06487e-06 
58 1 1.48587e-06 4.55471e-05 4.47567e-05 1.73408e-05 
18 1 1.80331e-06 4.33e-05 2.09e-05 2.08e-05 
7 1 1.95095e-06 3.67e-05 3.01e-05 2.43e-05 
40 1 1.95095e-06 4.61e-05 2.91e-05 2.88e-05 
27 1 1.56076e-06 1.16e-05 2.94e-05 3.61e-05 
26 1 1.60294e-06 4.01e-05 2.95e-05 3.93e-05 
21 1 1.74004e-06 4.13e-05 1.25e-05 4.34e-05 
44 1 1.51858e-06 2.51e-05 7.02e-05 1.57e-06 
10 1 1.52912e-06 1.09e-05 9.77e-05 2.74e-06 
24 1 1.48204e-06 1.00863e-05 9.07524e-05 5.26399e-06 
13 1 1.71895e-06 4.52e-05 6.65e-05 7.63e-06 
19 1 1.95095e-06 2.41e-05 7.8e-05 8.94e-06 
57 1 1.67063e-06 1.01154e-05 9.0641e-05 3.70261e-06 
14 1 1.62404e-06 2.9e-05 7.54e-05 2.04e-05 
20 1 1.84549e-06 3.22e-05 5.28e-05 2.22e-05 
12 1 1.5134e-06 2.3486e-05 9.23537e-05 2.3052e-05 
35 1 1.5924e-06 4.6e-05 9.53e-05 2.35e-05 
37 1 1.68763e-06 2.39648e-05 9.19356e-05 4.37081e-05 
11 1 1.80331e-06 4.85e-05 9.27e-05 4.47e-05 
53 1 1.70598e-06 2.35158e-05 9.22397e-05 2.14549e-05 
55 1 1.51748e-06 2.53629e-05 9.20581e-05 4.29321e-05 
23 1 1.7084e-06 9.25e-05 2.35e-05 2.32e-06 
2 1 1.65567e-06 7.16e-05 5.02e-06 6.05e-06 
36 1 1.72949e-06 6.09e-05 4.52e-06 1.02e-05 
4 1 1.52912e-06 7.91e-05 4.09e-05 2.06e-05 
49 1 1.95095e-06 9.54e-05 1.73e-05 2.11e-05 
38 1 1.48988e-06 7.90863e-05 7.79234e-06 3.10335e-05 
30 1 1.62404e-06 8.39e-05 1.92e-05 3.38e-05 
48 1 1.78222e-06 7.35e-05 4.32e-05 3.4e-05 
6 1 1.55022e-06 6.78e-05 3.14e-05 4.05e-05 
56 1 1.67947e-06 7.91154e-05 7.68099e-06 2.94731e-05 
17 1 1.65248e-06 7.16804e-05 5.15369e-05 1.12995e-05 
1 1 1.69786e-06 9.39e-05 5.21e-05 1.25e-05 
28 1 1.76113e-06 5.86e-05 8.84e-05 1.44e-05 
43 1 1.5134e-06 8.6686e-05 8.69537e-05 1.8352e-05 
54 1 1.70598e-06 8.67158e-05 8.68397e-05 1.67549e-05 
59 1 1.48587e-06 7.30471e-05 5.16567e-05 1.05408e-05 
41 1 1.64369e-06 5.99842e-05 5.33373e-05 2.33973e-05 
32 1 1.52124e-06 6.3986e-05 5.83536e-05 3.35514e-05 
45 1 1.86659e-06 6.63e-05 5.87e-05 3.49e-05 
15 1 1.53967e-06 6.58e-05 8.85e-05 3.5e-05 
31 1 1.53967e-06 7.25e-05 7.99e-05 3.61e-05 
9 1 1.87713e-06 8.13e-05 6.78e-05 4.13e-05 
47 1 1.50557e-06 6.52551e-05 7.87317e-05 4.34174e-05 
25 1 1.87713e-06 9.46e-05 9.45e-05 4.37e-05 
16 1 1.86659e-06 5.74e-05 9.71e-05 4.7e-05 
8 1 1.91931e-06 8.2e-05 9.23e-05 4.75e-05 
51 1 1.71482e-06 6.40158e-05 5.82397e-05 3.19555e-05 
60 1 1.47796e-06 6.13436e-05 5.34564e-05 2.26427e-05 
61 1 1.63617e-06 6.61835e-05 7.90829e-05 4.46331e-05 
ITEM: TIMESTEP
1000
ITEM: NUMBER OF ATOMS
61
ITEM: BOX BOUNDS ff ff ff
0.0000000000000000e+00 1.0000000000000000e-04
0.0000000000000000e+00 1.0000000000000000e-04
0.0000000000000000e+00 5.0000000000000002e-05
ITEM: ATOMS id type diameter x y z 
22 1 1.71852e-06 3.98e-05 4.03e-05 4.3e-06 
29 1 1.55939e-06 3.78e-05 1.81e-05 6.29e-06 
52 1 1.71608e-06 1.24158e-05 7.33969e-06 8.06487e-06 
42 1 1.84581e-06 7.8e-06 3.96e-05 8.03e-06 
5 1 1.52236e-06 1.2386e-05 7.45366e-06 9.66198e-06 
50 1 1.50635e-06 3.43e-05 2.05e-05 1.31e-05 
33 1 1.65487e-06 4.23e-05 4.47e-05 1.4e-05 
34 1 1.81399e-06 3.5e-05 1.85e-05 1.45e-05 
46 1 1.84581e-06 1.25e-05 3.87e-05 1.42e-05 
58 1 1.49466e-06 4.55471e-05 4.47567e-05 1.73408e-05 
3 1 1.66226e-06 4.41804e-05 4.46369e-05 1.80995e-05 
39 1 1.6973e-06 4.27e-06 4.45e-06 1.94e-05 
18 1 1.81399e-06 4.33e-05 2.09e-05 2.08e-05 
7 1 1.9625e-06 3.67e-05 3.01e-05 2.43e-05 
40 1 1.9625e-06 4.61e-05 2.91e-05 2.88e-05 
27 1 1.57e-06 1.16e-05 2.94e-05 3.61e-05 
26 1 1.61243e-06 4.01e-05 2.95e-05 3.93e-05 
21 1 1.75034e-06 4.13e-05 1.25e-05 4.34e-05 
44 1 1.52757e-06 2.51e-05 7.02e-05 1.57e-06 
10 1 1.53818e-06 1.09e-05 9.77e-05 2.74e-06 
57 1 1.68052e-06 1.01154e-05 9.0641e-05 3.70261e-06 
24 1 1.49081e-06 1.00863e-05 9.07524e-05 5.26399e-06 
13 1 1.72912e-06 4.52e-05 6.65e-05 7.63e-06 
19 1 1.9625e-06 2.41e-05 7.8e-05 8.94e-06 
14 1 1.63365e-06 2.9e-05 7.54e-05 2.04e-05 
53 1 1.71608e-06 2.35158e-05 9.22397e-05 2.14549e-05 
20 1 1.85642e-06 3.22e-05 5.28e-05 2.22e-05 
12 1 1.52236e-06 2.3486e-05 9.23537e-05 2.3052e-05 
35 1 1.60183e-06 4.6e-05 9.53e-05 2.35e-05 
55 1 1.52647e-06 2.53629e-05 9.20581e-05 4.29321e-05 
37 1 1.69763e-06 2.39648e-05 9.19356e-05 4.37081e-05 
11 1 1.81399e-06 4.85e-05 9.27e-05 4.47e-05 
23 1 1.71852e-06 9.25e-05 2.35e-05 2.32e-06 
2 1 1.66548e-06 7.16e-05 5.02e-06 6.05e-06 
36 1 1.73973e-06 6.09e-05 4.52e-06 1.02e-05 
4 1 1.53818e-06 7.91e-05 4.09e-05 2.06e-05 
49 1 1.9625e-06 9.54e-05 1.73e-05 2.11e-05 
56 1 1.68941e-06 7.91154e-05 7.68099e-06 2.94731e-05 
38 1 1.4987e-06 7.90863e-05 7.79234e-06 3.10335e-05 
30 1 1.63365e-06 8.39e-05 1.92e-05 3.38e-05 
48 1 1.79277e-06 7.35e-05 4.32e-05 3.4e-05 
6 1 1.55939e-06 6.78e-05 3.14e-05 4.05e-05 
59 1 1.49466e-06 7.30471e-05 5.16567e-05 1.05408e-05 
17 1 1.66226e-06 7.16804e-05 5.15369e-05 1.12995e-05 
1 1 1.70791e-06 9.39e-05 5.21e-05 1.25e-05 
28 1 1.77156e-06 5.86e-05 8.84e-05 1.44e-05 
54 1 1.71608e-06 8.67158e-05 8.68397e-05 1.67549e-05 
43 1 1.52236e-06 8.6686e-05 8.69537e-05 1.8352e-05 
60 1 1.48671e-06 6.13436e-05 5.34564e-05 2.26427e-05 
41 1 1.65342e-06 5.99842e-05 5.33373e-05 2.33973e-05 
51 1 1.72498e-06 6.40158e-05 5.82397e-05 3.19555e-05 
32 1 1.53025e-06 6.3986e-05 5.83536e-05 3.35514e-05 
45 1 1.87764e-06 6.63e-05 5.87e-05 3.49e-05 
15 1 1.54879e-06 6.58e-05 8.85e-05 3.5e-05 
31 1 1.54879e-06 7.25e-05 7.99e-05 3.61e-05 
9 1 1.88825e-06 8.13e-05 6.78e-05 4.13e-05 
47 1 1.51449e-06 6.52551e-05 7.87317e-05 4.34174e-05 
25 1 1.88825e-06 9.46e-05 9.45e-05 4.37e-05 