LAMMPS (20 Nov 2019)
Reading data file ...
  orthogonal box = (0 0 0) to (0.0001 0.0001 1e-05)
  8 by 4 by 1 MPI processor grid
  reading atoms ...
  100 atoms
  4 nutrients
Lattice spacing in x,y,z = 100 100 100
50 atoms in group CYANO
50 atoms in group ECW
Model is defined as a closed system. 
Neighbor list info ...
  update every 1 steps, delay 0 steps, check yes
  max neighbors/atom: 5000, page size: 100000
  master list distance cutoff = 2.43e-06
  ghost atom cutoff = 2.43e-06
  binsize = 1.215e-06, bins = 83 83 9
  1 neighbor lists, perpetual/occasional/extra = 1 0 0
  (1) pair gran/hooke/history, perpetual
      attributes: half, newton off, size, history
      pair build: half/size/bin/newtoff
      stencil: half/bin/3d/newtoff
      bin: standard
Setting up Verlet run ...
  Unit style    : lj
  Current step  : 0
  Time step     : 10
Per MPI rank memory allocation (min/avg/max) = 6.792 | 10.65 | 12.11 Mbytes
Step CPU Atoms c_myNtypes[1] c_myNtypes[2] c_myMass[1] c_myMass[2] c_myCon[1] c_myCon[2] c_myCon[3] c_myCon[4] 
       0            0      100           50           50 4.2688665e-14 9.1862387e-15          0.1        0.009     3.42e-20       0.0299 
number of iterations: 325045 
     100     15.79055      136           50           86 4.3254384e-14 9.1799451e-15          0.1 0.0090007669  0.034300262  0.029898722 
number of iterations: 4310 
     200    16.191233      148           50           98 4.3827601e-14 9.1751987e-15          0.1  0.009000777  0.067941273  0.029898706 
number of iterations: 2594 
     300    16.476049      148           50           98 4.4408414e-14 9.1719626e-15          0.1 0.0090007872   0.10198857  0.029898688 
number of iterations: 1853 
     400    16.713153      148           50           98 4.4996924e-14 9.1702172e-15          0.1 0.0090007976   0.13645146  0.029898671 
number of iterations: 1581 
     500    16.931265      149           51           98 4.5593233e-14 9.1699462e-15          0.1 0.0090008115   0.17133754  0.029898648 
number of iterations: 1567 
     600    17.191903      151           53           98 4.6197444e-14 9.1711392e-15          0.1 0.0090008223   0.20665333   0.02989863 
number of iterations: 1398 
     700    17.403122      151           53           98 4.6809663e-14 9.1737867e-15          0.1 0.0090008332    0.2424053  0.029898612 
number of iterations: 1401 
     800    17.612687      151           53           98 4.7429994e-14 9.1778801e-15          0.1 0.0090008441   0.27859993  0.029898593 
number of iterations: 1404 
     900    17.827631      151           53           98 4.8058547e-14 9.1834116e-15          0.1 0.0090008552   0.31524377  0.029898575 
number of iterations: 1407 
    1000    18.027087      151           53           98 4.8695429e-14 9.1903742e-15          0.1 0.0090008665   0.35234338  0.029898556 
number of iterations: 1410 
    1100    18.212435      151           53           98 4.9340751e-14 9.1987613e-15          0.1 0.0090008779   0.38990541  0.029898537 
number of iterations: 1412 
    1200    18.411505      151           53           98 4.9994626e-14 9.2085672e-15          0.1 0.0090008895   0.42793656  0.029898517 
number of iterations: 1415 
    1300    18.590654      151           53           98 5.0657165e-14 9.2197868e-15          0.1 0.0090009012   0.46644358  0.029898498 
number of iterations: 1418 
    1400    18.766085      151           53           98 5.1328485e-14 9.2324154e-15          0.1  0.009000913   0.50543331  0.029898478 
number of iterations: 1529 
    1500    18.949921      154           56           98 5.2008701e-14 9.246448e-15          0.1 0.0090009201   0.54491273  0.029898466 
number of iterations: 1593 
    1600    19.157064      156           58           98 5.2697932e-14 9.2618832e-15          0.1 0.0090009329   0.58488883  0.029898445 
number of iterations: 1649 
    1700    19.371808      162           62          100 5.3396296e-14 9.2787198e-15          0.1 0.0090009534   0.62536858   0.02989841 
number of iterations: 1429 
    1800    19.546945      162           62          100 5.4103915e-14 9.2969541e-15          0.1 0.0090009659   0.66635911  0.029898389 
number of iterations: 1432 
    1900    19.726917      162           62          100 5.4820912e-14 9.3165849e-15          0.1 0.0090009787   0.70786763  0.029898368 
number of iterations: 1435 
    2000    19.943292      162           62          100 5.554741e-14 9.3376112e-15          0.1 0.0090009916   0.74990144  0.029898347 
number of iterations: 1438 
    2100    20.116088      162           62          100 5.6283537e-14 9.3600329e-15          0.1 0.0090010047   0.79246792  0.029898325 
number of iterations: 1441 
    2200    20.280275      162           62          100 5.7029418e-14 9.3838502e-15          0.1 0.0090010179   0.83557453  0.029898303 
number of iterations: 1453 
    2300    20.457947      164           64          100 5.7785184e-14 9.4090648e-15          0.1 0.0090010232   0.87922883  0.029898294 
number of iterations: 1446 
    2400    20.634079      164           64          100 5.8550966e-14 9.4356772e-15          0.1 0.0090010367   0.92343845  0.029898271 
number of iterations: 1446 
    2500    20.843648      164           64          100 5.9326896e-14 9.4636896e-15          0.1 0.0090010428   0.96821113  0.029898261 
number of iterations: 1452 
    2600    21.022823      165           64          101 6.0113108e-14 9.493104e-15          0.1 0.0090010566    1.0135547  0.029898238 
number of iterations: 1454 
    2700    21.203812      167           64          103 6.090974e-14 9.5239229e-15          0.1 0.0090010705     1.059477  0.029898214 
number of iterations: 1457 
    2800    21.408408      167           64          103 6.1716929e-14 9.5561504e-15          0.1 0.0090010846    1.1059861  0.029898191 
number of iterations: 1427 
    2900    21.591296      168           65          103 6.2534815e-14 9.5897899e-15          0.1 0.0090010956    1.1530901  0.029898172 
number of iterations: 1462 
    3000    21.805269      168           65          103 6.336354e-14 9.6248465e-15          0.1 0.0090011101    1.2007972  0.029898148 
number of iterations: 1465 
    3100    21.972656      168           65          103 6.4203247e-14 9.6613253e-15          0.1 0.0090011248    1.2491157  0.029898124 
number of iterations: 1468 
    3200    22.145025      168           65          103 6.5054082e-14 9.6992317e-15          0.1 0.0090011396    1.2980539  0.029898099 
number of iterations: 1471 
    3300     22.31802      169           65          104 6.5916192e-14 9.7385718e-15          0.1 0.0090011547    1.3476204  0.029898074 
number of iterations: 1498 
    3400    22.483154      171           66          105 6.6789728e-14 9.7793534e-15          0.1 0.0090011699    1.3978238  0.029898048 
number of iterations: 1473 
    3500    22.742953      174           67          107 6.7674839e-14  9.82158e-15          0.1 0.0090011821    1.4486727  0.029898028 
number of iterations: 1479 
    3600    22.914417      175           67          108 6.8571681e-14 9.8652612e-15          0.1 0.0090011977     1.500176  0.029898002 
number of iterations: 1485 
    3700    23.093032      177           68          109 6.9480407e-14 9.9104039e-15          0.1 0.0090012136    1.5523429  0.029897975 
number of iterations: 1483 
    3800    23.268626      179           69          110 7.0401176e-14 9.9570185e-15          0.1 0.0090012253     1.605182  0.029897956 
number of iterations: 1488 
    3900    23.467342      179           69          110 7.1334147e-14 1.0005114e-14          0.1 0.0090012415    1.6587027  0.029897929 
number of iterations: 1491 
    4000     23.67019      179           69          110 7.2279482e-14  1.00547e-14          0.1 0.0090012579    1.7129141  0.029897901 
number of iterations: 1493 
    4100    23.851811      179           69          110 7.3237345e-14 1.0105785e-14          0.1 0.0090012745    1.7678255  0.029897873 
number of iterations: 1496 
    4200    24.019801      179           69          110 7.4207902e-14 1.015838e-14          0.1 0.0090012913    1.8234466  0.029897845 
number of iterations: 1499 
    4300    24.185057      180           69          111 7.5191321e-14 1.0212496e-14          0.1 0.0090013084    1.8797868  0.029897817 
number of iterations: 1483 
    4400    24.366618      181           70          111 7.6187772e-14 1.0268145e-14          0.1 0.0090013257     1.936856  0.029897788 
number of iterations: 1499 
    4500    24.574888      185           73          112 7.7197428e-14 1.0325339e-14          0.1 0.0090013432    1.9946642  0.029897759 
number of iterations: 1506 
    4600    24.758644      187           75          112 7.8220465e-14 1.0384087e-14          0.1  0.009001361    2.0532209  0.029897729 
number of iterations: 1510 
    4700    24.925488      189           75          114 7.9257058e-14 1.0444404e-14          0.1  0.009001379    2.1125365  0.029897699 
number of iterations: 1573 
    4800    25.108669      191           77          114 8.030739e-14 1.0506304e-14          0.1 0.0090013995    2.1726211  0.029897664 
number of iterations: 1548 
    4900    25.284087      194           80          114 8.137164e-14  1.05698e-14          0.1 0.0090014164    2.2334851  0.029897636 
number of iterations: 1519 
    5000    25.479799      194           80          114 8.2449994e-14 1.0634907e-14          0.1 0.0090014351     2.295139  0.029897605 
number of iterations: 1597 
    5100    25.673362      197           83          114 8.3542638e-14 1.0701639e-14          0.1 0.0090014521    2.3575933  0.029897577 
number of iterations: 1520 
    5200    25.864361      199           85          114 8.4649763e-14 1.0770011e-14          0.1 0.0090014697    2.4208589  0.029897547 
number of iterations: 1527 
    5300    26.040798      200           85          115 8.5771559e-14 1.0840039e-14          0.1 0.0090014891    2.4849465  0.029897515 
number of iterations: 1535 
    5400    26.279336      201           86          115 8.6908222e-14 1.091174e-14          0.1 0.0090015111    2.5498671  0.029897478 
number of iterations: 1603 
    5500    26.456082      204           88          116 8.8059948e-14 1.098513e-14          0.1 0.0090015363    2.6156323  0.029897436 
number of iterations: 1543 
    5600    26.633964      208           91          117 8.9226936e-14 1.1060229e-14          0.1 0.0090015566    2.6822525  0.029897402 
number of iterations: 1555 
    5700    26.832796      212           95          117 9.040939e-14 1.1137051e-14          0.1 0.0090015787    2.7497401  0.029897365 
number of iterations: 1493 
    5800    27.023803      213           96          117 9.1607514e-14 1.1215618e-14          0.1 0.0090015984    2.8181063  0.029897332 
number of iterations: 1700 
    5900    27.216385      214           97          117 9.2821516e-14 1.1295947e-14          0.1  0.009001623    2.8873627  0.029897291 
number of iterations: 1548 
    6000    27.409217      215           97          118 9.4051606e-14 1.1378058e-14          0.1 0.0090016444    2.9575212  0.029897255 
number of iterations: 1551 
    6100     27.61729      219           98          121 9.5297997e-14 1.1461968e-14          0.1 0.0090016612    3.0285939  0.029897227 
number of iterations: 1553 
    6200    27.837121      219           98          121 9.6560906e-14 1.1547701e-14          0.1 0.0090016832     3.100593   0.02989719 
number of iterations: 1556 
    6300    28.028847      220           98          122 9.7840551e-14 1.1635277e-14          0.1 0.0090017055    3.1735308  0.029897153 
number of iterations: 1667 
    6400    28.228266      222          100          122 9.9137154e-14 1.1724717e-14          0.1 0.0090017328    3.2474193  0.029897108 
number of iterations: 1562 
    6500    28.417453      223          100          123 1.0045094e-13 1.1816046e-14          0.1 0.0090017557     3.322272  0.029897069 
number of iterations: 1565 
    6600    28.620522      223          100          123 1.0178214e-13 1.1909283e-14          0.1 0.0090017789    3.3981014   0.02989703 
number of iterations: 1622 
    6700    28.814778      225          102          123 1.0313097e-13 1.2004454e-14          0.1 0.0090017993    3.4749205  0.029896996 
number of iterations: 1571 
    6800    29.040117      227          102          125 1.0449769e-13 1.2101582e-14          0.1 0.0090018231    3.5527423  0.029896957 
number of iterations: 1608 
    6900    29.221036      231          104          127 1.0588251e-13 1.2200688e-14          0.1  0.009001852    3.6315803  0.029896908 
number of iterations: 1604 
    7000     29.47616      233          105          128 1.0728569e-13 1.2301799e-14          0.1 0.0090018765    3.7114478  0.029896867 
number of iterations: 1579 
    7100    29.753555      234          105          129 1.0870746e-13 1.2404941e-14          0.1 0.0090019013    3.7923586  0.029896826 
number of iterations: 1582 
    7200    29.954649      237          106          131 1.1014807e-13 1.2510138e-14          0.1 0.0090019248    3.8743265  0.029896787 
number of iterations: 1629 
    7300    30.148422      243          108          135 1.1160778e-13 1.2617416e-14          0.1 0.0090019549    3.9573655  0.029896736 
number of iterations: 1537 
    7400    30.330102      245          110          135 1.1308683e-13 1.2726805e-14          0.1 0.0090019774    4.0414898  0.029896699 
number of iterations: 1591 
    7500    30.513146      249          113          136 1.1458548e-13 1.2838332e-14          0.1 0.0090020035    4.1267137  0.029896655 
number of iterations: 1592 
    7600    30.684694      251          114          137 1.1610399e-13 1.2952027e-14          0.1 0.0090020301    4.2130519  0.029896611 
number of iterations: 1594 
    7700    30.861223      253          114          139 1.1764262e-13 1.3067915e-14          0.1 0.0090020569    4.3005191  0.029896566 
number of iterations: 1573 
    7800     31.03263      257          117          140 1.1920164e-13 1.3186029e-14          0.1 0.0090020805    4.3891301  0.029896527 
number of iterations: 1689 
    7900    31.223097      259          117          142 1.2078133e-13 1.3306399e-14          0.1 0.0090021119    4.4789002  0.029896474 
number of iterations: 1619 
    8000    31.419483      263          121          142 1.2238195e-13 1.3429053e-14          0.1 0.0090021363    4.5698449  0.029896433 
number of iterations: 1569 
    8100    31.610723      266          123          143 1.2400378e-13 1.3554026e-14          0.1 0.0090021613    4.6619795  0.029896391 
number of iterations: 1642 
    8200     31.82108      274          126          148 1.256471e-13 1.3681348e-14          0.1 0.0090021917    4.7553199  0.029896341 
number of iterations: 1609 
    8300    31.999773      279          128          151 1.273122e-13 1.3811054e-14          0.1 0.0090022174    4.8498822  0.029896298 
number of iterations: 1611 
    8400     32.18119      281          128          153 1.2899937e-13 1.3943177e-14          0.1 0.0090022467    4.9456823  0.029896249 
number of iterations: 1614 
    8500    32.371384      286          132          154 1.3070889e-13 1.4077749e-14          0.1 0.0090022711    5.0427363  0.029896208 
number of iterations: 1615 
    8600    32.555776      288          133          155 1.3244107e-13 1.4214806e-14          0.1 0.0090023012    5.1410608  0.029896158 
number of iterations: 1613 
    8700    32.799858      291          135          156 1.3419621e-13 1.4354385e-14          0.1 0.0090023267    5.2406727  0.029896115 
number of iterations: 1605 
    8800    33.017954      296          138          158 1.3597461e-13 1.4496522e-14          0.1 0.0090023575    5.3415889  0.029896063 
number of iterations: 1614 
    8900     33.21373      297          139          158 1.3777657e-13 1.4641255e-14          0.1 0.0090023887    5.4438266  0.029896011 
number of iterations: 1694 
    9000    33.419782      303          141          162 1.3960241e-13 1.478862e-14          0.1  0.009002422    5.5474033  0.029895956 
number of iterations: 1627 
    9100    33.629003      308          145          163 1.4145245e-13 1.4938652e-14          0.1  0.009002454     5.652336  0.029895902 
number of iterations: 1629 
    9200    33.816505      310          146          164 1.4332701e-13 1.5091397e-14          0.1  0.009002478    5.7586434  0.029895862 
number of iterations: 1669 
    9300    34.012496      312          148          164 1.452264e-13 1.5246894e-14          0.1 0.0090025145    5.8663432  0.029895801 
number of iterations: 1636 
    9400    34.201431      316          150          166 1.4715097e-13 1.5405184e-14          0.1 0.0090025478    5.9754539  0.029895745 
number of iterations: 1591 
    9500    34.429908      319          150          169 1.4910105e-13 1.5566307e-14          0.1  0.009002575    6.0859938    0.0298957 
number of iterations: 1749 
    9600    34.618281      322          152          170 1.5107696e-13 1.5730304e-14          0.1 0.0090026135     6.197982  0.029895636 
number of iterations: 1647 
    9700     34.80656      323          152          171 1.5307906e-13 1.589722e-14          0.1 0.0090026481    6.3114376  0.029895578 
number of iterations: 1650 
    9800    35.009187      323          152          171 1.551077e-13 1.6067098e-14          0.1 0.0090026831    6.4263799  0.029895519 
number of iterations: 1653 
    9900    35.207314      328          155          173 1.5716322e-13 1.6239982e-14          0.1 0.0090027111    6.5428283  0.029895472 
number of iterations: 1603 
   10000    35.374109      335          159          176 1.5924597e-13 1.6415918e-14          0.1 0.0090027405    6.6608027  0.029895423 
number of iterations: 1690 
   10100     35.57427      336          160          176 1.6135633e-13 1.6594957e-14          0.1 0.0090027803    6.7803237  0.029895357 
number of iterations: 1719 
   10200    35.774183      339          161          178 1.6349466e-13 1.6777141e-14          0.1 0.0090028217    6.9014111  0.029895288 
number of iterations: 1700 
   10300    35.961906      345          164          181 1.6566132e-13 1.6962521e-14          0.1 0.0090028662    7.0240852  0.029895213 
number of iterations: 1620 
   10400    36.172252      349          166          183 1.678567e-13 1.7151145e-14          0.1 0.0090028989     7.148367  0.029895159 
number of iterations: 1673 
   10500    36.346916      354          169          185 1.7008117e-13 1.7343062e-14          0.1 0.0090029387    7.2742778  0.029895092 
number of iterations: 1679 
   10600    36.569274      357          170          187 1.7233512e-13 1.7538324e-14          0.1 0.0090029776    7.4018389  0.029895027 
number of iterations: 1660 
   10700    36.770289      362          173          189 1.7461893e-13 1.7736982e-14          0.1 0.0090030134    7.5310722  0.029894967 
number of iterations: 1674 
   10800    36.970223      363          173          190 1.7693302e-13 1.7939091e-14          0.1 0.0090030533    7.6619995  0.029894901 
number of iterations: 1677 
   10900    37.164224      367          173          194 1.7927777e-13 1.8144704e-14          0.1 0.0090030936    7.7946431  0.029894833 
number of iterations: 1685 
   11000    37.363263      369          174          195 1.8165359e-13 1.8353876e-14          0.1 0.0090031392    7.9290255  0.029894757 
number of iterations: 1680 
   11100    37.582894      375          176          199 1.840609e-13 1.8566663e-14          0.1 0.0090031807    8.0651695  0.029894687 
number of iterations: 1719 
   11200     37.82355      378          178          200 1.8650011e-13 1.8783122e-14          0.1 0.0090032273    8.2030984   0.02989461 
number of iterations: 1737 
   11300    38.020866      382          180          202 1.8897165e-13 1.900331e-14          0.1 0.0090032775    8.3428357  0.029894526 
number of iterations: 1752 
   11400    38.231339      386          183          203 1.9147593e-13 1.9227288e-14          0.1  0.009003325     8.484405  0.029894446 
number of iterations: 1702 
   11500    38.412419      394          188          206 1.9401341e-13 1.9455113e-14          0.1 0.0090033736    8.6278301  0.029894365 
number of iterations: 1698 
   11600    38.612665      400          190          210 1.9658451e-13 1.9686847e-14          0.1 0.0090034182    8.7731354  0.029894291 
number of iterations: 1676 
   11700    38.804643      405          194          211 1.9918969e-13 1.9922555e-14          0.1 0.0090034569    8.9203458  0.029894226 
number of iterations: 1739 
   11800     38.98113      411          198          213 2.0182939e-13 2.0162302e-14          0.1 0.0090035013    9.0694857  0.029894152 
number of iterations: 1740 
   11900    39.161257      419          204          215 2.0450407e-13 2.0406147e-14          0.1 0.0090035444    9.2205812   0.02989408 
number of iterations: 1709 
   12000    39.393212      423          206          217 2.0721419e-13 2.0654157e-14          0.1 0.0090035866    9.3736574  0.029894009 
number of iterations: 1749 
   12100    39.622805      429          209          220 2.0996024e-13 2.0906399e-14          0.1 0.0090036385    9.5287407  0.029893922 
number of iterations: 1706 
   12200    39.829819      432          211          221 2.1274267e-13 2.1162942e-14          0.1 0.0090036867    9.6858567  0.029893842 
number of iterations: 1732 
   12300    40.025731      438          216          222 2.1556197e-13 2.1423852e-14          0.1 0.0090037345    9.8450324  0.029893762 
number of iterations: 1715 
   12400    40.246424      443          217          226 2.1841864e-13 2.1689203e-14          0.1 0.0090037765    10.006295  0.029893692 
number of iterations: 1723 
   12500     40.43817      446          217          229 2.2131317e-13 2.1959065e-14          0.1 0.0090038265    10.169671  0.029893608 
number of iterations: 1699 
   12600    40.635122      454          221          233 2.2424605e-13 2.2233514e-14          0.1 0.0090038691    10.335189  0.029893537 
number of iterations: 1704 
   12700    40.850953      460          224          236 2.272178e-13 2.2512622e-14          0.1 0.0090039175    10.502878  0.029893456 
number of iterations: 1730 
   12800    41.051718      471          229          242 2.3022893e-13 2.2796464e-14          0.1 0.0090039707    10.672764  0.029893367 
number of iterations: 1699 
   12900    41.225321      474          230          244 2.3327997e-13 2.3085118e-14          0.1 0.0090040216    10.844878  0.029893282 
number of iterations: 1772 
   13000    41.434348      484          233          251 2.3637144e-13 2.3378661e-14          0.1 0.0090040814    11.019247  0.029893182 
number of iterations: 1758 
   13100    41.681099      487          235          252 2.3950387e-13 2.3677174e-14          0.1 0.0090041368    11.195903  0.029893089 
number of iterations: 1737 
   13200     41.86623      492          238          254 2.4267782e-13 2.3980737e-14          0.1 0.0090041916    11.374874  0.029892998 
number of iterations: 1731 
   13300    42.065365      499          239          260 2.4589383e-13 2.4289433e-14          0.1  0.009004247    11.556191  0.029892905 
number of iterations: 1752 
   13400    42.247421      504          241          263 2.4915246e-13 2.4603348e-14          0.1 0.0090042988    11.739885  0.029892818 
number of iterations: 1835 
   13500     42.44347      516          249          267 2.5245428e-13 2.4922562e-14          0.1 0.0090043641    11.925987  0.029892709 
number of iterations: 1765 
   13600     42.63893      522          252          270 2.5579985e-13 2.5247166e-14          0.1 0.0090044243    12.114528  0.029892608 
number of iterations: 1824 
   13700    42.884118      535          257          278 2.5918975e-13 2.5577246e-14          0.1 0.0090044852     12.30554  0.029892507 
number of iterations: 1800 
   13800    43.094124      543          262          281 2.6262458e-13 2.5912889e-14          0.1 0.0090045427    12.499055  0.029892411 
number of iterations: 1768 
   13900    43.289013      546          263          283 2.6610493e-13 2.625419e-14          0.1 0.0090046028    12.695107   0.02989231 
number of iterations: 1763 
   14000    43.530161      551          266          285 2.696314e-13 2.6601244e-14          0.1 0.0090046563    12.893729  0.029892221 
number of iterations: 1761 
   14100    43.739403      562          273          289 2.732046e-13 2.6954144e-14          0.1 0.0090047179    13.094953  0.029892118 
number of iterations: 1796 
   14200     43.95337      568          276          292 2.7682516e-13 2.7312989e-14          0.1 0.0090047806    13.298815  0.029892013 
number of iterations: 1740 
   14300    44.155448      572          277          295 2.8049369e-13 2.767788e-14          0.1 0.0090048403    13.505348  0.029891913 
number of iterations: 1789 
   14400    44.367561      580          281          299 2.8421085e-13 2.8048913e-14          0.1 0.0090049018    13.714587   0.02989181 
number of iterations: 1735 
   14500    44.564192      586          283          303 2.8797726e-13 2.8426187e-14          0.1 0.0090049617    13.926568   0.02989171 
number of iterations: 1817 
   14600    44.756696      596          289          307 2.9179358e-13 2.8809807e-14          0.1 0.0090050408    14.141325  0.029891578 
number of iterations: 1910 
   14700    44.954754      604          295          309 2.9566048e-13 2.919988e-14          0.1 0.0090051193    14.358898  0.029891446 
number of iterations: 1786 
   14800    45.144983      610          297          313 2.9957863e-13 2.9596511e-14          0.1  0.009005183    14.579322   0.02989134 
number of iterations: 1846 
   14900     45.33865      617          302          315 3.035487e-13 2.9999811e-14          0.1 0.0090052624    14.802633  0.029891207 
number of iterations: 1798 
   15000    45.591701      623          304          319 3.0757138e-13 3.040989e-14          0.1 0.0090053354     15.02887  0.029891085 
number of iterations: 1750 
   15100    45.791965      637          313          324 3.1164737e-13 3.0826859e-14          0.1 0.0090053962    15.258072  0.029890983 
number of iterations: 1833 
   15200    45.990684      644          314          330 3.1577737e-13 3.1250834e-14          0.1 0.0090054729    15.490274  0.029890855 
number of iterations: 1804 
   15300    46.228934      651          316          335 3.1996211e-13 3.1681932e-14          0.1 0.0090055453    15.725519  0.029890734 
number of iterations: 1795 
   15400    46.428311      662          322          340 3.242023e-13 3.2120272e-14          0.1 0.0090056092    15.963846  0.029890627 
number of iterations: 1777 
   15500    46.635892      669          324          345 3.2849868e-13 3.2565972e-14          0.1 0.0090056747    16.205294  0.029890518 
number of iterations: 1819 
   15600    46.845497      677          326          351  3.32852e-13 3.3019157e-14          0.1 0.0090057498    16.449905  0.029890392 
number of iterations: 1824 
   15700    47.040831      689          334          355 3.3726301e-13 3.3479951e-14          0.1 0.0090058211     16.69772  0.029890273 
number of iterations: 1832 
   15800     47.25503      692          335          357 3.4173248e-13 3.394848e-14          0.1 0.0090058976    16.948781  0.029890145 
number of iterations: 1839 
   15900    47.465988      705          342          363 3.4626118e-13 3.4424875e-14          0.1 0.0090059698    17.203129  0.029890024 
number of iterations: 1912 
   16000    47.708055      713          346          367 3.5084989e-13 3.490927e-14          0.1 0.0090060499    17.460809   0.02988989 
number of iterations: 1841 
   16100    47.997958      725          352          373 3.5549941e-13 3.5401797e-14          0.1 0.0090061158    17.721862   0.02988978 
number of iterations: 1843 
   16200    48.188734      731          355          376 3.6021055e-13 3.5902593e-14          0.1 0.0090062002    17.986334  0.029889639 
number of iterations: 1855 
   16300    48.403616      742          359          383 3.6498412e-13 3.6411796e-14          0.1 0.0090062917    18.254268  0.029889486 
number of iterations: 1783 
   16400    48.606811      758          368          390 3.6982095e-13 3.6929545e-14          0.1 0.0090063673    18.525711  0.029889359 
number of iterations: 1854 
   16500    48.803272      768          372          396 3.7472188e-13 3.7455984e-14          0.1 0.0090064509    18.800707   0.02988922 
number of iterations: 1828 
   16600     48.99097      780          376          404 3.7968775e-13 3.7991258e-14          0.1 0.0090065335    19.079303  0.029889081 
number of iterations: 1816 
   16700    49.183364      786          379          407 3.8471944e-13 3.8535516e-14          0.1 0.0090066113    19.361546  0.029888951 
number of iterations: 1896 
   16800    49.432952      794          382          412 3.898178e-13 3.9088908e-14          0.1 0.0090067098    19.647484  0.029888787 
number of iterations: 1877 
   16900     49.65351      810          390          420 3.9498373e-13 3.9651587e-14          0.1 0.0090067913    19.937165   0.02988865 
number of iterations: 1864 
   17000    49.872417      822          395          427 4.0021812e-13 4.0223711e-14          0.1   0.00900688    20.230637  0.029888502 
number of iterations: 1909 
   17100    50.082179      832          401          431 4.0552188e-13 4.0805437e-14          0.1 0.0090069729     20.52795  0.029888346 
number of iterations: 1864 
   17200    50.284076      837          403          434 4.1089592e-13 4.1396928e-14          0.1 0.0090070712    20.829154  0.029888182 
number of iterations: 1847 
   17300    50.491474      845          405          440 4.1634118e-13 4.1998347e-14          0.1 0.0090071685    21.134301  0.029888019 
number of iterations: 1860 
   17400    50.700613      858          412          446 4.2185859e-13 4.2609861e-14          0.1 0.0090072516    21.443441   0.02988788 
number of iterations: 1899 
   17500    50.909084      873          417          456 4.2744913e-13 4.323164e-14          0.1 0.0090073417    21.756625  0.029887729 
number of iterations: 1914 
   17600    51.130779      884          424          460 4.3311376e-13 4.3863857e-14          0.1 0.0090074448    22.073908  0.029887557 
number of iterations: 1935 
   17700    51.381058      895          429          466 4.3885345e-13 4.450669e-14          0.1 0.0090075501    22.395342  0.029887381 
number of iterations: 1909 
   17800    51.573594      912          437          475 4.446692e-13 4.5160315e-14          0.1 0.0090076577    22.720982  0.029887201 
number of iterations: 1842 
   17900    51.805101      922          441          481 4.5056203e-13 4.5824915e-14          0.1 0.0090077588    23.050881  0.029887032 
number of iterations: 1867 
   18000    52.034901      935          445          490 4.5653295e-13 4.6500676e-14          0.1 0.0090078615    23.385097   0.02988686 
number of iterations: 1896 
   18100    52.279451      950          453          497 4.6258299e-13 4.7187787e-14          0.1 0.0090079676    23.723685  0.029886682 
number of iterations: 1895 
   18200     52.48042      968          456          512 4.6871321e-13 4.7886438e-14          0.1 0.0090080635    24.066702  0.029886522 
number of iterations: 1907 
   18300    52.687753      983          463          520 4.7492467e-13 4.8596825e-14          0.1 0.0090081761    24.414205  0.029886333 
number of iterations: 1980 
   18400    53.008162      999          473          526 4.8121844e-13 4.9319145e-14          0.1 0.0090083005    24.766253  0.029886126 
number of iterations: 1914 
   18500     53.20901     1020          484          536 4.8759562e-13 5.0053598e-14          0.1 0.0090084102    25.122905  0.029885942 
number of iterations: 1882 
   18600    53.414104     1037          494          543 4.9405731e-13 5.0800391e-14          0.1 0.0090085066    25.484222   0.02988578 
number of iterations: 1903 
   18700     53.61656     1049          498          551 5.0060463e-13 5.1559734e-14          0.1 0.0090086223    25.850263  0.029885587 
number of iterations: 1907 
   18800    53.837851     1060          505          555 5.0723872e-13 5.2331839e-14          0.1 0.0090087315    26.221091  0.029885404 
number of iterations: 1883 
   18900    54.066135     1083          515          568 5.1396072e-13 5.311692e-14          0.1 0.0090088392    26.596767  0.029885224 
number of iterations: 1914 
   19000    54.282249     1096          522          574 5.2077181e-13 5.3915196e-14          0.1 0.0090089478    26.977355  0.029885042 
number of iterations: 1952 
   19100    54.498105     1111          531          580 5.2767315e-13 5.4726891e-14          0.1 0.0090090816    27.362918  0.029884818 
number of iterations: 1889 
   19200    54.718965     1132          536          596 5.3466595e-13 5.5552234e-14          0.1 0.0090091931    27.753522  0.029884632 
number of iterations: 1917 
   19300    54.924552     1143          542          601 5.4175142e-13 5.6391453e-14          0.1 0.0090093169    28.149231  0.029884425 
number of iterations: 1895 
   19400    55.125387     1157          547          610 5.4893079e-13 5.7244786e-14          0.1  0.009009434    28.550114  0.029884229 
number of iterations: 1935 
   19500    55.324935     1169          552          617 5.562053e-13 5.8112471e-14          0.1 0.0090095737    28.956238  0.029883995 
number of iterations: 1923 
   19600    55.516335     1185          559          626 5.6357621e-13 5.8994755e-14          0.1 0.0090096958    29.367669  0.029883791 
number of iterations: 1930 
   19700    55.717009     1201          565          636 5.710448e-13 5.9891883e-14          0.1  0.009009811    29.784476  0.029883598 
number of iterations: 1941 
   19800    55.961642     1221          574          647 5.7861237e-13 6.0804105e-14          0.1 0.0090099413    30.206731   0.02988338 
number of iterations: 1949 
   19900    56.210022     1234          578          656 5.8628022e-13 6.1731677e-14          0.1 0.0090100825    30.634503  0.029883143 
number of iterations: 1918 
   20000     56.46137     1253          586          667 5.9404968e-13 6.2674858e-14          0.1 0.0090102051    31.067865  0.029882938 
number of iterations: 1931 
   20100    56.692314     1270          593          677 6.0192211e-13 6.3633912e-14          0.1 0.0090103343    31.506889  0.029882722 
number of iterations: 1942 
   20200    56.898915     1286          599          687 6.0989887e-13 6.4609113e-14          0.1 0.0090104635    31.951649  0.029882505 
number of iterations: 1953 
   20300    57.107978     1305          611          694 6.1798133e-13 6.5600733e-14          0.1 0.0090105834     32.40222  0.029882305 
number of iterations: 1943 
   20400     57.33422     1322          619          703 6.261709e-13 6.6609051e-14          0.1 0.0090107331    32.858675  0.029882054 
number of iterations: 1934 
   20500    57.575185     1342          629          713  6.34469e-13 6.7634351e-14          0.1 0.0090108443    33.321094  0.029881868 
number of iterations: 1960 
   20600    57.768928     1357          635          722 6.4287707e-13 6.8676923e-14          0.1 0.0090109891    33.789553  0.029881625 
number of iterations: 1947 
   20700    57.994536     1376          641          735 6.5139656e-13 6.9737059e-14          0.1 0.0090111229    34.264129  0.029881401 
number of iterations: 1949 
   20800     58.21512     1388          646          742 6.6002895e-13 7.0815057e-14          0.1 0.0090112698    34.744904  0.029881156 
number of iterations: 1972 
   20900    58.442991     1414          655          759 6.6877574e-13 7.1911221e-14          0.1 0.0090114162    35.231957   0.02988091 
number of iterations: 1959 
   21000    58.687956     1431          663          768 6.7763844e-13 7.3025861e-14          0.1 0.0090115715    35.725367   0.02988065 
number of iterations: 1962 
   21100    58.925211     1460          674          786 6.8661859e-13 7.4159289e-14          0.1 0.0090117163    36.225221  0.029880408 
number of iterations: 1937 
   21200    59.136339     1478          682          796 6.9571775e-13 7.5311823e-14          0.1 0.0090118552      36.7316  0.029880175 
number of iterations: 1997 
   21300    59.405552     1496          690          806 7.0493749e-13 7.648379e-14          0.1 0.0090120293    37.244591  0.029879884 
number of iterations: 1932 
   21400    59.617534     1525          701          824 7.142794e-13 7.7675516e-14          0.1 0.0090121769    37.764279  0.029879637 
number of iterations: 1986 
   21500    59.824857     1552          717          835 7.2374512e-13 7.8887339e-14          0.1 0.0090123268    38.290751  0.029879386 
number of iterations: 1976 
   21600    60.069782     1575          727          848 7.3333628e-13 8.0119602e-14          0.1 0.0090124849    38.824094  0.029879121 
number of iterations: 1988 
   21700    60.282084     1592          735          857 7.4305454e-13 8.1372656e-14          0.1 0.0090126543    39.364399  0.029878837 
number of iterations: 1998 
   21800    60.493184     1613          744          869 7.5290159e-13 8.2646853e-14          0.1 0.0090128215    39.911754  0.029878558 
number of iterations: 2053 
   21900    60.735985     1632          750          882 7.6287913e-13 8.3942555e-14          0.1 0.0090129905    40.466251  0.029878275 
number of iterations: 2021 
   22000    60.951954     1652          758          894 7.729889e-13 8.5260128e-14          0.1 0.0090131671    41.027983  0.029877979 
number of iterations: 2000 
   22100    61.193882     1684          772          912 7.8323263e-13 8.6599941e-14          0.1 0.0090133434    41.597044  0.029877684 
number of iterations: 2003 
   22200    61.439848     1710          783          927 7.9361212e-13 8.7962375e-14          0.1 0.0090135092     42.17353  0.029877406 
number of iterations: 2001 
   22300    61.677948     1737          792          945 8.0412916e-13 8.9347812e-14          0.1 0.0090136925    42.757537  0.029877099 
number of iterations: 1983 
   22400    61.897716     1765          804          961 8.1478557e-13 9.0756646e-14          0.1 0.0090138668    43.349162  0.029876807 
number of iterations: 2013 
   22500    62.137322     1797          820          977 8.255832e-13 9.2189277e-14          0.1 0.0090140573    43.948506  0.029876488 
number of iterations: 2006 
   22600    62.353485     1827          834          993 8.3652391e-13 9.3646109e-14          0.1 0.0090142443    44.555665  0.029876175 
number of iterations: 2005 
   22700    62.582542     1857          843         1014 8.4760962e-13 9.5127557e-14          0.1 0.0090144348    45.170742  0.029875856 
number of iterations: 2011 
   22800    62.795296     1875          850         1025 8.5884223e-13 9.663404e-14          0.1 0.0090146246    45.793841  0.029875538 
number of iterations: 2002 
   22900    63.001209     1899          860         1039 8.702237e-13 9.8165983e-14          0.1  0.009014808    46.425063  0.029875231 
number of iterations: 2044 
   23000    63.221335     1926          869         1057  8.81756e-13 9.972382e-14          0.1 0.0090150112    47.064517  0.029874891 
number of iterations: 2024 
   23100    63.454113     1962          884         1078 8.9344112e-13 1.0130799e-13          0.1 0.0090152065    47.712307  0.029874564 
number of iterations: 2051 
   23200    63.687248     2000          898         1102 9.0528109e-13 1.0291895e-13          0.1 0.0090154084    48.368542  0.029874226 
number of iterations: 2007 
   23300    63.911078     2032          908         1124 9.1727797e-13 1.0455714e-13          0.1  0.009015585    49.033332  0.029873929 
number of iterations: 2053 
   23400    64.163387     2055          915         1140 9.2943382e-13 1.0622305e-13          0.1 0.0090157931    49.706788  0.029873581 
number of iterations: 2027 
   23500    64.386139     2081          931         1150 9.4175077e-13 1.0791713e-13          0.1 0.0090160049     50.38902  0.029873226 
number of iterations: 2032 
   23600    64.613998     2107          942         1165 9.5423094e-13 1.0963988e-13          0.1 0.0090162186    51.080143  0.029872868 
number of iterations: 2040 
   23700     64.84063     2135          956         1179 9.668765e-13 1.1139177e-13          0.1 0.0090164602    51.780273  0.029872464 
number of iterations: 2039 
   23800    65.081552     2160          973         1187 9.7968964e-13 1.131733e-13          0.1 0.0090166815    52.489527  0.029872093 
number of iterations: 2053 
   23900    65.303606     2190          981         1209 9.9267258e-13 1.1498499e-13          0.1 0.0090169087    53.208023  0.029871713 
number of iterations: 2032 
   24000    65.521108     2226          994         1232 1.0058276e-12 1.1682734e-13          0.1 0.0090171241     53.93588  0.029871352 
number of iterations: 2064 
   24100    65.754425     2253         1003         1250 1.0191569e-12 1.1870088e-13          0.1 0.0090173665    54.673219  0.029870946 
number of iterations: 2070 
   24200    66.015369     2293         1019         1274 1.0326628e-12 1.2060614e-13          0.1 0.0090175885    55.420164  0.029870574 
number of iterations: 2042 
   24300    66.374727     2328         1030         1298 1.0463478e-12 1.2254365e-13          0.1 0.0090178129    56.176838  0.029870198 
number of iterations: 2079 
   24400    66.614056     2360         1044         1316 1.0602141e-12 1.2451399e-13          0.1 0.0090180644    56.943367  0.029869777 
number of iterations: 2097 
   24500    66.835912     2390         1057         1333 1.0742641e-12 1.2651769e-13          0.1 0.0090183056     57.71988  0.029869373 
number of iterations: 2094 
   24600    67.067276     2436         1076         1360 1.0885003e-12 1.2855534e-13          0.1 0.0090185325    58.506505  0.029868993 
number of iterations: 2050 
   24700    67.299276     2481         1093         1388 1.1029252e-12 1.3062751e-13          0.1 0.0090187802    59.303373  0.029868578 
number of iterations: 2081 
   24800    67.553806     2505         1103         1402 1.1175413e-12 1.3273479e-13          0.1 0.0090190124    60.110615  0.029868188 
number of iterations: 2071 
   24900    67.784506     2545         1118         1427 1.132351e-12 1.3487778e-13          0.1 0.0090192585    60.928367  0.029867776 
number of iterations: 2089 
   25000    68.044418     2585         1136         1449 1.147357e-12 1.3705709e-13          0.1 0.0090195211    61.756764  0.029867336 
number of iterations: 2087 
   25100    68.296876     2621         1147         1474 1.1625619e-12 1.3927335e-13          0.1 0.0090197806    62.595944  0.029866901 
number of iterations: 2103 
   25200    68.534089     2671         1168         1503 1.1779683e-12 1.4152717e-13          0.1 0.0090200318    63.446047  0.029866481 
number of iterations: 2094 
   25300    68.773597     2709         1183         1526 1.1935788e-12 1.4381921e-13          0.1 0.0090202877    64.307213  0.029866052 
number of iterations: 2083 
   25400    68.995834     2748         1203         1545 1.2093962e-12 1.4615011e-13          0.1 0.0090205586    65.179586  0.029865598 
number of iterations: 2078 
   25500    69.216946     2785         1214         1571 1.2254232e-12 1.4852054e-13          0.1 0.0090208303    66.063311  0.029865142 
number of iterations: 2056 
   25600     69.48001     2820         1227         1593 1.2416625e-12 1.5093118e-13          0.1 0.0090210958    66.958533  0.029864697 
number of iterations: 2100 
   25700    69.718949     2869         1246         1623 1.2581171e-12 1.5338271e-13          0.1 0.0090213661    67.865404  0.029864244 
number of iterations: 2085 
   25800    69.952546     2914         1264         1650 1.2747898e-12 1.5587584e-13          0.1 0.0090216485    68.784072  0.029863771 
number of iterations: 2103 
   25900    70.219196     2951         1276         1675 1.2916834e-12 1.5841127e-13          0.1 0.0090219284     69.71469  0.029863302 
number of iterations: 2109 
   26000    70.449448     2990         1290         1700 1.3088008e-12 1.6098973e-13          0.1 0.0090222074    70.657413  0.029862834 
number of iterations: 2120 
   26100    70.692496     3047         1311         1736 1.3261451e-12 1.6361194e-13          0.1 0.0090225175    71.612396  0.029862315 
number of iterations: 2086 
   26200    70.943148     3093         1332         1761 1.342812e-12 1.6627866e-13          0.1 0.0090227838    72.579108  0.029861868 
number of iterations: 2111 
   26300     71.18754     3125         1346         1779 1.360607e-12 1.6899065e-13          0.1 0.0090230797     73.55839  0.029861372 
number of iterations: 2138 
   26400     71.45133     3175         1369         1806 1.3786378e-12 1.7174868e-13          0.1 0.0090233976    74.550407  0.029860839 
number of iterations: 2105 
   26500    71.698115     3222         1384         1838 1.3969076e-12 1.7455354e-13          0.1 0.0090236913    75.555322  0.029860347 
number of iterations: 2099 
   26600    71.935922     3272         1400         1872 1.4154195e-12 1.7740603e-13          0.1 0.0090239962    76.573303  0.029859836 
number of iterations: 2140 
   26700    72.198496     3323         1420         1903 1.4341767e-12 1.8030697e-13          0.1 0.0090243254    77.604516  0.029859284 
number of iterations: 2122 
   26800     72.46012     3382         1443         1939 1.4531825e-12 1.8325718e-13          0.1   0.00902463    78.649132  0.029858773 
number of iterations: 2128 
   26900    72.702453     3417         1454         1963 1.4724401e-12 1.862575e-13          0.1 0.0090249544    79.707328  0.029858229 
number of iterations: 2135 
   27000    72.957499     3472         1471         2001 1.491953e-12 1.893088e-13          0.1 0.0090253136    80.779277  0.029857627 
number of iterations: 2148 
   27100    73.217929     3528         1493         2035 1.5117244e-12 1.9241195e-13          0.1  0.009025655    81.865155  0.029857055 
number of iterations: 2120 
   27200    73.466666     3582         1508         2074 1.5317578e-12 1.9556782e-13          0.1 0.0090259672    82.965143  0.029856532 
number of iterations: 2185 
   27300    73.713671     3641         1530         2111 1.5520567e-12 1.9877733e-13          0.1  0.009026312    84.079421  0.029855953 
number of iterations: 2142 
   27400     73.98831     3692         1553         2139 1.5726246e-12 2.0193782e-13          0.1 0.0090266399    85.208217  0.029855404 
number of iterations: 2164 
   27500    74.247176     3744         1570         2174 1.5934651e-12 2.0525566e-13          0.1 0.0090270088    86.351672  0.029854786 
number of iterations: 2138 
   27600    74.479315     3789         1585         2204 1.6145817e-12 2.0862991e-13          0.1 0.0090273456     87.50998  0.029854221 
number of iterations: 2156 
   27700    74.716085     3842         1599         2243 1.6359782e-12 2.1206152e-13          0.1 0.0090277134    88.683332  0.029853604 
number of iterations: 2173 
   27800     74.95846     3902         1629         2273 1.6576582e-12 2.1555148e-13          0.1 0.0090280947    89.871923  0.029852965 
number of iterations: 2156 
   27900    75.191933     3970         1655         2315 1.6796256e-12 2.191008e-13          0.1 0.0090284475     91.07595  0.029852373 
number of iterations: 2156 
   28000    75.424535     4038         1681         2357 1.701884e-12 2.2271048e-13          0.1 0.0090288048    92.295607  0.029851774 
number of iterations: 2192 
   28100     75.67728     4104         1704         2400 1.7244374e-12 2.2626023e-13          0.1 0.0090291699    93.531147  0.029851162 
number of iterations: 2166 
   28200    75.945401     4169         1728         2441 1.7462439e-12 2.2999176e-13          0.1 0.0090295418    94.781926  0.029850538 
number of iterations: 2183 
   28300    76.266978     4239         1753         2486 1.7693852e-12 2.3378677e-13          0.1 0.0090299455    96.048943  0.029849861 
number of iterations: 2174 
   28400    76.532072     4306         1773         2533 1.7928331e-12 2.3764635e-13          0.1 0.0090303336    97.332405  0.029849211 
number of iterations: 2181 
   28500    76.778267     4362         1797         2565 1.8151479e-12 2.415716e-13          0.1 0.0090307005    98.631418  0.029848595 
number of iterations: 2189 
   28600     77.04996     4415         1818         2597 1.8392022e-12 2.4556365e-13          0.1 0.0090311021    99.947289  0.029847921 
number of iterations: 2183 
   28700    77.315192     4487         1849         2638 1.8635754e-12 2.4962365e-13          0.1 0.0090315027    101.28023   0.02984725 
number of iterations: 2193 
   28800    77.560236     4562         1875         2687 1.8882715e-12 2.5375274e-13          0.1 0.0090319171    102.63047  0.029846555 
number of iterations: 2168 
   28900    77.915846     4622         1891         2731 1.9132948e-12 2.5795212e-13          0.1  0.009032331    103.99822  0.029845861 
number of iterations: 2221 
   29000    78.224055     4691         1915         2776 1.9371928e-12 2.6222298e-13          0.1 0.0090327467    105.38261  0.029845164 
number of iterations: 2208 
   29100     78.48306     4758         1936         2822 1.9628645e-12 2.6656655e-13          0.1  0.009033163    106.78495  0.029844465 
number of iterations: 2191 
   29200    78.739191     4817         1960         2857 1.9876599e-12 2.7098407e-13          0.1 0.0090335659    108.20455  0.029843789 
number of iterations: 2236 
   29300    78.986016     4896         1985         2911 2.0140003e-12 2.7547682e-13          0.1 0.0090340286    109.64256  0.029843013 
number of iterations: 2204 
   29400    79.263017     4984         2014         2970 2.0397352e-12 2.8004607e-13          0.1 0.0090344155    111.09848  0.029842363 
number of iterations: 2181 
   29500    79.591954     5043         2030         3013 2.0667658e-12 2.8469315e-13          0.1 0.0090348621    112.57329  0.029841614 
number of iterations: 2194 
   29600    79.926246     5114         2061         3053 2.0941545e-12 2.8941939e-13          0.1 0.0090353153    114.06721  0.029840853 
number of iterations: 2169 
   29700    80.172661     5179         2082         3097 2.1206274e-12 2.9422613e-13          0.1 0.0090357487    115.57952  0.029840126 
number of iterations: 2213 
   29800    80.432467     5256         2106         3150 2.1487299e-12 2.9911476e-13          0.1  0.009036221    117.11143  0.029839333 
number of iterations: 2214 
   29900    80.684334     5347         2138         3209 2.1772048e-12 3.0408669e-13          0.1 0.0090366984    118.66319  0.029838532 
number of iterations: 2211 
   30000    80.948209     5428         2165         3263 2.2060571e-12 3.0914334e-13          0.1 0.0090371327    120.23506  0.029837803 
number of iterations: 2206 
   30100    81.204845     5513         2193         3320 2.2352917e-12 3.1428615e-13          0.1 0.0090376015     121.8273  0.029837016 
number of iterations: 2213 
   30200    81.460164     5599         2222         3377 2.2649137e-12 3.195166e-13          0.1 0.0090380455    123.44017   0.02983627 
number of iterations: 2234 
   30300    81.759978     5681         2258         3423 2.2949283e-12 3.2483621e-13          0.1 0.0090385636    125.07392  0.029835401 
number of iterations: 2254 
   30400    82.024289     5774         2290         3484 2.3253406e-12 3.3024649e-13          0.1 0.0090390541    126.72884  0.029834578 
number of iterations: 2232 
   30500    82.325989     5862         2321         3541 2.3561559e-12 3.3574899e-13          0.1 0.0090395406     128.4052  0.029833761 
number of iterations: 2247 
   30600    82.626729     5953         2347         3606 2.3865253e-12 3.4134529e-13          0.1   0.00904006    130.10261  0.029832889 
number of iterations: 2234 
   30700    83.012378     6034         2368         3666 2.4181514e-12 3.4703701e-13          0.1 0.0090405535      131.822  0.029832061 
number of iterations: 2255 
   30800    83.310377     6142         2401         3741 2.4501966e-12 3.5282578e-13          0.1 0.0090411008    133.56365  0.029831142 
number of iterations: 2219 
   30900    83.627905     6248         2450         3798 2.4826665e-12 3.5871325e-13          0.1 0.0090416087    135.32784   0.02983029 
number of iterations: 2239 
   31000    83.899259     6346         2490         3856 2.5155667e-12 3.6470113e-13          0.1 0.0090421798    137.11487  0.029829331 
number of iterations: 2213 
   31100    84.161173     6446         2517         3929 2.5489028e-12 3.7079113e-13          0.1 0.0090426879    138.92503  0.029828478 
number of iterations: 2279 
   31200    84.429667     6553         2555         3998 2.5826807e-12 3.7698501e-13          0.1 0.0090432661    140.75862  0.029827508 
number of iterations: 2216 
   31300    84.725988     6635         2578         4057 2.6169063e-12 3.8328455e-13          0.1 0.0090438031    142.61593  0.029826606 
number of iterations: 2270 
   31400    85.015551     6729         2613         4116 2.6515853e-12 3.8969155e-13          0.1 0.0090443852    144.49728  0.029825629 
number of iterations: 2262 
   31500    85.336899     6845         2657         4188 2.686724e-12 3.9620786e-13          0.1 0.0090449946    146.40296  0.029824606 
number of iterations: 2302 
   31600    85.638943     6960         2695         4265 2.7223283e-12 4.0283535e-13          0.1 0.0090455922     148.3333  0.029823603 
number of iterations: 2246 
   31700    85.921638     7066         2731         4335 2.7584043e-12 4.0957594e-13          0.1 0.0090461476     150.2886   0.02982267 
number of iterations: 2224 
   31800    86.246127     7153         2764         4389 2.7938913e-12 4.1643155e-13          0.1 0.0090466875    152.26838  0.029821763 
number of iterations: 2259 
   31900    86.569179     7274         2802         4472 2.8295739e-12 4.2340416e-13          0.1 0.0090472494    154.27273  0.029820819 
number of iterations: 2287 
   32000    86.860487     7389         2843         4546 2.8670712e-12 4.3049577e-13          0.1 0.0090478671      156.303  0.029819782 
number of iterations: 2300 
   32100    87.148209     7495         2880         4615 2.9050654e-12 4.3770842e-13          0.1 0.0090485548    158.35952  0.029818628 
number of iterations: 2282 
   32200    87.452449     7613         2913         4700 2.9435631e-12 4.4491203e-13          0.1 0.0090491845    160.44268  0.029817571 
number of iterations: 2297 
   32300     87.71469     7709         2944         4765 2.9825709e-12 4.5237081e-13          0.1 0.0090498792    162.55276  0.029816405 
number of iterations: 2250 
   32400    88.086051     7848         2989         4859 3.0220956e-12 4.5995693e-13          0.1 0.0090504686    164.69011  0.029815415 
number of iterations: 2294 
   32500    88.383663     7979         3034         4945 3.0621441e-12 4.6767257e-13          0.1 0.0090511432    166.85509  0.029814282 
number of iterations: 2276 
   32600    88.658858     8097         3069         5028 3.1027234e-12 4.7545076e-13          0.1 0.0090518165    169.04808  0.029813151 
number of iterations: 2309 
   32700    88.991533     8226         3117         5109 3.1438403e-12 4.8343099e-13          0.1 0.0090525271    171.26941  0.029811958 
number of iterations: 2283 
   32800     89.29165     8360         3156         5204 3.1855021e-12 4.9154751e-13          0.1 0.0090531871    173.51943   0.02981085 
number of iterations: 2276 
   32900    89.619038     8473         3183         5290 3.227716e-12 4.9980264e-13          0.1 0.0090538405    175.79852  0.029809752 
number of iterations: 2307 
   33000    89.916753     8601         3218         5383 3.2695923e-12 5.0819875e-13          0.1 0.0090545209    178.10636  0.029808609 
number of iterations: 2312 
   33100    90.247688     8736         3256         5480 3.3110375e-12 5.1673828e-13          0.1 0.0090552341    180.44257  0.029807411 
number of iterations: 2269 
   33200    90.556079     8879         3305         5574 3.3538864e-12 5.2531139e-13          0.1 0.0090559337     182.8082  0.029806236 
number of iterations: 2282 
   33300    90.888956     9006         3346         5660 3.3983317e-12 5.3414327e-13          0.1 0.0090566586    185.20437  0.029805018 
number of iterations: 2305 
   33400    91.186441     9152         3393         5759 3.4433659e-12 5.4312604e-13          0.1 0.0090573785    187.63149  0.029803809 
number of iterations: 2340 
   33500    91.511171     9291         3438         5853 3.4889969e-12 5.5226228e-13          0.1 0.0090581404    190.08993  0.029802529 
number of iterations: 2351 
   33600    91.840666     9408         3467         5941 3.5352326e-12 5.6155462e-13          0.1 0.0090589322    192.58009    0.0298012 
number of iterations: 2278 
   33700    92.136153     9552         3520         6032 3.582081e-12 5.7100576e-13          0.1 0.0090596763    195.10239  0.029799949 
number of iterations: 2318 
   33800    92.459945     9683         3560         6123 3.6287007e-12 5.8061839e-13          0.1 0.0090604325    197.65659  0.029798678 
number of iterations: 2332 
   33900    92.775817     9839         3606         6233 3.6767877e-12 5.903953e-13          0.1 0.0090611798    200.24375  0.029797422 
number of iterations: 2325 
   34000    93.192466     9982         3651         6331 3.7240812e-12 6.002343e-13          0.1 0.0090619733    202.86323  0.029796089 
number of iterations: 2283 
   34100    93.515508    10128         3705         6423 3.7734321e-12 6.1034648e-13          0.1 0.0090627065    205.51651  0.029794856 
number of iterations: 2328 
   34200    93.841374    10308         3770         6538 3.8234371e-12 6.2047476e-13          0.1 0.0090634844    208.20407  0.029793549 
number of iterations: 2302 
   34300    94.150899    10472         3819         6653 3.8741046e-12 6.3081151e-13          0.1 0.0090642567    210.92634   0.02979225 
number of iterations: 2341 
   34400    94.516973    10649         3863         6786 3.921635e-12 6.4135108e-13          0.1 0.0090650596    213.68086  0.029790901 
number of iterations: 2297 
   34500    94.835143    10805         3905         6900 3.9722835e-12 6.521662e-13          0.1 0.0090658508    216.46987  0.029789571 
number of iterations: 2346 
   34600    95.161751    10984         3967         7017 4.0249235e-12 6.6316623e-13          0.1 0.0090666728    219.29484  0.029788189 
number of iterations: 2337 
   34700    95.488255    11154         4012         7142 4.0782611e-12 6.7435433e-13          0.1 0.0090675055    222.15622  0.029786789 
number of iterations: 2335 
   34800    95.836183    11324         4064         7260  4.12901e-12 6.8566036e-13          0.1 0.0090683754      225.052  0.029785327 
number of iterations: 2350 
   34900    96.186636    11478         4118         7360 4.1837269e-12 6.972331e-13          0.1 0.0090691957    227.98509  0.029783947 
number of iterations: 2348 
   35000    96.530929    11662         4180         7482 4.2391689e-12 7.0888893e-13          0.1 0.0090700434    230.95602  0.029782521 
Loop time of 96.531 on 32 procs for 35000 steps with 11662 atoms

Performance: 313267334.251 tau/day, 362.578 timesteps/s
91.9% CPU use with 32 MPI tasks x no OpenMP threads

MPI task timing breakdown:
Section |  min time  |  avg time  |  max time  |%varavg| %total
---------------------------------------------------------------
Pair    | 0.023404   | 0.15963    | 0.46121    |  25.8 |  0.17
Neigh   | 0.0094013  | 0.062499   | 0.1901     |  17.8 |  0.06
Comm    | 0.12119    | 0.27472    | 0.43025    |  14.3 |  0.28
Output  | 25.261     | 25.261     | 25.271     |   0.0 | 26.17
Modify  | 69.818     | 69.895     | 70.045     |   0.6 | 72.41
Other   |            | 0.8782     |            |       |  0.91

Nlocal:    364.438 ave 986 max 71 min
Histogram: 5 6 5 7 2 4 0 1 1 1
Nghost:    201.094 ave 485 max 12 min
Histogram: 2 8 3 5 3 4 4 1 1 1
Neighs:    1850.12 ave 5305 max 268 min
Histogram: 7 6 5 5 2 3 1 1 1 1

Total # of neighbors = 59204
Ave neighs/atom = 5.07666
Neighbor list builds = 665
Dangerous builds = 0
Total wall time: 0:01:36
