 NUFEB Simulation

     50 atoms 
     2 atom types 
     4 nutrients 

  0.0e-4   1.00e-04  xlo xhi 
  0.0e-4   1.00e-04  ylo yhi 
  0.0e-4   5.00e-05  zlo zhi 

 Atoms 

     1 1 1.90e-06  370 7.87e-05 6.02e-06 2.46e-05 1.90e-06 
     2 1 1.56e-06  370 8.03e-05 4.09e-06 3.65e-05 1.56e-06 
     3 1 1.75e-06  370 3.39e-05 2.79e-05 3.23e-05 1.75e-06 
     4 1 1.77e-06  370 3.25e-05 9.01e-05 1.40e-05 1.77e-06 
     5 1 1.53e-06  370 4.14e-05 2.84e-05 1.05e-05 1.53e-06 
     6 1 1.82e-06  370 8.67e-05 5.23e-05 3.35e-05 1.82e-06 
     7 1 1.77e-06  370 2.36e-05 4.61e-05 4.15e-05 1.77e-06 
     8 1 1.91e-06  370 4.92e-05 3.12e-05 4.32e-05 1.91e-06 
     9 1 1.70e-06  370 1.18e-05 6.24e-05 5.91e-06 1.70e-06 
     10 1 1.46e-06  370 7.67e-05 8.86e-05 3.23e-05 1.46e-06 
     11 1 1.72e-06  370 6.67e-05 7.69e-05 3.75e-05 1.72e-06 
     12 1 1.83e-06  370 4.70e-05 5.74e-05 2.69e-05 1.83e-06 
     13 1 1.69e-06  370 7.63e-05 6.13e-05 3.10e-05 1.69e-06 
     14 1 1.72e-06  370 4.56e-05 8.98e-05 2.65e-06 1.72e-06 
     15 1 1.68e-06  370 5.57e-05 3.08e-05 1.46e-05 1.68e-06 
     16 1 1.59e-06  370 8.74e-05 1.40e-05 4.48e-05 1.59e-06 
     17 1 1.87e-06  370 7.67e-05 9.16e-05 2.04e-05 1.87e-06 
     18 1 1.75e-06  370 5.53e-05 2.27e-05 3.64e-05 1.75e-06 
     19 1 1.41e-06  370 7.43e-05 4.52e-05 2.40e-05 1.41e-06 
     20 1 1.38e-06  370 1.14e-05 3.09e-05 4.33e-05 1.38e-06 
     21 1 1.79e-06  370 5.80e-05 9.35e-05 3.98e-06 1.79e-06 
     22 1 1.50e-06  370 1.82e-05 6.73e-05 2.38e-05 1.50e-06 
     23 1 1.64e-06  370 4.14e-05 3.23e-06 4.50e-05 1.64e-06 
     24 1 1.52e-06  370 5.95e-06 4.80e-05 1.59e-05 1.52e-06 
     25 1 1.39e-06  370 5.64e-05 3.05e-05 3.73e-05 1.39e-06 
     26 1 1.49e-06  370 6.81e-05 3.79e-05 4.69e-05 1.49e-06 
     27 1 1.56e-06  370 6.50e-05 5.95e-05 9.69e-06 1.56e-06 
     28 1 1.90e-06  370 7.09e-05 2.75e-05 3.83e-05 1.90e-06 
     29 1 1.66e-06  370 6.64e-05 1.08e-05 2.34e-05 1.66e-06 
     30 1 1.41e-06  370 5.74e-05 4.23e-05 9.23e-06 1.41e-06 
     31 1 1.61e-06  370 4.49e-05 5.48e-05 6.12e-06 1.61e-06 
     32 1 1.56e-06  370 7.79e-05 3.12e-05 2.37e-05 1.56e-06 
     33 1 1.67e-06  370 6.96e-05 3.28e-05 2.19e-05 1.67e-06 
     34 1 1.81e-06  370 6.45e-05 7.95e-05 4.31e-05 1.81e-06 
     35 1 1.84e-06  370 6.37e-05 3.22e-05 4.57e-05 1.84e-06 
     36 1 1.60e-06  370 4.03e-05 5.88e-05 5.33e-06 1.60e-06 
     37 1 1.38e-06  370 8.79e-05 3.52e-05 4.69e-05 1.38e-06 
     38 1 1.71e-06  370 3.89e-05 9.26e-05 3.67e-05 1.71e-06 
     39 1 1.91e-06  370 6.46e-05 1.49e-05 4.73e-05 1.91e-06 
     40 1 1.85e-06  370 4.39e-05 8.15e-05 1.77e-05 1.85e-06 
     41 1 1.92e-06  370 1.93e-05 5.48e-05 4.03e-05 1.92e-06 
     42 1 1.70e-06  370 1.20e-05 5.02e-05 3.29e-05 1.70e-06 
     43 1 1.80e-06  370 4.84e-05 5.45e-05 1.45e-05 1.80e-06 
     44 1 1.43e-06  370 6.88e-05 4.80e-05 4.85e-05 1.43e-06 
     45 1 1.54e-06  370 7.37e-05 1.19e-05 2.79e-05 1.54e-06 
     46 1 1.54e-06  370 1.96e-05 7.98e-05 3.92e-05 1.54e-06 
     47 1 1.82e-06  370 3.29e-05 5.90e-05 2.58e-06 1.82e-06 
     48 1 1.52e-06  370 2.55e-05 8.15e-06 4.18e-05 1.52e-06 
     49 1 1.82e-06  370 5.40e-06 2.47e-05 2.24e-05 1.82e-06 
     50 1 1.59e-06  370 1.92e-05 1.76e-05 8.21e-06 1.59e-06 

 Nutrients 

     1 sub g nn nn nn 1.00e-01 1.00e-01 
     2 o2 l nn nn nd 9.00e-03 9.00e-03 
     3 suc l nn nn nn 3.42e-20 3.42e-20 
     4 co2 l nn nn nd 2.99e-02 2.99e-02 

 Type Name 

     1 cyano  
     2 ecw  

 Diffusion Coeffs 

     sub 0 
     o2 2.3e-09 
     suc 5.2e-10 
     co2 1.9e-09 

 Growth Rate 

     cyano 2.047e-05 
     ecw 6.71e-05 

 Ks 

     cyano 0.00035 0.0002 0.01 0.000138 
     ecw 0 0.001 3.6 0.05 

 Yield 

     cyano 0.55 
     ecw 0.43 

 Maintenance 

     cyano 0 
     ecw 9.5e-07 

 Decay 

     cyano 0 
     ecw 0 



