ITEM: TIMESTEP
0
ITEM: NUMBER OF ATOMS
50
ITEM: BOX BOUNDS ff ff ff
0.0000000000000000e+00 1.0000000000000000e-04
0.0000000000000000e+00 1.0000000000000000e-04
0.0000000000000000e+00 5.0000000000000002e-05
ITEM: ATOMS id type diameter x y z 
50 1 1.59e-06 1.92e-05 1.76e-05 8.21e-06 
5 1 1.53e-06 4.14e-05 2.84e-05 1.05e-05 
24 1 1.52e-06 5.95e-06 4.8e-05 1.59e-05 
49 1 1.82e-06 5.4e-06 2.47e-05 2.24e-05 
3 1 1.75e-06 3.39e-05 2.79e-05 3.23e-05 
7 1 1.77e-06 2.36e-05 4.61e-05 4.15e-05 
48 1 1.52e-06 2.55e-05 8.15e-06 4.18e-05 
20 1 1.38e-06 1.14e-05 3.09e-05 4.33e-05 
8 1 1.91e-06 4.92e-05 3.12e-05 4.32e-05 
23 1 1.64e-06 4.14e-05 3.23e-06 4.5e-05 
47 1 1.82e-06 3.29e-05 5.9e-05 2.58e-06 
14 1 1.72e-06 4.56e-05 8.98e-05 2.65e-06 
36 1 1.6e-06 4.03e-05 5.88e-05 5.33e-06 
9 1 1.7e-06 1.18e-05 6.24e-05 5.91e-06 
31 1 1.61e-06 4.49e-05 5.48e-05 6.12e-06 
4 1 1.77e-06 3.25e-05 9.01e-05 1.4e-05 
43 1 1.8e-06 4.84e-05 5.45e-05 1.45e-05 
40 1 1.85e-06 4.39e-05 8.15e-05 1.77e-05 
22 1 1.5e-06 1.82e-05 6.73e-05 2.38e-05 
12 1 1.83e-06 4.7e-05 5.74e-05 2.69e-05 
42 1 1.7e-06 1.2e-05 5.02e-05 3.29e-05 
38 1 1.71e-06 3.89e-05 9.26e-05 3.67e-05 
46 1 1.54e-06 1.96e-05 7.98e-05 3.92e-05 
41 1 1.92e-06 1.93e-05 5.48e-05 4.03e-05 
30 1 1.41e-06 5.74e-05 4.23e-05 9.23e-06 
15 1 1.68e-06 5.57e-05 3.08e-05 1.46e-05 
33 1 1.67e-06 6.96e-05 3.28e-05 2.19e-05 
29 1 1.66e-06 6.64e-05 1.08e-05 2.34e-05 
32 1 1.56e-06 7.79e-05 3.12e-05 2.37e-05 
19 1 1.41e-06 7.43e-05 4.52e-05 2.4e-05 
1 1 1.9e-06 7.87e-05 6.02e-06 2.46e-05 
45 1 1.54e-06 7.37e-05 1.19e-05 2.79e-05 
2 1 1.56e-06 8.03e-05 4.09e-06 3.65e-05 
18 1 1.75e-06 5.53e-05 2.27e-05 3.64e-05 
25 1 1.39e-06 5.64e-05 3.05e-05 3.73e-05 
28 1 1.9e-06 7.09e-05 2.75e-05 3.83e-05 
16 1 1.59e-06 8.74e-05 1.4e-05 4.48e-05 
35 1 1.84e-06 6.37e-05 3.22e-05 4.57e-05 
37 1 1.38e-06 8.79e-05 3.52e-05 4.69e-05 
26 1 1.49e-06 6.81e-05 3.79e-05 4.69e-05 
39 1 1.91e-06 6.46e-05 1.49e-05 4.73e-05 
44 1 1.43e-06 6.88e-05 4.8e-05 4.85e-05 
21 1 1.79e-06 5.8e-05 9.35e-05 3.98e-06 
27 1 1.56e-06 6.5e-05 5.95e-05 9.69e-06 
17 1 1.87e-06 7.67e-05 9.16e-05 2.04e-05 
13 1 1.69e-06 7.63e-05 6.13e-05 3.1e-05 
10 1 1.46e-06 7.67e-05 8.86e-05 3.23e-05 
6 1 1.82e-06 8.67e-05 5.23e-05 3.35e-05 
11 1 1.72e-06 6.67e-05 7.69e-05 3.75e-05 
34 1 1.81e-06 6.45e-05 7.95e-05 4.31e-05 
ITEM: TIMESTEP
100
ITEM: NUMBER OF ATOMS
50
ITEM: BOX BOUNDS ff ff ff
0.0000000000000000e+00 1.0000000000000000e-04
0.0000000000000000e+00 1.0000000000000000e-04
0.0000000000000000e+00 5.0000000000000002e-05
ITEM: ATOMS id type diameter x y z 
50 1 1.59963e-06 1.92e-05 1.76e-05 8.21e-06 
5 1 1.53926e-06 4.14e-05 2.84e-05 1.05e-05 
24 1 1.5292e-06 5.95e-06 4.8e-05 1.59e-05 
49 1 1.83102e-06 5.4e-06 2.47e-05 2.24e-05 
3 1 1.7606e-06 3.39e-05 2.79e-05 3.23e-05 
7 1 1.78072e-06 2.36e-05 4.61e-05 4.15e-05 
48 1 1.5292e-06 2.55e-05 8.15e-06 4.18e-05 
20 1 1.38836e-06 1.14e-05 3.09e-05 4.33e-05 
8 1 1.92156e-06 4.92e-05 3.12e-05 4.32e-05 
23 1 1.64993e-06 4.14e-05 3.23e-06 4.5e-05 
47 1 1.83102e-06 3.29e-05 5.9e-05 2.58e-06 
14 1 1.73041e-06 4.56e-05 8.98e-05 2.65e-06 
36 1 1.60969e-06 4.03e-05 5.88e-05 5.33e-06 
9 1 1.71029e-06 1.18e-05 6.24e-05 5.91e-06 
31 1 1.61975e-06 4.49e-05 5.48e-05 6.12e-06 
4 1 1.78072e-06 3.25e-05 9.01e-05 1.4e-05 
43 1 1.8109e-06 4.84e-05 5.45e-05 1.45e-05 
40 1 1.8612e-06 4.39e-05 8.15e-05 1.77e-05 
22 1 1.50908e-06 1.82e-05 6.73e-05 2.38e-05 
12 1 1.84108e-06 4.7e-05 5.74e-05 2.69e-05 
42 1 1.71029e-06 1.2e-05 5.02e-05 3.29e-05 
38 1 1.72035e-06 3.89e-05 9.26e-05 3.67e-05 
46 1 1.54932e-06 1.96e-05 7.98e-05 3.92e-05 
41 1 1.93163e-06 1.93e-05 5.48e-05 4.03e-05 
30 1 1.41854e-06 5.74e-05 4.23e-05 9.23e-06 
15 1 1.69017e-06 5.57e-05 3.08e-05 1.46e-05 
33 1 1.68011e-06 6.96e-05 3.28e-05 2.19e-05 
29 1 1.67005e-06 6.64e-05 1.08e-05 2.34e-05 
32 1 1.56945e-06 7.79e-05 3.12e-05 2.37e-05 
19 1 1.41854e-06 7.43e-05 4.52e-05 2.4e-05 
1 1 1.9115e-06 7.87e-05 6.02e-06 2.46e-05 
45 1 1.54932e-06 7.37e-05 1.19e-05 2.79e-05 
2 1 1.56945e-06 8.03e-05 4.09e-06 3.65e-05 
18 1 1.7606e-06 5.53e-05 2.27e-05 3.64e-05 
25 1 1.39842e-06 5.64e-05 3.05e-05 3.73e-05 
28 1 1.9115e-06 7.09e-05 2.75e-05 3.83e-05 
16 1 1.59963e-06 8.74e-05 1.4e-05 4.48e-05 
35 1 1.85114e-06 6.37e-05 3.22e-05 4.57e-05 
37 1 1.38836e-06 8.79e-05 3.52e-05 4.69e-05 
26 1 1.49902e-06 6.81e-05 3.79e-05 4.69e-05 
39 1 1.92156e-06 6.46e-05 1.49e-05 4.73e-05 
44 1 1.43866e-06 6.88e-05 4.8e-05 4.85e-05 
21 1 1.80084e-06 5.8e-05 9.35e-05 3.98e-06 
27 1 1.56945e-06 6.5e-05 5.95e-05 9.69e-06 
17 1 1.88132e-06 7.67e-05 9.16e-05 2.04e-05 
13 1 1.70023e-06 7.63e-05 6.13e-05 3.1e-05 
10 1 1.46884e-06 7.67e-05 8.86e-05 3.23e-05 
6 1 1.83102e-06 8.67e-05 5.23e-05 3.35e-05 
11 1 1.73041e-06 6.67e-05 7.69e-05 3.75e-05 
34 1 1.82096e-06 6.45e-05 7.95e-05 4.31e-05 
ITEM: TIMESTEP
200
ITEM: NUMBER OF ATOMS
50
ITEM: BOX BOUNDS ff ff ff
0.0000000000000000e+00 1.0000000000000000e-04
0.0000000000000000e+00 1.0000000000000000e-04
0.0000000000000000e+00 5.0000000000000002e-05
ITEM: ATOMS id type diameter x y z 
50 1 1.60931e-06 1.92e-05 1.76e-05 8.21e-06 
5 1 1.54858e-06 4.14e-05 2.84e-05 1.05e-05 
24 1 1.53846e-06 5.95e-06 4.8e-05 1.59e-05 
49 1 1.84211e-06 5.4e-06 2.47e-05 2.24e-05 
3 1 1.77126e-06 3.39e-05 2.79e-05 3.23e-05 
7 1 1.7915e-06 2.36e-05 4.61e-05 4.15e-05 
48 1 1.53846e-06 2.55e-05 8.15e-06 4.18e-05 
20 1 1.39676e-06 1.14e-05 3.09e-05 4.33e-05 
8 1 1.9332e-06 4.92e-05 3.12e-05 4.32e-05 
23 1 1.65992e-06 4.14e-05 3.23e-06 4.5e-05 
47 1 1.84211e-06 3.29e-05 5.9e-05 2.58e-06 
14 1 1.74089e-06 4.56e-05 8.98e-05 2.65e-06 
36 1 1.61943e-06 4.03e-05 5.88e-05 5.33e-06 
9 1 1.72065e-06 1.18e-05 6.24e-05 5.91e-06 
31 1 1.62956e-06 4.49e-05 5.48e-05 6.12e-06 
4 1 1.7915e-06 3.25e-05 9.01e-05 1.4e-05 
43 1 1.82186e-06 4.84e-05 5.45e-05 1.45e-05 
40 1 1.87247e-06 4.39e-05 8.15e-05 1.77e-05 
22 1 1.51822e-06 1.82e-05 6.73e-05 2.38e-05 
12 1 1.85223e-06 4.7e-05 5.74e-05 2.69e-05 
42 1 1.72065e-06 1.2e-05 5.02e-05 3.29e-05 
38 1 1.73077e-06 3.89e-05 9.26e-05 3.67e-05 
46 1 1.55871e-06 1.96e-05 7.98e-05 3.92e-05 
41 1 1.94332e-06 1.93e-05 5.48e-05 4.03e-05 
30 1 1.42713e-06 5.74e-05 4.23e-05 9.23e-06 
15 1 1.70041e-06 5.57e-05 3.08e-05 1.46e-05 
33 1 1.69028e-06 6.96e-05 3.28e-05 2.19e-05 
29 1 1.68016e-06 6.64e-05 1.08e-05 2.34e-05 
32 1 1.57895e-06 7.79e-05 3.12e-05 2.37e-05 
19 1 1.42713e-06 7.43e-05 4.52e-05 2.4e-05 
1 1 1.92308e-06 7.87e-05 6.02e-06 2.46e-05 
45 1 1.55871e-06 7.37e-05 1.19e-05 2.79e-05 
2 1 1.57895e-06 8.03e-05 4.09e-06 3.65e-05 
18 1 1.77126e-06 5.53e-05 2.27e-05 3.64e-05 
25 1 1.40688e-06 5.64e-05 3.05e-05 3.73e-05 
28 1 1.92308e-06 7.09e-05 2.75e-05 3.83e-05 
16 1 1.60931e-06 8.74e-05 1.4e-05 4.48e-05 
35 1 1.86235e-06 6.37e-05 3.22e-05 4.57e-05 
37 1 1.39676e-06 8.79e-05 3.52e-05 4.69e-05 
26 1 1.5081e-06 6.81e-05 3.79e-05 4.69e-05 
39 1 1.9332e-06 6.46e-05 1.49e-05 4.73e-05 
44 1 1.44737e-06 6.88e-05 4.8e-05 4.85e-05 
21 1 1.81174e-06 5.8e-05 9.35e-05 3.98e-06 
27 1 1.57895e-06 6.5e-05 5.95e-05 9.69e-06 
17 1 1.89271e-06 7.67e-05 9.16e-05 2.04e-05 
13 1 1.71053e-06 7.63e-05 6.13e-05 3.1e-05 
10 1 1.47773e-06 7.67e-05 8.86e-05 3.23e-05 
6 1 1.84211e-06 8.67e-05 5.23e-05 3.35e-05 
11 1 1.74089e-06 6.67e-05 7.69e-05 3.75e-05 
34 1 1.83198e-06 6.45e-05 7.95e-05 4.31e-05 
ITEM: TIMESTEP
300
ITEM: NUMBER OF ATOMS
50
ITEM: BOX BOUNDS ff ff ff
0.0000000000000000e+00 1.0000000000000000e-04
0.0000000000000000e+00 1.0000000000000000e-04
0.0000000000000000e+00 5.0000000000000002e-05
ITEM: ATOMS id type diameter x y z 
50 1 1.61906e-06 1.92e-05 1.76e-05 8.21e-06 
5 1 1.55796e-06 4.14e-05 2.84e-05 1.05e-05 
24 1 1.54778e-06 5.95e-06 4.8e-05 1.59e-05 
49 1 1.85326e-06 5.4e-06 2.47e-05 2.24e-05 
3 1 1.78198e-06 3.39e-05 2.79e-05 3.23e-05 
7 1 1.80235e-06 2.36e-05 4.61e-05 4.15e-05 
48 1 1.54778e-06 2.55e-05 8.15e-06 4.18e-05 
20 1 1.40522e-06 1.14e-05 3.09e-05 4.33e-05 
8 1 1.9449e-06 4.92e-05 3.12e-05 4.32e-05 
23 1 1.66997e-06 4.14e-05 3.23e-06 4.5e-05 
47 1 1.85326e-06 3.29e-05 5.9e-05 2.58e-06 
14 1 1.75143e-06 4.56e-05 8.98e-05 2.65e-06 
36 1 1.62924e-06 4.03e-05 5.88e-05 5.33e-06 
9 1 1.73107e-06 1.18e-05 6.24e-05 5.91e-06 
31 1 1.63942e-06 4.49e-05 5.48e-05 6.12e-06 
4 1 1.80235e-06 3.25e-05 9.01e-05 1.4e-05 
43 1 1.83289e-06 4.84e-05 5.45e-05 1.45e-05 
40 1 1.88381e-06 4.39e-05 8.15e-05 1.77e-05 
22 1 1.52741e-06 1.82e-05 6.73e-05 2.38e-05 
12 1 1.86344e-06 4.7e-05 5.74e-05 2.69e-05 
42 1 1.73107e-06 1.2e-05 5.02e-05 3.29e-05 
38 1 1.74125e-06 3.89e-05 9.26e-05 3.67e-05 
46 1 1.56814e-06 1.96e-05 7.98e-05 3.92e-05 
41 1 1.95509e-06 1.93e-05 5.48e-05 4.03e-05 
30 1 1.43577e-06 5.74e-05 4.23e-05 9.23e-06 
15 1 1.7107e-06 5.57e-05 3.08e-05 1.46e-05 
33 1 1.70052e-06 6.96e-05 3.28e-05 2.19e-05 
29 1 1.69034e-06 6.64e-05 1.08e-05 2.34e-05 
32 1 1.58851e-06 7.79e-05 3.12e-05 2.37e-05 
19 1 1.43577e-06 7.43e-05 4.52e-05 2.4e-05 
1 1 1.93472e-06 7.87e-05 6.02e-06 2.46e-05 
45 1 1.56814e-06 7.37e-05 1.19e-05 2.79e-05 
2 1 1.58851e-06 8.03e-05 4.09e-06 3.65e-05 
18 1 1.78198e-06 5.53e-05 2.27e-05 3.64e-05 
25 1 1.4154e-06 5.64e-05 3.05e-05 3.73e-05 
28 1 1.93472e-06 7.09e-05 2.75e-05 3.83e-05 
16 1 1.61906e-06 8.74e-05 1.4e-05 4.48e-05 
35 1 1.87362e-06 6.37e-05 3.22e-05 4.57e-05 
37 1 1.40522e-06 8.79e-05 3.52e-05 4.69e-05 
26 1 1.51723e-06 6.81e-05 3.79e-05 4.69e-05 
39 1 1.9449e-06 6.46e-05 1.49e-05 4.73e-05 
44 1 1.45613e-06 6.88e-05 4.8e-05 4.85e-05 
21 1 1.82271e-06 5.8e-05 9.35e-05 3.98e-06 
27 1 1.58851e-06 6.5e-05 5.95e-05 9.69e-06 
17 1 1.90417e-06 7.67e-05 9.16e-05 2.04e-05 
13 1 1.72088e-06 7.63e-05 6.13e-05 3.1e-05 
10 1 1.48668e-06 7.67e-05 8.86e-05 3.23e-05 
6 1 1.85326e-06 8.67e-05 5.23e-05 3.35e-05 
11 1 1.75143e-06 6.67e-05 7.69e-05 3.75e-05 
34 1 1.84308e-06 6.45e-05 7.95e-05 4.31e-05 
ITEM: TIMESTEP
400
ITEM: NUMBER OF ATOMS
50
ITEM: BOX BOUNDS ff ff ff
0.0000000000000000e+00 1.0000000000000000e-04
0.0000000000000000e+00 1.0000000000000000e-04
0.0000000000000000e+00 5.0000000000000002e-05
ITEM: ATOMS id type diameter x y z 
50 1 1.62886e-06 1.92e-05 1.76e-05 8.21e-06 
5 1 1.56739e-06 4.14e-05 2.84e-05 1.05e-05 
24 1 1.55715e-06 5.95e-06 4.8e-05 1.59e-05 
49 1 1.86448e-06 5.4e-06 2.47e-05 2.24e-05 
3 1 1.79277e-06 3.39e-05 2.79e-05 3.23e-05 
7 1 1.81326e-06 2.36e-05 4.61e-05 4.15e-05 
48 1 1.55715e-06 2.55e-05 8.15e-06 4.18e-05 
20 1 1.41373e-06 1.14e-05 3.09e-05 4.33e-05 
8 1 1.95668e-06 4.92e-05 3.12e-05 4.32e-05 
23 1 1.68008e-06 4.14e-05 3.23e-06 4.5e-05 
47 1 1.86448e-06 3.29e-05 5.9e-05 2.58e-06 
14 1 1.76204e-06 4.56e-05 8.98e-05 2.65e-06 
36 1 1.6391e-06 4.03e-05 5.88e-05 5.33e-06 
9 1 1.74155e-06 1.18e-05 6.24e-05 5.91e-06 
31 1 1.64935e-06 4.49e-05 5.48e-05 6.12e-06 
4 1 1.81326e-06 3.25e-05 9.01e-05 1.4e-05 
43 1 1.84399e-06 4.84e-05 5.45e-05 1.45e-05 
40 1 1.89521e-06 4.39e-05 8.15e-05 1.77e-05 
22 1 1.53666e-06 1.82e-05 6.73e-05 2.38e-05 
12 1 1.87472e-06 4.7e-05 5.74e-05 2.69e-05 
42 1 1.74155e-06 1.2e-05 5.02e-05 3.29e-05 
38 1 1.75179e-06 3.89e-05 9.26e-05 3.67e-05 
46 1 1.57764e-06 1.96e-05 7.98e-05 3.92e-05 
41 1 1.96692e-06 1.93e-05 5.48e-05 4.03e-05 
30 1 1.44446e-06 5.74e-05 4.23e-05 9.23e-06 
15 1 1.72106e-06 5.57e-05 3.08e-05 1.46e-05 
33 1 1.71081e-06 6.96e-05 3.28e-05 2.19e-05 
29 1 1.70057e-06 6.64e-05 1.08e-05 2.34e-05 
32 1 1.59813e-06 7.79e-05 3.12e-05 2.37e-05 
19 1 1.44446e-06 7.43e-05 4.52e-05 2.4e-05 
1 1 1.94644e-06 7.87e-05 6.02e-06 2.46e-05 
45 1 1.57764e-06 7.37e-05 1.19e-05 2.79e-05 
2 1 1.59813e-06 8.03e-05 4.09e-06 3.65e-05 
18 1 1.79277e-06 5.53e-05 2.27e-05 3.64e-05 
25 1 1.42397e-06 5.64e-05 3.05e-05 3.73e-05 
28 1 1.94644e-06 7.09e-05 2.75e-05 3.83e-05 
16 1 1.62886e-06 8.74e-05 1.4e-05 4.48e-05 
35 1 1.88497e-06 6.37e-05 3.22e-05 4.57e-05 
37 1 1.41373e-06 8.79e-05 3.52e-05 4.69e-05 
26 1 1.52642e-06 6.81e-05 3.79e-05 4.69e-05 
39 1 1.95668e-06 6.46e-05 1.49e-05 4.73e-05 
44 1 1.46495e-06 6.88e-05 4.8e-05 4.85e-05 
21 1 1.83375e-06 5.8e-05 9.35e-05 3.98e-06 
27 1 1.59813e-06 6.5e-05 5.95e-05 9.69e-06 
17 1 1.9157e-06 7.67e-05 9.16e-05 2.04e-05 
13 1 1.7313e-06 7.63e-05 6.13e-05 3.1e-05 
10 1 1.49568e-06 7.67e-05 8.86e-05 3.23e-05 
6 1 1.86448e-06 8.67e-05 5.23e-05 3.35e-05 
11 1 1.76204e-06 6.67e-05 7.69e-05 3.75e-05 
34 1 1.85424e-06 6.45e-05 7.95e-05 4.31e-05 
ITEM: TIMESTEP
500
ITEM: NUMBER OF ATOMS
51
ITEM: BOX BOUNDS ff ff ff
0.0000000000000000e+00 1.0000000000000000e-04
0.0000000000000000e+00 1.0000000000000000e-04
0.0000000000000000e+00 5.0000000000000002e-05
ITEM: ATOMS id type diameter x y z 
50 1 1.63872e-06 1.92e-05 1.76e-05 8.21e-06 
5 1 1.57688e-06 4.14e-05 2.84e-05 1.05e-05 
24 1 1.56658e-06 5.95e-06 4.8e-05 1.59e-05 
49 1 1.87577e-06 5.4e-06 2.47e-05 2.24e-05 
3 1 1.80362e-06 3.39e-05 2.79e-05 3.23e-05 
7 1 1.82424e-06 2.36e-05 4.61e-05 4.15e-05 
48 1 1.56658e-06 2.55e-05 8.15e-06 4.18e-05 
20 1 1.42229e-06 1.14e-05 3.09e-05 4.33e-05 
8 1 1.96853e-06 4.92e-05 3.12e-05 4.32e-05 
23 1 1.69025e-06 4.14e-05 3.23e-06 4.5e-05 
47 1 1.87577e-06 3.29e-05 5.9e-05 2.58e-06 
14 1 1.77271e-06 4.56e-05 8.98e-05 2.65e-06 
36 1 1.64903e-06 4.03e-05 5.88e-05 5.33e-06 
9 1 1.75209e-06 1.18e-05 6.24e-05 5.91e-06 
31 1 1.65933e-06 4.49e-05 5.48e-05 6.12e-06 
4 1 1.82424e-06 3.25e-05 9.01e-05 1.4e-05 
43 1 1.85516e-06 4.84e-05 5.45e-05 1.45e-05 
40 1 1.90669e-06 4.39e-05 8.15e-05 1.77e-05 
22 1 1.54596e-06 1.82e-05 6.73e-05 2.38e-05 
12 1 1.88608e-06 4.7e-05 5.74e-05 2.69e-05 
42 1 1.75209e-06 1.2e-05 5.02e-05 3.29e-05 
38 1 1.7624e-06 3.89e-05 9.26e-05 3.67e-05 
46 1 1.58719e-06 1.96e-05 7.98e-05 3.92e-05 
41 1 1.52324e-06 1.99876e-05 5.47128e-05 3.99863e-05 
51 1 1.61527e-06 1.85708e-05 5.48925e-05 4.06327e-05 
30 1 1.45321e-06 5.74e-05 4.23e-05 9.23e-06 
15 1 1.73148e-06 5.57e-05 3.08e-05 1.46e-05 
33 1 1.72117e-06 6.96e-05 3.28e-05 2.19e-05 
29 1 1.71087e-06 6.64e-05 1.08e-05 2.34e-05 
32 1 1.6078e-06 7.79e-05 3.12e-05 2.37e-05 
19 1 1.45321e-06 7.43e-05 4.52e-05 2.4e-05 
1 1 1.95822e-06 7.87e-05 6.02e-06 2.46e-05 
45 1 1.58719e-06 7.37e-05 1.19e-05 2.79e-05 
2 1 1.6078e-06 8.03e-05 4.09e-06 3.65e-05 
18 1 1.80362e-06 5.53e-05 2.27e-05 3.64e-05 
25 1 1.43259e-06 5.64e-05 3.05e-05 3.73e-05 
28 1 1.95822e-06 7.09e-05 2.75e-05 3.83e-05 
16 1 1.63872e-06 8.74e-05 1.4e-05 4.48e-05 
35 1 1.89638e-06 6.37e-05 3.22e-05 4.57e-05 
37 1 1.42229e-06 8.79e-05 3.52e-05 4.69e-05 
26 1 1.53566e-06 6.81e-05 3.79e-05 4.69e-05 
39 1 1.96853e-06 6.46e-05 1.49e-05 4.73e-05 
44 1 1.47382e-06 6.88e-05 4.8e-05 4.85e-05 
21 1 1.84485e-06 5.8e-05 9.35e-05 3.98e-06 
27 1 1.6078e-06 6.5e-05 5.95e-05 9.69e-06 
17 1 1.9273e-06 7.67e-05 9.16e-05 2.04e-05 
13 1 1.74179e-06 7.63e-05 6.13e-05 3.1e-05 
10 1 1.50474e-06 7.67e-05 8.86e-05 3.23e-05 
6 1 1.87577e-06 8.67e-05 5.23e-05 3.35e-05 
11 1 1.77271e-06 6.67e-05 7.69e-05 3.75e-05 
34 1 1.86546e-06 6.45e-05 7.95e-05 4.31e-05 
ITEM: TIMESTEP
600
ITEM: NUMBER OF ATOMS
53
ITEM: BOX BOUNDS ff ff ff
0.0000000000000000e+00 1.0000000000000000e-04
0.0000000000000000e+00 1.0000000000000000e-04
0.0000000000000000e+00 5.0000000000000002e-05
ITEM: ATOMS id type diameter x y z 
50 1 1.64864e-06 1.92e-05 1.76e-05 8.21e-06 
5 1 1.58643e-06 4.14e-05 2.84e-05 1.05e-05 
24 1 1.57606e-06 5.95e-06 4.8e-05 1.59e-05 
49 1 1.88713e-06 5.4e-06 2.47e-05 2.24e-05 
3 1 1.81454e-06 3.39e-05 2.79e-05 3.23e-05 
7 1 1.83528e-06 2.36e-05 4.61e-05 4.15e-05 
48 1 1.57606e-06 2.55e-05 8.15e-06 4.18e-05 
20 1 1.4309e-06 1.14e-05 3.09e-05 4.33e-05 
8 1 1.52448e-06 4.98882e-05 3.11127e-05 4.2886e-05 
23 1 1.70049e-06 4.14e-05 3.23e-06 4.5e-05 
52 1 1.61658e-06 4.84702e-05 3.12925e-05 4.35329e-05 
47 1 1.88713e-06 3.29e-05 5.9e-05 2.58e-06 
14 1 1.78344e-06 4.56e-05 8.98e-05 2.65e-06 
36 1 1.65901e-06 4.03e-05 5.88e-05 5.33e-06 
9 1 1.7627e-06 1.18e-05 6.24e-05 5.91e-06 
31 1 1.66938e-06 4.49e-05 5.48e-05 6.12e-06 
4 1 1.83528e-06 3.25e-05 9.01e-05 1.4e-05 
43 1 1.86639e-06 4.84e-05 5.45e-05 1.45e-05 
40 1 1.91823e-06 4.39e-05 8.15e-05 1.77e-05 
22 1 1.55532e-06 1.82e-05 6.73e-05 2.38e-05 
12 1 1.8975e-06 4.7e-05 5.74e-05 2.69e-05 
42 1 1.7627e-06 1.2e-05 5.02e-05 3.29e-05 
38 1 1.77307e-06 3.89e-05 9.26e-05 3.67e-05 
46 1 1.5968e-06 1.96e-05 7.98e-05 3.92e-05 
41 1 1.53246e-06 1.99876e-05 5.47128e-05 3.99863e-05 
51 1 1.62505e-06 1.85708e-05 5.48925e-05 4.06327e-05 
30 1 1.462e-06 5.74e-05 4.23e-05 9.23e-06 
15 1 1.74196e-06 5.57e-05 3.08e-05 1.46e-05 
33 1 1.73159e-06 6.96e-05 3.28e-05 2.19e-05 
29 1 1.72123e-06 6.64e-05 1.08e-05 2.34e-05 
32 1 1.61754e-06 7.79e-05 3.12e-05 2.37e-05 
19 1 1.462e-06 7.43e-05 4.52e-05 2.4e-05 
1 1 1.97008e-06 7.87e-05 6.02e-06 2.46e-05 
45 1 1.5968e-06 7.37e-05 1.19e-05 2.79e-05 
2 1 1.61754e-06 8.03e-05 4.09e-06 3.65e-05 
18 1 1.81454e-06 5.53e-05 2.27e-05 3.64e-05 
25 1 1.44127e-06 5.64e-05 3.05e-05 3.73e-05 
28 1 1.97008e-06 7.09e-05 2.75e-05 3.83e-05 
16 1 1.64864e-06 8.74e-05 1.4e-05 4.48e-05 
35 1 1.90786e-06 6.37e-05 3.22e-05 4.57e-05 
37 1 1.4309e-06 8.79e-05 3.52e-05 4.69e-05 
26 1 1.54496e-06 6.81e-05 3.79e-05 4.69e-05 
39 1 1.52448e-06 6.52882e-05 1.48127e-05 4.6986e-05 
44 1 1.48274e-06 6.88e-05 4.8e-05 4.85e-05 
53 1 1.61658e-06 6.38702e-05 1.49925e-05 4.76329e-05 
21 1 1.85602e-06 5.8e-05 9.35e-05 3.98e-06 
27 1 1.61754e-06 6.5e-05 5.95e-05 9.69e-06 
17 1 1.93897e-06 7.67e-05 9.16e-05 2.04e-05 
13 1 1.75233e-06 7.63e-05 6.13e-05 3.1e-05 
10 1 1.51385e-06 7.67e-05 8.86e-05 3.23e-05 
6 1 1.88713e-06 8.67e-05 5.23e-05 3.35e-05 
11 1 1.78344e-06 6.67e-05 7.69e-05 3.75e-05 
34 1 1.87676e-06 6.45e-05 7.95e-05 4.31e-05 
ITEM: TIMESTEP
700
ITEM: NUMBER OF ATOMS
55
ITEM: BOX BOUNDS ff ff ff
0.0000000000000000e+00 1.0000000000000000e-04
0.0000000000000000e+00 1.0000000000000000e-04
0.0000000000000000e+00 5.0000000000000002e-05
ITEM: ATOMS id type diameter x y z 
50 1 1.65863e-06 1.92e-05 1.76e-05 8.21e-06 
5 1 1.59604e-06 4.14e-05 2.84e-05 1.05e-05 
24 1 1.5856e-06 5.95e-06 4.8e-05 1.59e-05 
49 1 1.89855e-06 5.4e-06 2.47e-05 2.24e-05 
3 1 1.82553e-06 3.39e-05 2.79e-05 3.23e-05 
7 1 1.84639e-06 2.36e-05 4.61e-05 4.15e-05 
48 1 1.5856e-06 2.55e-05 8.15e-06 4.18e-05 
20 1 1.43956e-06 1.14e-05 3.09e-05 4.33e-05 
8 1 1.53371e-06 4.98882e-05 3.11127e-05 4.2886e-05 
23 1 1.71078e-06 4.14e-05 3.23e-06 4.5e-05 
52 1 1.62637e-06 4.84702e-05 3.12925e-05 4.35329e-05 
47 1 1.89855e-06 3.29e-05 5.9e-05 2.58e-06 
14 1 1.79424e-06 4.56e-05 8.98e-05 2.65e-06 
36 1 1.66906e-06 4.03e-05 5.88e-05 5.33e-06 
9 1 1.77337e-06 1.18e-05 6.24e-05 5.91e-06 
31 1 1.67949e-06 4.49e-05 5.48e-05 6.12e-06 
4 1 1.84639e-06 3.25e-05 9.01e-05 1.4e-05 
43 1 1.87769e-06 4.84e-05 5.45e-05 1.45e-05 
40 1 1.92985e-06 4.39e-05 8.15e-05 1.77e-05 
22 1 1.56474e-06 1.82e-05 6.73e-05 2.38e-05 
12 1 1.90898e-06 4.7e-05 5.74e-05 2.69e-05 
42 1 1.77337e-06 1.2e-05 5.02e-05 3.29e-05 
38 1 1.7838e-06 3.89e-05 9.26e-05 3.67e-05 
46 1 1.60647e-06 1.96e-05 7.98e-05 3.92e-05 
41 1 1.54174e-06 1.99876e-05 5.47128e-05 3.99863e-05 
51 1 1.63488e-06 1.85708e-05 5.48925e-05 4.06327e-05 
30 1 1.47086e-06 5.74e-05 4.23e-05 9.23e-06 
15 1 1.75251e-06 5.57e-05 3.08e-05 1.46e-05 
33 1 1.74208e-06 6.96e-05 3.28e-05 2.19e-05 
29 1 1.73165e-06 6.64e-05 1.08e-05 2.34e-05 
32 1 1.62733e-06 7.79e-05 3.12e-05 2.37e-05 
19 1 1.47086e-06 7.43e-05 4.52e-05 2.4e-05 
1 1 1.50516e-06 7.91034e-05 5.38624e-06 2.46285e-05 
45 1 1.60647e-06 7.37e-05 1.19e-05 2.79e-05 
2 1 1.62733e-06 8.03e-05 4.09e-06 3.65e-05 
18 1 1.82553e-06 5.53e-05 2.27e-05 3.64e-05 
25 1 1.44999e-06 5.64e-05 3.05e-05 3.73e-05 
28 1 1.62471e-06 7.02536e-05 2.75015e-05 3.87906e-05 
16 1 1.65863e-06 8.74e-05 1.4e-05 4.48e-05 
35 1 1.91942e-06 6.37e-05 3.22e-05 4.57e-05 
37 1 1.43956e-06 8.79e-05 3.52e-05 4.69e-05 
26 1 1.55431e-06 6.81e-05 3.79e-05 4.69e-05 
39 1 1.53371e-06 6.52882e-05 1.48127e-05 4.6986e-05 
44 1 1.49172e-06 6.88e-05 4.8e-05 4.85e-05 
53 1 1.62637e-06 6.38702e-05 1.49925e-05 4.76329e-05 
54 1 1.63566e-06 7.82616e-05 6.70871e-06 2.4569e-05 
55 1 1.5179e-06 7.15039e-05 2.74986e-05 3.78417e-05 
21 1 1.86726e-06 5.8e-05 9.35e-05 3.98e-06 
27 1 1.62733e-06 6.5e-05 5.95e-05 9.69e-06 
17 1 1.95071e-06 7.67e-05 9.16e-05 2.04e-05 
13 1 1.76294e-06 7.63e-05 6.13e-05 3.1e-05 
10 1 1.52301e-06 7.67e-05 8.86e-05 3.23e-05 
6 1 1.89855e-06 8.67e-05 5.23e-05 3.35e-05 
11 1 1.79424e-06 6.67e-05 7.69e-05 3.75e-05 
34 1 1.88812e-06 6.45e-05 7.95e-05 4.31e-05 
ITEM: TIMESTEP
800
ITEM: NUMBER OF ATOMS
55
ITEM: BOX BOUNDS ff ff ff
0.0000000000000000e+00 1.0000000000000000e-04
0.0000000000000000e+00 1.0000000000000000e-04
0.0000000000000000e+00 5.0000000000000002e-05
ITEM: ATOMS id type diameter x y z 
50 1 1.66867e-06 1.92e-05 1.76e-05 8.21e-06 
5 1 1.6057e-06 4.14e-05 2.84e-05 1.05e-05 
24 1 1.5952e-06 5.95e-06 4.8e-05 1.59e-05 
49 1 1.91005e-06 5.4e-06 2.47e-05 2.24e-05 
3 1 1.83658e-06 3.39e-05 2.79e-05 3.23e-05 
7 1 1.85757e-06 2.36e-05 4.61e-05 4.15e-05 
48 1 1.5952e-06 2.55e-05 8.15e-06 4.18e-05 
20 1 1.44828e-06 1.14e-05 3.09e-05 4.33e-05 
8 1 1.543e-06 4.98882e-05 3.11127e-05 4.2886e-05 
23 1 1.72114e-06 4.14e-05 3.23e-06 4.5e-05 
52 1 1.63622e-06 4.84702e-05 3.12925e-05 4.35329e-05 
47 1 1.91005e-06 3.29e-05 5.9e-05 2.58e-06 
14 1 1.8051e-06 4.56e-05 8.98e-05 2.65e-06 
36 1 1.67916e-06 4.03e-05 5.88e-05 5.33e-06 
9 1 1.78411e-06 1.18e-05 6.24e-05 5.91e-06 
31 1 1.68966e-06 4.49e-05 5.48e-05 6.12e-06 
4 1 1.85757e-06 3.25e-05 9.01e-05 1.4e-05 
43 1 1.88906e-06 4.84e-05 5.45e-05 1.45e-05 
40 1 1.94153e-06 4.39e-05 8.15e-05 1.77e-05 
22 1 1.57422e-06 1.82e-05 6.73e-05 2.38e-05 
12 1 1.92054e-06 4.7e-05 5.74e-05 2.69e-05 
42 1 1.78411e-06 1.2e-05 5.02e-05 3.29e-05 
38 1 1.79461e-06 3.89e-05 9.26e-05 3.67e-05 
46 1 1.61619e-06 1.96e-05 7.98e-05 3.92e-05 
41 1 1.55108e-06 2.00057e-05 5.47105e-05 3.9978e-05 
51 1 1.64478e-06 1.85527e-05 5.48947e-05 4.06409e-05 
30 1 1.47976e-06 5.74e-05 4.23e-05 9.23e-06 
15 1 1.76312e-06 5.57e-05 3.08e-05 1.46e-05 
33 1 1.75263e-06 6.96e-05 3.28e-05 2.19e-05 
29 1 1.74213e-06 6.64e-05 1.08e-05 2.34e-05 
32 1 1.63718e-06 7.79e-05 3.12e-05 2.37e-05 
19 1 1.47976e-06 7.43e-05 4.52e-05 2.4e-05 
1 1 1.51427e-06 7.91034e-05 5.38624e-06 2.46285e-05 
45 1 1.61619e-06 7.37e-05 1.19e-05 2.79e-05 
2 1 1.63718e-06 8.03e-05 4.09e-06 3.65e-05 
18 1 1.83658e-06 5.53e-05 2.27e-05 3.64e-05 
25 1 1.45877e-06 5.64e-05 3.05e-05 3.73e-05 
28 1 1.63455e-06 7.02536e-05 2.75015e-05 3.87906e-05 
16 1 1.66867e-06 8.74e-05 1.4e-05 4.48e-05 
35 1 1.93104e-06 6.37e-05 3.22e-05 4.57e-05 
37 1 1.44828e-06 8.79e-05 3.52e-05 4.69e-05 
26 1 1.56372e-06 6.81e-05 3.79e-05 4.69e-05 
39 1 1.543e-06 6.52882e-05 1.48127e-05 4.6986e-05 
44 1 1.50075e-06 6.88e-05 4.8e-05 4.85e-05 
53 1 1.63622e-06 6.38702e-05 1.49925e-05 4.76329e-05 
54 1 1.64557e-06 7.82616e-05 6.70871e-06 2.4569e-05 
55 1 1.52709e-06 7.15039e-05 2.74986e-05 3.78417e-05 
21 1 1.87856e-06 5.8e-05 9.35e-05 3.98e-06 
27 1 1.63718e-06 6.5e-05 5.95e-05 9.69e-06 
17 1 1.96252e-06 7.67e-05 9.16e-05 2.04e-05 
13 1 1.77362e-06 7.63e-05 6.13e-05 3.1e-05 
10 1 1.53224e-06 7.67e-05 8.86e-05 3.23e-05 
6 1 1.91005e-06 8.67e-05 5.23e-05 3.35e-05 
11 1 1.8051e-06 6.67e-05 7.69e-05 3.75e-05 
34 1 1.89955e-06 6.45e-05 7.95e-05 4.31e-05 
ITEM: TIMESTEP
900
ITEM: NUMBER OF ATOMS
56
ITEM: BOX BOUNDS ff ff ff
0.0000000000000000e+00 1.0000000000000000e-04
0.0000000000000000e+00 1.0000000000000000e-04
0.0000000000000000e+00 5.0000000000000002e-05
ITEM: ATOMS id type diameter x y z 
50 1 1.67877e-06 1.92e-05 1.76e-05 8.21e-06 
5 1 1.61542e-06 4.14e-05 2.84e-05 1.05e-05 
24 1 1.60486e-06 5.95e-06 4.8e-05 1.59e-05 
49 1 1.92161e-06 5.4e-06 2.47e-05 2.24e-05 
3 1 1.8477e-06 3.39e-05 2.79e-05 3.23e-05 
7 1 1.86882e-06 2.36e-05 4.61e-05 4.15e-05 
48 1 1.60486e-06 2.55e-05 8.15e-06 4.18e-05 
20 1 1.45705e-06 1.14e-05 3.09e-05 4.33e-05 
8 1 1.55234e-06 4.99063e-05 3.11104e-05 4.28778e-05 
23 1 1.73156e-06 4.14e-05 3.23e-06 4.5e-05 
52 1 1.64612e-06 4.84522e-05 3.12948e-05 4.35412e-05 
47 1 1.92161e-06 3.29e-05 5.9e-05 2.58e-06 
14 1 1.81603e-06 4.56e-05 8.98e-05 2.65e-06 
36 1 1.68933e-06 4.03e-05 5.88e-05 5.33e-06 
9 1 1.79491e-06 1.18e-05 6.24e-05 5.91e-06 
31 1 1.69989e-06 4.49e-05 5.48e-05 6.12e-06 
4 1 1.86882e-06 3.25e-05 9.01e-05 1.4e-05 
43 1 1.9005e-06 4.84e-05 5.45e-05 1.45e-05 
40 1 1.95329e-06 4.39e-05 8.15e-05 1.77e-05 
22 1 1.58375e-06 1.82e-05 6.73e-05 2.38e-05 
12 1 1.93217e-06 4.7e-05 5.74e-05 2.69e-05 
42 1 1.79491e-06 1.2e-05 5.02e-05 3.29e-05 
38 1 1.80547e-06 3.89e-05 9.26e-05 3.67e-05 
46 1 1.62598e-06 1.96e-05 7.98e-05 3.92e-05 
41 1 1.56047e-06 2.00057e-05 5.47105e-05 3.9978e-05 
51 1 1.65474e-06 1.85527e-05 5.48947e-05 4.06409e-05 
30 1 1.48872e-06 5.74e-05 4.23e-05 9.23e-06 
15 1 1.7738e-06 5.57e-05 3.08e-05 1.46e-05 
33 1 1.76324e-06 6.96e-05 3.28e-05 2.19e-05 
29 1 1.75268e-06 6.64e-05 1.08e-05 2.34e-05 
32 1 1.6471e-06 7.79e-05 3.12e-05 2.37e-05 
19 1 1.48872e-06 7.43e-05 4.52e-05 2.4e-05 
1 1 1.52344e-06 7.91034e-05 5.38624e-06 2.46285e-05 
45 1 1.62598e-06 7.37e-05 1.19e-05 2.79e-05 
2 1 1.6471e-06 8.03e-05 4.09e-06 3.65e-05 
18 1 1.8477e-06 5.53e-05 2.27e-05 3.64e-05 
25 1 1.46761e-06 5.64e-05 3.05e-05 3.73e-05 
28 1 1.64444e-06 7.02536e-05 2.75015e-05 3.87906e-05 
16 1 1.67877e-06 8.74e-05 1.4e-05 4.48e-05 
35 1 1.94273e-06 6.37e-05 3.22e-05 4.57e-05 
37 1 1.45705e-06 8.79e-05 3.52e-05 4.69e-05 
26 1 1.57319e-06 6.81e-05 3.79e-05 4.69e-05 
39 1 1.55234e-06 6.53063e-05 1.48104e-05 4.69778e-05 
44 1 1.50984e-06 6.88e-05 4.8e-05 4.85e-05 
53 1 1.64612e-06 6.38522e-05 1.49948e-05 4.76412e-05 
54 1 1.65553e-06 7.82616e-05 6.70871e-06 2.4569e-05 
55 1 1.53634e-06 7.15039e-05 2.74986e-05 3.78417e-05 
21 1 1.88994e-06 5.8e-05 9.35e-05 3.98e-06 
27 1 1.6471e-06 6.5e-05 5.95e-05 9.69e-06 
17 1 1.51983e-06 7.73861e-05 9.1513e-05 2.0087e-05 
13 1 1.78435e-06 7.63e-05 6.13e-05 3.1e-05 
10 1 1.54151e-06 7.67e-05 8.86e-05 3.23e-05 
6 1 1.92161e-06 8.67e-05 5.23e-05 3.35e-05 
11 1 1.81603e-06 6.67e-05 7.69e-05 3.75e-05 
34 1 1.91105e-06 6.45e-05 7.95e-05 4.31e-05 
56 1 1.61165e-06 7.59725e-05 9.16922e-05 2.07319e-05 
ITEM: TIMESTEP
1000
ITEM: NUMBER OF ATOMS
56
ITEM: BOX BOUNDS ff ff ff
0.0000000000000000e+00 1.0000000000000000e-04
0.0000000000000000e+00 1.0000000000000000e-04
0.0000000000000000e+00 5.0000000000000002e-05
ITEM: ATOMS id type diameter x y z 
50 1 1.68894e-06 1.92e-05 1.76e-05 8.21e-06 
5 1 1.6252e-06 4.14e-05 2.84e-05 1.05e-05 
24 1 1.61458e-06 5.95e-06 4.8e-05 1.59e-05 
49 1 1.93325e-06 5.4e-06 2.47e-05 2.24e-05 
3 1 1.85889e-06 3.39e-05 2.79e-05 3.23e-05 
7 1 1.88014e-06 2.36e-05 4.61e-05 4.15e-05 
48 1 1.61458e-06 2.55e-05 8.15e-06 4.18e-05 
8 1 1.56174e-06 4.99063e-05 3.11104e-05 4.28778e-05 
20 1 1.46587e-06 1.14e-05 3.09e-05 4.33e-05 
52 1 1.65609e-06 4.84522e-05 3.12948e-05 4.35412e-05 
23 1 1.74205e-06 4.14e-05 3.23e-06 4.5e-05 
47 1 1.93325e-06 3.29e-05 5.9e-05 2.58e-06 
14 1 1.82703e-06 4.56e-05 8.98e-05 2.65e-06 
36 1 1.69956e-06 4.03e-05 5.88e-05 5.33e-06 
9 1 1.80578e-06 1.18e-05 6.24e-05 5.91e-06 
31 1 1.71018e-06 4.49e-05 5.48e-05 6.12e-06 
4 1 1.88014e-06 3.25e-05 9.01e-05 1.4e-05 
43 1 1.912e-06 4.84e-05 5.45e-05 1.45e-05 
40 1 1.96511e-06 4.39e-05 8.15e-05 1.77e-05 
22 1 1.59334e-06 1.82e-05 6.73e-05 2.38e-05 
12 1 1.94387e-06 4.7e-05 5.74e-05 2.69e-05 
42 1 1.80578e-06 1.2e-05 5.02e-05 3.29e-05 
38 1 1.8164e-06 3.89e-05 9.26e-05 3.67e-05 
46 1 1.63582e-06 1.96e-05 7.98e-05 3.92e-05 
41 1 1.56992e-06 2.00057e-05 5.47105e-05 3.9978e-05 
51 1 1.66476e-06 1.85527e-05 5.48947e-05 4.06409e-05 
30 1 1.49774e-06 5.74e-05 4.23e-05 9.23e-06 
15 1 1.78454e-06 5.57e-05 3.08e-05 1.46e-05 
33 1 1.77391e-06 6.96e-05 3.28e-05 2.19e-05 
29 1 1.76329e-06 6.64e-05 1.08e-05 2.34e-05 
32 1 1.65707e-06 7.79e-05 3.12e-05 2.37e-05 
19 1 1.49774e-06 7.43e-05 4.52e-05 2.4e-05 
1 1 1.53267e-06 7.91141e-05 5.36938e-06 2.46292e-05 
54 1 1.66556e-06 7.82509e-05 6.72557e-06 2.45683e-05 
45 1 1.63582e-06 7.37e-05 1.19e-05 2.79e-05 
2 1 1.65707e-06 8.03e-05 4.09e-06 3.65e-05 
18 1 1.85889e-06 5.53e-05 2.27e-05 3.64e-05 
25 1 1.47649e-06 5.64e-05 3.05e-05 3.73e-05 
55 1 1.54564e-06 7.15199e-05 2.74986e-05 3.78296e-05 
28 1 1.6544e-06 7.02376e-05 2.75015e-05 3.88027e-05 
16 1 1.68894e-06 8.74e-05 1.4e-05 4.48e-05 
35 1 1.95449e-06 6.37e-05 3.22e-05 4.57e-05 
39 1 1.56174e-06 6.53063e-05 1.48104e-05 4.69778e-05 
37 1 1.46587e-06 8.79e-05 3.52e-05 4.69e-05 
26 1 1.58271e-06 6.81e-05 3.79e-05 4.69e-05 
53 1 1.65609e-06 6.38522e-05 1.49948e-05 4.76412e-05 
44 1 1.51898e-06 6.88e-05 4.8e-05 4.85e-05 
21 1 1.90138e-06 5.8e-05 9.35e-05 3.98e-06 
27 1 1.65707e-06 6.5e-05 5.95e-05 9.69e-06 
17 1 1.52903e-06 7.73861e-05 9.1513e-05 2.0087e-05 
56 1 1.62141e-06 7.59725e-05 9.16922e-05 2.07319e-05 
13 1 1.79516e-06 7.63e-05 6.13e-05 3.1e-05 
10 1 1.55085e-06 7.67e-05 8.86e-05 3.23e-05 
6 1 1.93325e-06 8.67e-05 5.23e-05 3.35e-05 
11 1 1.82703e-06 6.67e-05 7.69e-05 3.75e-05 
34 1 1.92263e-06 6.45e-05 7.95e-05 4.31e-05 
ITEM: TIMESTEP
1100
ITEM: NUMBER OF ATOMS
57
ITEM: BOX BOUNDS ff ff ff
0.0000000000000000e+00 1.0000000000000000e-04
0.0000000000000000e+00 1.0000000000000000e-04
0.0000000000000000e+00 5.0000000000000002e-05
ITEM: ATOMS id type diameter x y z 
50 1 1.69916e-06 1.92e-05 1.76e-05 8.21e-06 
5 1 1.63504e-06 4.14e-05 2.84e-05 1.05e-05 
24 1 1.62436e-06 5.95e-06 4.8e-05 1.59e-05 
49 1 1.94495e-06 5.4e-06 2.47e-05 2.24e-05 
3 1 1.87015e-06 3.39e-05 2.79e-05 3.23e-05 
7 1 1.89152e-06 2.36e-05 4.61e-05 4.15e-05 
48 1 1.62436e-06 2.55e-05 8.15e-06 4.18e-05 
8 1 1.5712e-06 4.99063e-05 3.11104e-05 4.28778e-05 
20 1 1.47474e-06 1.14e-05 3.09e-05 4.33e-05 
52 1 1.66612e-06 4.84522e-05 3.12948e-05 4.35412e-05 
23 1 1.75259e-06 4.14e-05 3.23e-06 4.5e-05 
47 1 1.94495e-06 3.29e-05 5.9e-05 2.58e-06 
14 1 1.83809e-06 4.56e-05 8.98e-05 2.65e-06 
36 1 1.70985e-06 4.03e-05 5.88e-05 5.33e-06 
9 1 1.81671e-06 1.18e-05 6.24e-05 5.91e-06 
31 1 1.72054e-06 4.49e-05 5.48e-05 6.12e-06 
4 1 1.89152e-06 3.25e-05 9.01e-05 1.4e-05 
43 1 1.92358e-06 4.84e-05 5.45e-05 1.45e-05 
40 1 1.52184e-06 4.4587e-05 8.14129e-05 1.73866e-05 
57 1 1.61378e-06 4.31715e-05 8.15924e-05 1.80323e-05 
22 1 1.60298e-06 1.82e-05 6.73e-05 2.38e-05 
12 1 1.95564e-06 4.7e-05 5.74e-05 2.69e-05 
42 1 1.81671e-06 1.2e-05 5.02e-05 3.29e-05 
38 1 1.8274e-06 3.89e-05 9.26e-05 3.67e-05 
46 1 1.64573e-06 1.96e-05 7.98e-05 3.92e-05 