ITEM: TIMESTEP
0
ITEM: NUMBER OF ATOMS
50
ITEM: BOX BOUNDS ff ff ff
0.0000000000000000e+00 1.0000000000000000e-04
0.0000000000000000e+00 1.0000000000000000e-04
0.0000000000000000e+00 5.0000000000000002e-05
ITEM: ATOMS id type diameter x y z 
27 1 1.47e-06 2.56e-05 3.4e-05 4.67e-06 
20 1 1.74e-06 3.86e-05 4.9e-05 6.85e-06 
43 1 1.81e-06 1.83e-05 4.8e-05 1.04e-05 
49 1 1.6e-06 4.8e-05 2.76e-06 1.75e-05 
29 1 1.52e-06 3.05e-05 1.73e-06 2.2e-05 
14 1 1.69e-06 4.81e-05 4.33e-05 2.47e-05 
42 1 1.81e-06 3.52e-05 7.21e-06 2.65e-05 
30 1 1.88e-06 3.42e-05 3.18e-05 2.82e-05 
39 1 1.91e-06 2.11e-05 4.89e-05 2.82e-05 
4 1 1.8e-06 6.58e-06 1.78e-05 3.02e-05 
22 1 1.92e-06 3.68e-05 2.56e-05 3.55e-05 
21 1 1.82e-06 2.51e-06 2.39e-05 3.66e-05 
47 1 1.65e-06 3.2e-05 3.63e-05 3.84e-05 
15 1 1.9e-06 3.35e-05 3.97e-05 3.86e-05 
13 1 1.4e-06 2.95e-05 1.23e-05 4.05e-05 
34 1 1.9e-06 2.2e-06 8.62e-05 9.43e-06 
41 1 1.55e-06 1.03e-05 8.22e-05 9.98e-06 
8 1 1.89e-06 1.49e-05 5.69e-05 1.21e-05 
16 1 1.66e-06 1.56e-05 5.26e-05 1.3e-05 
38 1 1.41e-06 3.38e-05 6.98e-05 1.38e-05 
10 1 1.8e-06 1.18e-05 9.38e-05 1.96e-05 
37 1 1.93e-06 4.72e-05 7.83e-05 2.12e-05 
3 1 1.6e-06 4.67e-05 9.14e-05 2.24e-05 
25 1 1.5e-06 3.63e-05 7.41e-05 2.29e-05 
26 1 1.74e-06 3.25e-05 5.74e-05 2.99e-05 
23 1 1.38e-06 2.68e-05 6.87e-05 2.99e-05 
19 1 1.65e-06 8.62e-06 7.46e-05 3.11e-05 
28 1 1.54e-06 1.67e-05 7.88e-05 3.78e-05 
48 1 1.63e-06 6.4e-05 1.21e-05 7.03e-06 
18 1 1.91e-06 7.61e-05 3e-05 9.02e-06 
44 1 1.67e-06 8.71e-05 2.56e-05 2.32e-05 
11 1 1.81e-06 5.48e-05 7.22e-06 2.46e-05 
46 1 1.49e-06 8.47e-05 4.26e-05 2.53e-05 
2 1 1.4e-06 9.25e-05 3.13e-05 3.02e-05 
32 1 1.58e-06 7.05e-05 2.75e-05 3.36e-05 
35 1 1.38e-06 8.19e-05 3.32e-05 3.54e-05 
24 1 1.43e-06 7.52e-05 1.2e-05 3.94e-05 
17 1 1.8e-06 5.2e-05 4.44e-05 4.49e-05 
5 1 1.72e-06 9.27e-05 7.62e-05 5.52e-06 
33 1 1.4e-06 7.28e-05 8e-05 9.94e-06 
45 1 1.89e-06 7.67e-05 7.82e-05 1.34e-05 
50 1 1.56e-06 6.84e-05 5.7e-05 1.46e-05 
1 1 1.76e-06 9e-05 6.84e-05 1.88e-05 
9 1 1.67e-06 7.82e-05 5.69e-05 2.24e-05 
12 1 1.44e-06 5.44e-05 6.66e-05 3.33e-05 
40 1 1.48e-06 9.58e-05 5.17e-05 3.56e-05 
7 1 1.74e-06 7.46e-05 6.26e-05 3.85e-05 
31 1 1.44e-06 8.3e-05 7.11e-05 3.85e-05 
6 1 1.74e-06 6.88e-05 9.75e-05 4.43e-05 
36 1 1.76e-06 5.11e-05 5.81e-05 4.74e-05 
ITEM: TIMESTEP
100
ITEM: NUMBER OF ATOMS
50
ITEM: BOX BOUNDS ff ff ff
0.0000000000000000e+00 1.0000000000000000e-04
0.0000000000000000e+00 1.0000000000000000e-04
0.0000000000000000e+00 5.0000000000000002e-05
ITEM: ATOMS id type diameter x y z 
27 1 1.47929e-06 2.56e-05 3.4e-05 4.67e-06 
20 1 1.751e-06 3.86e-05 4.9e-05 6.85e-06 
43 1 1.82144e-06 1.83e-05 4.8e-05 1.04e-05 
49 1 1.61012e-06 4.8e-05 2.76e-06 1.75e-05 
29 1 1.52961e-06 3.05e-05 1.73e-06 2.2e-05 
14 1 1.70068e-06 4.81e-05 4.33e-05 2.47e-05 
42 1 1.82144e-06 3.52e-05 7.21e-06 2.65e-05 
30 1 1.89189e-06 3.42e-05 3.18e-05 2.82e-05 
39 1 1.92208e-06 2.11e-05 4.89e-05 2.82e-05 
4 1 1.81138e-06 6.58e-06 1.78e-05 3.02e-05 
22 1 1.93214e-06 3.68e-05 2.56e-05 3.55e-05 
21 1 1.83151e-06 2.51e-06 2.39e-05 3.66e-05 
47 1 1.66043e-06 3.2e-05 3.63e-05 3.84e-05 
15 1 1.91201e-06 3.35e-05 3.97e-05 3.86e-05 
13 1 1.40885e-06 2.95e-05 1.23e-05 4.05e-05 
34 1 1.91201e-06 2.2e-06 8.62e-05 9.43e-06 
41 1 1.5598e-06 1.03e-05 8.22e-05 9.98e-06 
8 1 1.90195e-06 1.49e-05 5.69e-05 1.21e-05 
16 1 1.67049e-06 1.56e-05 5.26e-05 1.3e-05 
38 1 1.41891e-06 3.38e-05 6.98e-05 1.38e-05 
10 1 1.81138e-06 1.18e-05 9.38e-05 1.96e-05 
37 1 1.9422e-06 4.72e-05 7.83e-05 2.12e-05 
3 1 1.61012e-06 4.67e-05 9.14e-05 2.24e-05 
25 1 1.50948e-06 3.63e-05 7.41e-05 2.29e-05 
26 1 1.751e-06 3.25e-05 5.74e-05 2.99e-05 
23 1 1.38872e-06 2.68e-05 6.87e-05 2.99e-05 
19 1 1.66043e-06 8.62e-06 7.46e-05 3.11e-05 
28 1 1.54974e-06 1.67e-05 7.88e-05 3.78e-05 
48 1 1.64031e-06 6.4e-05 1.21e-05 7.03e-06 
18 1 1.92208e-06 7.61e-05 3e-05 9.02e-06 
44 1 1.68056e-06 8.71e-05 2.56e-05 2.32e-05 
11 1 1.82144e-06 5.48e-05 7.22e-06 2.46e-05 
46 1 1.49942e-06 8.47e-05 4.26e-05 2.53e-05 
2 1 1.40885e-06 9.25e-05 3.13e-05 3.02e-05 
32 1 1.58999e-06 7.05e-05 2.75e-05 3.36e-05 
35 1 1.38872e-06 8.19e-05 3.32e-05 3.54e-05 
24 1 1.43904e-06 7.52e-05 1.2e-05 3.94e-05 
17 1 1.81138e-06 5.2e-05 4.44e-05 4.49e-05 
5 1 1.73087e-06 9.27e-05 7.62e-05 5.52e-06 
33 1 1.40885e-06 7.28e-05 8e-05 9.94e-06 
45 1 1.90195e-06 7.67e-05 7.82e-05 1.34e-05 
50 1 1.56986e-06 6.84e-05 5.7e-05 1.46e-05 
1 1 1.77113e-06 9e-05 6.84e-05 1.88e-05 
9 1 1.68056e-06 7.82e-05 5.69e-05 2.24e-05 
12 1 1.4491e-06 5.44e-05 6.66e-05 3.33e-05 
40 1 1.48936e-06 9.58e-05 5.17e-05 3.56e-05 
7 1 1.751e-06 7.46e-05 6.26e-05 3.85e-05 
31 1 1.4491e-06 8.3e-05 7.11e-05 3.85e-05 
6 1 1.751e-06 6.88e-05 9.75e-05 4.43e-05 
36 1 1.77113e-06 5.11e-05 5.81e-05 4.74e-05 
ITEM: TIMESTEP
200
ITEM: NUMBER OF ATOMS
50
ITEM: BOX BOUNDS ff ff ff
0.0000000000000000e+00 1.0000000000000000e-04
0.0000000000000000e+00 1.0000000000000000e-04
0.0000000000000000e+00 5.0000000000000002e-05
ITEM: ATOMS id type diameter x y z 
27 1 1.48865e-06 2.56e-05 3.4e-05 4.67e-06 
20 1 1.76207e-06 3.86e-05 4.9e-05 6.85e-06 
43 1 1.83296e-06 1.83e-05 4.8e-05 1.04e-05 
49 1 1.62029e-06 4.8e-05 2.76e-06 1.75e-05 
29 1 1.53928e-06 3.05e-05 1.73e-06 2.2e-05 
14 1 1.71144e-06 4.81e-05 4.33e-05 2.47e-05 
42 1 1.83296e-06 3.52e-05 7.21e-06 2.65e-05 
30 1 1.90385e-06 3.42e-05 3.18e-05 2.82e-05 
39 1 1.93423e-06 2.11e-05 4.89e-05 2.82e-05 
4 1 1.82283e-06 6.58e-06 1.78e-05 3.02e-05 
22 1 1.94435e-06 3.68e-05 2.56e-05 3.55e-05 
21 1 1.84309e-06 2.51e-06 2.39e-05 3.66e-05 
47 1 1.67093e-06 3.2e-05 3.63e-05 3.84e-05 
15 1 1.9241e-06 3.35e-05 3.97e-05 3.86e-05 
13 1 1.41776e-06 2.95e-05 1.23e-05 4.05e-05 
34 1 1.9241e-06 2.2e-06 8.62e-05 9.43e-06 
41 1 1.56966e-06 1.03e-05 8.22e-05 9.98e-06 
8 1 1.91397e-06 1.49e-05 5.69e-05 1.21e-05 
16 1 1.68106e-06 1.56e-05 5.26e-05 1.3e-05 
38 1 1.42788e-06 3.38e-05 6.98e-05 1.38e-05 
10 1 1.82283e-06 1.18e-05 9.38e-05 1.96e-05 
37 1 1.95448e-06 4.72e-05 7.83e-05 2.12e-05 
3 1 1.62029e-06 4.67e-05 9.14e-05 2.24e-05 
25 1 1.51903e-06 3.63e-05 7.41e-05 2.29e-05 
26 1 1.76207e-06 3.25e-05 5.74e-05 2.99e-05 
23 1 1.3975e-06 2.68e-05 6.87e-05 2.99e-05 
19 1 1.67093e-06 8.62e-06 7.46e-05 3.11e-05 
28 1 1.55953e-06 1.67e-05 7.88e-05 3.78e-05 
48 1 1.65068e-06 6.4e-05 1.21e-05 7.03e-06 
18 1 1.93423e-06 7.61e-05 3e-05 9.02e-06 
44 1 1.69118e-06 8.71e-05 2.56e-05 2.32e-05 
11 1 1.83296e-06 5.48e-05 7.22e-06 2.46e-05 
46 1 1.5089e-06 8.47e-05 4.26e-05 2.53e-05 
2 1 1.41776e-06 9.25e-05 3.13e-05 3.02e-05 
32 1 1.60004e-06 7.05e-05 2.75e-05 3.36e-05 
35 1 1.3975e-06 8.19e-05 3.32e-05 3.54e-05 
24 1 1.44814e-06 7.52e-05 1.2e-05 3.94e-05 
17 1 1.82283e-06 5.2e-05 4.44e-05 4.49e-05 
5 1 1.74182e-06 9.27e-05 7.62e-05 5.52e-06 
33 1 1.41776e-06 7.28e-05 8e-05 9.94e-06 
45 1 1.91397e-06 7.67e-05 7.82e-05 1.34e-05 
50 1 1.57979e-06 6.84e-05 5.7e-05 1.46e-05 
1 1 1.78232e-06 9e-05 6.84e-05 1.88e-05 
9 1 1.69118e-06 7.82e-05 5.69e-05 2.24e-05 
12 1 1.45827e-06 5.44e-05 6.66e-05 3.33e-05 
40 1 1.49877e-06 9.58e-05 5.17e-05 3.56e-05 
7 1 1.76207e-06 7.46e-05 6.26e-05 3.85e-05 
31 1 1.45827e-06 8.3e-05 7.11e-05 3.85e-05 
6 1 1.76207e-06 6.88e-05 9.75e-05 4.43e-05 
36 1 1.78232e-06 5.11e-05 5.81e-05 4.74e-05 
ITEM: TIMESTEP
300
ITEM: NUMBER OF ATOMS
50
ITEM: BOX BOUNDS ff ff ff
0.0000000000000000e+00 1.0000000000000000e-04
0.0000000000000000e+00 1.0000000000000000e-04
0.0000000000000000e+00 5.0000000000000002e-05
ITEM: ATOMS id type diameter x y z 
27 1 1.49806e-06 2.56e-05 3.4e-05 4.67e-06 
20 1 1.77321e-06 3.86e-05 4.9e-05 6.85e-06 
43 1 1.84455e-06 1.83e-05 4.8e-05 1.04e-05 
49 1 1.63054e-06 4.8e-05 2.76e-06 1.75e-05 
29 1 1.54901e-06 3.05e-05 1.73e-06 2.2e-05 
14 1 1.72226e-06 4.81e-05 4.33e-05 2.47e-05 
42 1 1.84455e-06 3.52e-05 7.21e-06 2.65e-05 
30 1 1.91588e-06 3.42e-05 3.18e-05 2.82e-05 
39 1 1.94646e-06 2.11e-05 4.89e-05 2.82e-05 
4 1 1.83436e-06 6.58e-06 1.78e-05 3.02e-05 
22 1 1.95665e-06 3.68e-05 2.56e-05 3.55e-05 
21 1 1.85474e-06 2.51e-06 2.39e-05 3.66e-05 
47 1 1.68149e-06 3.2e-05 3.63e-05 3.84e-05 
15 1 1.93626e-06 3.35e-05 3.97e-05 3.86e-05 
13 1 1.42672e-06 2.95e-05 1.23e-05 4.05e-05 
34 1 1.93626e-06 2.2e-06 8.62e-05 9.43e-06 
41 1 1.57958e-06 1.03e-05 8.22e-05 9.98e-06 
8 1 1.92607e-06 1.49e-05 5.69e-05 1.21e-05 
16 1 1.69168e-06 1.56e-05 5.26e-05 1.3e-05 
38 1 1.43691e-06 3.38e-05 6.98e-05 1.38e-05 
10 1 1.83436e-06 1.18e-05 9.38e-05 1.96e-05 
37 1 1.96684e-06 4.72e-05 7.83e-05 2.12e-05 
3 1 1.63054e-06 4.67e-05 9.14e-05 2.24e-05 
25 1 1.52863e-06 3.63e-05 7.41e-05 2.29e-05 
26 1 1.77321e-06 3.25e-05 5.74e-05 2.99e-05 
23 1 1.40634e-06 2.68e-05 6.87e-05 2.99e-05 
19 1 1.68149e-06 8.62e-06 7.46e-05 3.11e-05 
28 1 1.56939e-06 1.67e-05 7.88e-05 3.78e-05 
48 1 1.66111e-06 6.4e-05 1.21e-05 7.03e-06 
18 1 1.94646e-06 7.61e-05 3e-05 9.02e-06 
44 1 1.70187e-06 8.71e-05 2.56e-05 2.32e-05 
11 1 1.84455e-06 5.48e-05 7.22e-06 2.46e-05 
46 1 1.51844e-06 8.47e-05 4.26e-05 2.53e-05 
2 1 1.42672e-06 9.25e-05 3.13e-05 3.02e-05 
32 1 1.61016e-06 7.05e-05 2.75e-05 3.36e-05 
35 1 1.40634e-06 8.19e-05 3.32e-05 3.54e-05 
24 1 1.45729e-06 7.52e-05 1.2e-05 3.94e-05 
17 1 1.83436e-06 5.2e-05 4.44e-05 4.49e-05 
5 1 1.75283e-06 9.27e-05 7.62e-05 5.52e-06 
33 1 1.42672e-06 7.28e-05 8e-05 9.94e-06 
45 1 1.92607e-06 7.67e-05 7.82e-05 1.34e-05 
50 1 1.58978e-06 6.84e-05 5.7e-05 1.46e-05 
1 1 1.79359e-06 9e-05 6.84e-05 1.88e-05 
9 1 1.70187e-06 7.82e-05 5.69e-05 2.24e-05 
12 1 1.46748e-06 5.44e-05 6.66e-05 3.33e-05 
40 1 1.50825e-06 9.58e-05 5.17e-05 3.56e-05 
7 1 1.77321e-06 7.46e-05 6.26e-05 3.85e-05 
31 1 1.46748e-06 8.3e-05 7.11e-05 3.85e-05 
6 1 1.77321e-06 6.88e-05 9.75e-05 4.43e-05 
36 1 1.79359e-06 5.11e-05 5.81e-05 4.74e-05 
ITEM: TIMESTEP
400
ITEM: NUMBER OF ATOMS
51
ITEM: BOX BOUNDS ff ff ff
0.0000000000000000e+00 1.0000000000000000e-04
0.0000000000000000e+00 1.0000000000000000e-04
0.0000000000000000e+00 5.0000000000000002e-05
ITEM: ATOMS id type diameter x y z 
27 1 1.50753e-06 2.56e-05 3.4e-05 4.67e-06 
20 1 1.78442e-06 3.86e-05 4.9e-05 6.85e-06 
43 1 1.85621e-06 1.83e-05 4.8e-05 1.04e-05 
49 1 1.64085e-06 4.8e-05 2.76e-06 1.75e-05 
29 1 1.5588e-06 3.05e-05 1.73e-06 2.2e-05 
14 1 1.73314e-06 4.81e-05 4.33e-05 2.47e-05 
42 1 1.85621e-06 3.52e-05 7.21e-06 2.65e-05 
30 1 1.928e-06 3.42e-05 3.18e-05 2.82e-05 
39 1 1.95876e-06 2.11e-05 4.89e-05 2.82e-05 
4 1 1.84595e-06 6.58e-06 1.78e-05 3.02e-05 
22 1 1.96902e-06 3.68e-05 2.56e-05 3.55e-05 
21 1 1.86646e-06 2.51e-06 2.39e-05 3.66e-05 
47 1 1.69212e-06 3.2e-05 3.63e-05 3.84e-05 
15 1 1.94851e-06 3.35e-05 3.97e-05 3.86e-05 
13 1 1.43574e-06 2.95e-05 1.23e-05 4.05e-05 
34 1 1.94851e-06 2.2e-06 8.62e-05 9.43e-06 
41 1 1.58957e-06 1.03e-05 8.22e-05 9.98e-06 
8 1 1.93825e-06 1.49e-05 5.69e-05 1.21e-05 
16 1 1.70238e-06 1.56e-05 5.26e-05 1.3e-05 
38 1 1.446e-06 3.38e-05 6.98e-05 1.38e-05 
10 1 1.84595e-06 1.18e-05 9.38e-05 1.96e-05 
37 1 1.52672e-06 4.69218e-05 7.76067e-05 2.10481e-05 
3 1 1.64085e-06 4.67e-05 9.14e-05 2.24e-05 
25 1 1.53829e-06 3.63e-05 7.41e-05 2.29e-05 
26 1 1.78442e-06 3.25e-05 5.74e-05 2.99e-05 
23 1 1.41523e-06 2.68e-05 6.87e-05 2.99e-05 
19 1 1.69212e-06 8.62e-06 7.46e-05 3.11e-05 
28 1 1.57932e-06 1.67e-05 7.88e-05 3.78e-05 
51 1 1.61282e-06 4.74939e-05 7.90324e-05 2.13605e-05 
48 1 1.67161e-06 6.4e-05 1.21e-05 7.03e-06 
18 1 1.95876e-06 7.61e-05 3e-05 9.02e-06 
44 1 1.71263e-06 8.71e-05 2.56e-05 2.32e-05 
11 1 1.85621e-06 5.48e-05 7.22e-06 2.46e-05 
46 1 1.52804e-06 8.47e-05 4.26e-05 2.53e-05 
2 1 1.43574e-06 9.25e-05 3.13e-05 3.02e-05 
32 1 1.62034e-06 7.05e-05 2.75e-05 3.36e-05 
35 1 1.41523e-06 8.19e-05 3.32e-05 3.54e-05 
24 1 1.46651e-06 7.52e-05 1.2e-05 3.94e-05 
17 1 1.84595e-06 5.2e-05 4.44e-05 4.49e-05 
5 1 1.76391e-06 9.27e-05 7.62e-05 5.52e-06 
33 1 1.43574e-06 7.28e-05 8e-05 9.94e-06 
45 1 1.93825e-06 7.67e-05 7.82e-05 1.34e-05 
50 1 1.59983e-06 6.84e-05 5.7e-05 1.46e-05 
1 1 1.80493e-06 9e-05 6.84e-05 1.88e-05 
9 1 1.71263e-06 7.82e-05 5.69e-05 2.24e-05 
12 1 1.47676e-06 5.44e-05 6.66e-05 3.33e-05 
40 1 1.51778e-06 9.58e-05 5.17e-05 3.56e-05 
7 1 1.78442e-06 7.46e-05 6.26e-05 3.85e-05 
31 1 1.47676e-06 8.3e-05 7.11e-05 3.85e-05 
6 1 1.78442e-06 6.88e-05 9.75e-05 4.43e-05 
36 1 1.80493e-06 5.11e-05 5.81e-05 4.74e-05 
ITEM: TIMESTEP
500
ITEM: NUMBER OF ATOMS
52
ITEM: BOX BOUNDS ff ff ff
0.0000000000000000e+00 1.0000000000000000e-04
0.0000000000000000e+00 1.0000000000000000e-04
0.0000000000000000e+00 5.0000000000000002e-05
ITEM: ATOMS id type diameter x y z 
27 1 1.51706e-06 2.56e-05 3.4e-05 4.67e-06 
20 1 1.7957e-06 3.86e-05 4.9e-05 6.85e-06 
43 1 1.86794e-06 1.83e-05 4.8e-05 1.04e-05 
49 1 1.65122e-06 4.8e-05 2.76e-06 1.75e-05 
29 1 1.56866e-06 3.05e-05 1.73e-06 2.2e-05 
14 1 1.7441e-06 4.81e-05 4.33e-05 2.47e-05 
42 1 1.86794e-06 3.52e-05 7.21e-06 2.65e-05 
30 1 1.94018e-06 3.42e-05 3.18e-05 2.82e-05 
39 1 1.97114e-06 2.11e-05 4.89e-05 2.82e-05 
4 1 1.85762e-06 6.58e-06 1.78e-05 3.02e-05 
22 1 1.52841e-06 3.65215e-05 2.49059e-05 3.53479e-05 
21 1 1.87826e-06 2.51e-06 2.39e-05 3.66e-05 
47 1 1.70282e-06 3.2e-05 3.63e-05 3.84e-05 
15 1 1.96082e-06 3.35e-05 3.97e-05 3.86e-05 
13 1 1.44482e-06 2.95e-05 1.23e-05 4.05e-05 
52 1 1.6146e-06 3.70942e-05 2.63332e-05 3.56607e-05 
34 1 1.96082e-06 2.2e-06 8.62e-05 9.43e-06 
41 1 1.59962e-06 1.03e-05 8.22e-05 9.98e-06 
8 1 1.9505e-06 1.49e-05 5.69e-05 1.21e-05 
16 1 1.71314e-06 1.56e-05 5.26e-05 1.3e-05 
38 1 1.45514e-06 3.38e-05 6.98e-05 1.38e-05 
10 1 1.85762e-06 1.18e-05 9.38e-05 1.96e-05 
37 1 1.53637e-06 4.69218e-05 7.76067e-05 2.10481e-05 
3 1 1.65122e-06 4.67e-05 9.14e-05 2.24e-05 
25 1 1.54802e-06 3.63e-05 7.41e-05 2.29e-05 
26 1 1.7957e-06 3.25e-05 5.74e-05 2.99e-05 
23 1 1.42418e-06 2.68e-05 6.87e-05 2.99e-05 
19 1 1.70282e-06 8.62e-06 7.46e-05 3.11e-05 
28 1 1.5893e-06 1.67e-05 7.88e-05 3.78e-05 
51 1 1.62301e-06 4.74939e-05 7.90324e-05 2.13605e-05 
48 1 1.68218e-06 6.4e-05 1.21e-05 7.03e-06 
18 1 1.97114e-06 7.61e-05 3e-05 9.02e-06 
44 1 1.72346e-06 8.71e-05 2.56e-05 2.32e-05 
11 1 1.86794e-06 5.48e-05 7.22e-06 2.46e-05 
46 1 1.5377e-06 8.47e-05 4.26e-05 2.53e-05 
2 1 1.44482e-06 9.25e-05 3.13e-05 3.02e-05 
32 1 1.63058e-06 7.05e-05 2.75e-05 3.36e-05 
35 1 1.42418e-06 8.19e-05 3.32e-05 3.54e-05 
24 1 1.47578e-06 7.52e-05 1.2e-05 3.94e-05 
17 1 1.85762e-06 5.2e-05 4.44e-05 4.49e-05 
5 1 1.77506e-06 9.27e-05 7.62e-05 5.52e-06 
33 1 1.44482e-06 7.28e-05 8e-05 9.94e-06 
45 1 1.9505e-06 7.67e-05 7.82e-05 1.34e-05 
50 1 1.60994e-06 6.84e-05 5.7e-05 1.46e-05 
1 1 1.81634e-06 9e-05 6.84e-05 1.88e-05 
9 1 1.72346e-06 7.82e-05 5.69e-05 2.24e-05 
12 1 1.4861e-06 5.44e-05 6.66e-05 3.33e-05 
40 1 1.52738e-06 9.58e-05 5.17e-05 3.56e-05 
7 1 1.7957e-06 7.46e-05 6.26e-05 3.85e-05 
31 1 1.4861e-06 8.3e-05 7.11e-05 3.85e-05 
6 1 1.7957e-06 6.88e-05 9.75e-05 4.43e-05 
36 1 1.81634e-06 5.11e-05 5.81e-05 4.74e-05 
ITEM: TIMESTEP
600
ITEM: NUMBER OF ATOMS
56
ITEM: BOX BOUNDS ff ff ff
0.0000000000000000e+00 1.0000000000000000e-04
0.0000000000000000e+00 1.0000000000000000e-04
0.0000000000000000e+00 5.0000000000000002e-05
ITEM: ATOMS id type diameter x y z 
27 1 1.52665e-06 2.56e-05 3.4e-05 4.67e-06 
20 1 1.80706e-06 3.86e-05 4.9e-05 6.85e-06 
43 1 1.87975e-06 1.83e-05 4.8e-05 1.04e-05 
49 1 1.66166e-06 4.8e-05 2.76e-06 1.75e-05 
29 1 1.57858e-06 3.05e-05 1.73e-06 2.2e-05 
14 1 1.75513e-06 4.81e-05 4.33e-05 2.47e-05 
42 1 1.87975e-06 3.52e-05 7.21e-06 2.65e-05 
30 1 1.95245e-06 3.42e-05 3.18e-05 2.82e-05 
39 1 1.66289e-06 2.05409e-05 4.91871e-05 2.76573e-05 
4 1 1.86937e-06 6.58e-06 1.78e-05 3.02e-05 
22 1 1.53808e-06 3.65215e-05 2.49059e-05 3.53479e-05 
21 1 1.89014e-06 2.51e-06 2.39e-05 3.66e-05 
47 1 1.71359e-06 3.2e-05 3.63e-05 3.84e-05 
15 1 1.65862e-06 3.36096e-05 3.93173e-05 3.93263e-05 
13 1 1.45395e-06 2.95e-05 1.23e-05 4.05e-05 
52 1 1.62481e-06 3.70942e-05 2.63332e-05 3.56607e-05 
53 1 1.47463e-06 2.15958e-05 4.86454e-05 2.86812e-05 
54 1 1.46123e-06 3.34035e-05 4.00371e-05 3.79601e-05 
34 1 1.52205e-06 1.92266e-06 8.55088e-05 9.27852e-06 
41 1 1.60973e-06 1.03e-05 8.22e-05 9.98e-06 
8 1 1.96284e-06 1.49e-05 5.69e-05 1.21e-05 
16 1 1.72397e-06 1.56e-05 5.26e-05 1.3e-05 
38 1 1.46434e-06 3.38e-05 6.98e-05 1.38e-05 
10 1 1.86937e-06 1.18e-05 9.38e-05 1.96e-05 
55 1 1.60789e-06 2.49298e-06 8.69302e-05 9.59002e-06 
37 1 1.54609e-06 4.69218e-05 7.76067e-05 2.10481e-05 
3 1 1.66166e-06 4.67e-05 9.14e-05 2.24e-05 
25 1 1.55781e-06 3.63e-05 7.41e-05 2.29e-05 
26 1 1.80706e-06 3.25e-05 5.74e-05 2.99e-05 
23 1 1.43318e-06 2.68e-05 6.87e-05 2.99e-05 
19 1 1.71359e-06 8.62e-06 7.46e-05 3.11e-05 
28 1 1.59935e-06 1.67e-05 7.88e-05 3.78e-05 
51 1 1.63327e-06 4.74939e-05 7.90324e-05 2.13605e-05 
48 1 1.69282e-06 6.4e-05 1.21e-05 7.03e-06 
18 1 1.53007e-06 7.58212e-05 2.93051e-05 8.86772e-06 
56 1 1.61635e-06 7.63945e-05 3.0734e-05 9.18086e-06 
44 1 1.73436e-06 8.71e-05 2.56e-05 2.32e-05 
11 1 1.87975e-06 5.48e-05 7.22e-06 2.46e-05 
46 1 1.54742e-06 8.47e-05 4.26e-05 2.53e-05 
2 1 1.45395e-06 9.25e-05 3.13e-05 3.02e-05 
32 1 1.64089e-06 7.05e-05 2.75e-05 3.36e-05 
35 1 1.43318e-06 8.19e-05 3.32e-05 3.54e-05 
24 1 1.48511e-06 7.52e-05 1.2e-05 3.94e-05 
17 1 1.86937e-06 5.2e-05 4.44e-05 4.49e-05 
5 1 1.78628e-06 9.27e-05 7.62e-05 5.52e-06 
33 1 1.45395e-06 7.28e-05 8e-05 9.94e-06 
45 1 1.96284e-06 7.67e-05 7.82e-05 1.34e-05 
50 1 1.62012e-06 6.84e-05 5.7e-05 1.46e-05 
1 1 1.82783e-06 9e-05 6.84e-05 1.88e-05 
9 1 1.73436e-06 7.82e-05 5.69e-05 2.24e-05 
12 1 1.49549e-06 5.44e-05 6.66e-05 3.33e-05 
40 1 1.53704e-06 9.58e-05 5.17e-05 3.56e-05 
7 1 1.80706e-06 7.46e-05 6.26e-05 3.85e-05 
31 1 1.49549e-06 8.3e-05 7.11e-05 3.85e-05 
6 1 1.80706e-06 6.88e-05 9.75e-05 4.43e-05 
36 1 1.82783e-06 5.11e-05 5.81e-05 4.74e-05 
ITEM: TIMESTEP
700
ITEM: NUMBER OF ATOMS
58
ITEM: BOX BOUNDS ff ff ff
0.0000000000000000e+00 1.0000000000000000e-04
0.0000000000000000e+00 1.0000000000000000e-04
0.0000000000000000e+00 5.0000000000000002e-05
ITEM: ATOMS id type diameter x y z 
27 1 1.5363e-06 2.56e-05 3.4e-05 4.67e-06 
20 1 1.81848e-06 3.86e-05 4.9e-05 6.85e-06 
43 1 1.89164e-06 1.83e-05 4.8e-05 1.04e-05 
49 1 1.67217e-06 4.8e-05 2.76e-06 1.75e-05 
29 1 1.58856e-06 3.05e-05 1.73e-06 2.2e-05 
14 1 1.76622e-06 4.81e-05 4.33e-05 2.47e-05 
42 1 1.89164e-06 3.52e-05 7.21e-06 2.65e-05 
30 1 1.96479e-06 3.42e-05 3.18e-05 2.82e-05 
39 1 1.67341e-06 2.05409e-05 4.91871e-05 2.76573e-05 
4 1 1.88119e-06 6.58e-06 1.78e-05 3.02e-05 
22 1 1.5478e-06 3.65215e-05 2.49059e-05 3.53479e-05 
21 1 1.90209e-06 2.51e-06 2.39e-05 3.66e-05 
47 1 1.72442e-06 3.2e-05 3.63e-05 3.84e-05 
15 1 1.66911e-06 3.36096e-05 3.93173e-05 3.93263e-05 
13 1 1.46314e-06 2.95e-05 1.23e-05 4.05e-05 
52 1 1.63508e-06 3.70942e-05 2.63332e-05 3.56607e-05 
53 1 1.48395e-06 2.15958e-05 4.86454e-05 2.86812e-05 
54 1 1.47047e-06 3.34035e-05 4.00371e-05 3.79601e-05 
34 1 1.53168e-06 1.92266e-06 8.55088e-05 9.27852e-06 
41 1 1.61991e-06 1.03e-05 8.22e-05 9.98e-06 
8 1 1.65589e-06 1.43433e-05 5.71858e-05 1.15596e-05 
16 1 1.73487e-06 1.56e-05 5.26e-05 1.3e-05 
38 1 1.4736e-06 3.38e-05 6.98e-05 1.38e-05 
10 1 1.88119e-06 1.18e-05 9.38e-05 1.96e-05 
55 1 1.61805e-06 2.49298e-06 8.69302e-05 9.59002e-06 
57 1 1.46841e-06 1.53937e-05 5.66465e-05 1.25792e-05 
37 1 1.55586e-06 4.69145e-05 7.75885e-05 2.10441e-05 
3 1 1.67217e-06 4.67e-05 9.14e-05 2.24e-05 
25 1 1.56765e-06 3.63e-05 7.41e-05 2.29e-05 
26 1 1.81848e-06 3.25e-05 5.74e-05 2.99e-05 
23 1 1.44224e-06 2.68e-05 6.87e-05 2.99e-05 
19 1 1.72442e-06 8.62e-06 7.46e-05 3.11e-05 
28 1 1.60946e-06 1.67e-05 7.88e-05 3.78e-05 
51 1 1.6436e-06 4.75012e-05 7.90506e-05 2.13645e-05 
48 1 1.70352e-06 6.4e-05 1.21e-05 7.03e-06 
18 1 1.53974e-06 7.58212e-05 2.93051e-05 8.86772e-06 
56 1 1.62657e-06 7.63945e-05 3.0734e-05 9.18086e-06 
44 1 1.74532e-06 8.71e-05 2.56e-05 2.32e-05 
11 1 1.89164e-06 5.48e-05 7.22e-06 2.46e-05 
46 1 1.5572e-06 8.47e-05 4.26e-05 2.53e-05 
2 1 1.46314e-06 9.25e-05 3.13e-05 3.02e-05 
32 1 1.65126e-06 7.05e-05 2.75e-05 3.36e-05 
35 1 1.44224e-06 8.19e-05 3.32e-05 3.54e-05 
24 1 1.4945e-06 7.52e-05 1.2e-05 3.94e-05 
17 1 1.88119e-06 5.2e-05 4.44e-05 4.49e-05 
5 1 1.79758e-06 9.27e-05 7.62e-05 5.52e-06 
33 1 1.46314e-06 7.28e-05 8e-05 9.94e-06 
45 1 1.52362e-06 7.64224e-05 7.75081e-05 1.32484e-05 
50 1 1.63036e-06 6.84e-05 5.7e-05 1.46e-05 
1 1 1.83938e-06 9e-05 6.84e-05 1.88e-05 
58 1 1.60954e-06 7.69933e-05 7.89309e-05 1.35602e-05 
9 1 1.74532e-06 7.82e-05 5.69e-05 2.24e-05 
12 1 1.50495e-06 5.44e-05 6.66e-05 3.33e-05 
40 1 1.54675e-06 9.58e-05 5.17e-05 3.56e-05 
7 1 1.81848e-06 7.46e-05 6.26e-05 3.85e-05 
31 1 1.50495e-06 8.3e-05 7.11e-05 3.85e-05 
6 1 1.81848e-06 6.88e-05 9.75e-05 4.43e-05 
36 1 1.83938e-06 5.11e-05 5.81e-05 4.74e-05 
ITEM: TIMESTEP
800
ITEM: NUMBER OF ATOMS
59
ITEM: BOX BOUNDS ff ff ff
0.0000000000000000e+00 1.0000000000000000e-04
0.0000000000000000e+00 1.0000000000000000e-04
0.0000000000000000e+00 5.0000000000000002e-05
ITEM: ATOMS id type diameter x y z 
27 1 1.54601e-06 2.56e-05 3.4e-05 4.67e-06 
20 1 1.82998e-06 3.86e-05 4.9e-05 6.85e-06 
43 1 1.9036e-06 1.83e-05 4.8e-05 1.04e-05 
49 1 1.68274e-06 4.8e-05 2.76e-06 1.75e-05 
29 1 1.5986e-06 3.05e-05 1.73e-06 2.2e-05 
14 1 1.77739e-06 4.81e-05 4.33e-05 2.47e-05 
42 1 1.9036e-06 3.52e-05 7.21e-06 2.65e-05 
30 1 1.47526e-06 3.35036e-05 3.15816e-05 2.82998e-05 
39 1 1.68399e-06 2.05409e-05 4.91871e-05 2.76573e-05 
4 1 1.89308e-06 6.58e-06 1.78e-05 3.02e-05 
22 1 1.55759e-06 3.65142e-05 2.48877e-05 3.53439e-05 
21 1 1.91411e-06 2.51e-06 2.39e-05 3.66e-05 
47 1 1.73532e-06 3.2e-05 3.63e-05 3.84e-05 
15 1 1.67966e-06 3.36096e-05 3.93173e-05 3.93263e-05 
13 1 1.47239e-06 2.95e-05 1.23e-05 4.05e-05 
52 1 1.64542e-06 3.71015e-05 2.63514e-05 3.56647e-05 
53 1 1.49333e-06 2.15958e-05 4.86454e-05 2.86812e-05 
54 1 1.47976e-06 3.34035e-05 4.00371e-05 3.79601e-05 
59 1 1.65327e-06 3.49805e-05 3.20448e-05 2.80882e-05 
34 1 1.54136e-06 1.92266e-06 8.55088e-05 9.27852e-06 
41 1 1.63015e-06 1.03e-05 8.22e-05 9.98e-06 
8 1 1.66635e-06 1.43433e-05 5.71858e-05 1.15596e-05 
16 1 1.74584e-06 1.56e-05 5.26e-05 1.3e-05 
38 1 1.48291e-06 3.38e-05 6.98e-05 1.38e-05 
10 1 1.89308e-06 1.18e-05 9.38e-05 1.96e-05 
55 1 1.62828e-06 2.49298e-06 8.69302e-05 9.59002e-06 
57 1 1.4777e-06 1.53937e-05 5.66465e-05 1.25792e-05 
37 1 1.5657e-06 4.69145e-05 7.75885e-05 2.10441e-05 
3 1 1.68274e-06 4.67e-05 9.14e-05 2.24e-05 
25 1 1.57757e-06 3.63e-05 7.41e-05 2.29e-05 
26 1 1.82998e-06 3.25e-05 5.74e-05 2.99e-05 
23 1 1.45136e-06 2.68e-05 6.87e-05 2.99e-05 
19 1 1.73532e-06 8.62e-06 7.46e-05 3.11e-05 
28 1 1.61963e-06 1.67e-05 7.88e-05 3.78e-05 
51 1 1.65399e-06 4.75012e-05 7.90506e-05 2.13645e-05 
48 1 1.71429e-06 6.4e-05 1.21e-05 7.03e-06 
18 1 1.54947e-06 7.58212e-05 2.93051e-05 8.86772e-06 
56 1 1.63685e-06 7.63945e-05 3.0734e-05 9.18086e-06 
44 1 1.75636e-06 8.71e-05 2.56e-05 2.32e-05 
11 1 1.9036e-06 5.48e-05 7.22e-06 2.46e-05 
46 1 1.56705e-06 8.47e-05 4.26e-05 2.53e-05 
2 1 1.47239e-06 9.25e-05 3.13e-05 3.02e-05 
32 1 1.6617e-06 7.05e-05 2.75e-05 3.36e-05 
35 1 1.45136e-06 8.19e-05 3.32e-05 3.54e-05 
24 1 1.50395e-06 7.52e-05 1.2e-05 3.94e-05 
17 1 1.89308e-06 5.2e-05 4.44e-05 4.49e-05 
5 1 1.80894e-06 9.27e-05 7.62e-05 5.52e-06 
33 1 1.47239e-06 7.28e-05 8e-05 9.94e-06 
45 1 1.53325e-06 7.64224e-05 7.75081e-05 1.32484e-05 
50 1 1.64067e-06 6.84e-05 5.7e-05 1.46e-05 
1 1 1.85101e-06 9e-05 6.84e-05 1.88e-05 
58 1 1.61971e-06 7.69933e-05 7.89309e-05 1.35602e-05 
9 1 1.75636e-06 7.82e-05 5.69e-05 2.24e-05 
12 1 1.51446e-06 5.44e-05 6.66e-05 3.33e-05 
40 1 1.55653e-06 9.58e-05 5.17e-05 3.56e-05 
7 1 1.82998e-06 7.46e-05 6.26e-05 3.85e-05 
31 1 1.51446e-06 8.3e-05 7.11e-05 3.85e-05 
6 1 1.82998e-06 6.88e-05 9.75e-05 4.43e-05 
36 1 1.85101e-06 5.11e-05 5.81e-05 4.74e-05 
ITEM: TIMESTEP
900
ITEM: NUMBER OF ATOMS
59
ITEM: BOX BOUNDS ff ff ff
0.0000000000000000e+00 1.0000000000000000e-04
0.0000000000000000e+00 1.0000000000000000e-04
0.0000000000000000e+00 5.0000000000000002e-05
ITEM: ATOMS id type diameter x y z 
27 1 1.55579e-06 2.56e-05 3.4e-05 4.67e-06 
20 1 1.84155e-06 3.86e-05 4.9e-05 6.85e-06 
43 1 1.91563e-06 1.83e-05 4.8e-05 1.04e-05 
49 1 1.69338e-06 4.8e-05 2.76e-06 1.75e-05 
29 1 1.60871e-06 3.05e-05 1.73e-06 2.2e-05 
14 1 1.78863e-06 4.81e-05 4.33e-05 2.47e-05 
42 1 1.91563e-06 3.52e-05 7.21e-06 2.65e-05 
30 1 1.48459e-06 3.35036e-05 3.15816e-05 2.82998e-05 
39 1 1.69463e-06 2.05274e-05 4.9194e-05 2.76443e-05 
4 1 1.90505e-06 6.58e-06 1.78e-05 3.02e-05 
22 1 1.56743e-06 3.65142e-05 2.48877e-05 3.53439e-05 
21 1 1.92621e-06 2.51e-06 2.39e-05 3.66e-05 
47 1 1.74629e-06 3.2e-05 3.63e-05 3.84e-05 
15 1 1.69028e-06 3.36122e-05 3.93081e-05 3.93438e-05 
13 1 1.4817e-06 2.95e-05 1.23e-05 4.05e-05 
52 1 1.65582e-06 3.71015e-05 2.63514e-05 3.56647e-05 
53 1 1.50277e-06 2.16093e-05 4.86385e-05 2.86943e-05 
54 1 1.48912e-06 3.34008e-05 4.00464e-05 3.79426e-05 
59 1 1.66373e-06 3.49805e-05 3.20448e-05 2.80882e-05 
34 1 1.55111e-06 1.91536e-06 8.54906e-05 9.27454e-06 
41 1 1.64046e-06 1.03e-05 8.22e-05 9.98e-06 
8 1 1.67689e-06 1.43433e-05 5.71858e-05 1.15596e-05 
16 1 1.75688e-06 1.56e-05 5.26e-05 1.3e-05 
38 1 1.49229e-06 3.38e-05 6.98e-05 1.38e-05 
10 1 1.90505e-06 1.18e-05 9.38e-05 1.96e-05 
55 1 1.63858e-06 2.50028e-06 8.69484e-05 9.59401e-06 
57 1 1.48704e-06 1.53937e-05 5.66465e-05 1.25792e-05 
37 1 1.5756e-06 4.69145e-05 7.75885e-05 2.10441e-05 
3 1 1.69338e-06 4.67e-05 9.14e-05 2.24e-05 
25 1 1.58754e-06 3.63e-05 7.41e-05 2.29e-05 
26 1 1.84155e-06 3.25e-05 5.74e-05 2.99e-05 
23 1 1.46054e-06 2.68e-05 6.87e-05 2.99e-05 
19 1 1.74629e-06 8.62e-06 7.46e-05 3.11e-05 
28 1 1.62987e-06 1.67e-05 7.88e-05 3.78e-05 
51 1 1.66445e-06 4.75012e-05 7.90506e-05 2.13645e-05 
48 1 1.72513e-06 6.4e-05 1.21e-05 7.03e-06 
18 1 1.55927e-06 7.58139e-05 2.9287e-05 8.86374e-06 
56 1 1.6472e-06 7.64018e-05 3.07522e-05 9.18485e-06 
44 1 1.76746e-06 8.71e-05 2.56e-05 2.32e-05 
11 1 1.91563e-06 5.48e-05 7.22e-06 2.46e-05 
46 1 1.57696e-06 8.47e-05 4.26e-05 2.53e-05 
2 1 1.4817e-06 9.25e-05 3.13e-05 3.02e-05 
32 1 1.67221e-06 7.05e-05 2.75e-05 3.36e-05 
35 1 1.46054e-06 8.19e-05 3.32e-05 3.54e-05 
24 1 1.51345e-06 7.52e-05 1.2e-05 3.94e-05 
17 1 1.90505e-06 5.2e-05 4.44e-05 4.49e-05 
5 1 1.82038e-06 9.27e-05 7.62e-05 5.52e-06 
33 1 1.4817e-06 7.28e-05 8e-05 9.94e-06 
45 1 1.54294e-06 7.64224e-05 7.75081e-05 1.32484e-05 
50 1 1.65104e-06 6.84e-05 5.7e-05 1.46e-05 
1 1 1.86271e-06 9e-05 6.84e-05 1.88e-05 
58 1 1.62995e-06 7.69933e-05 7.89309e-05 1.35602e-05 
9 1 1.76746e-06 7.82e-05 5.69e-05 2.24e-05 
12 1 1.52404e-06 5.44e-05 6.66e-05 3.33e-05 
40 1 1.56637e-06 9.58e-05 5.17e-05 3.56e-05 
7 1 1.84155e-06 7.46e-05 6.26e-05 3.85e-05 
31 1 1.52404e-06 8.3e-05 7.11e-05 3.85e-05 
6 1 1.84155e-06 6.88e-05 9.75e-05 4.43e-05 
36 1 1.86271e-06 5.11e-05 5.81e-05 4.74e-05 
ITEM: TIMESTEP
1000
ITEM: NUMBER OF ATOMS
59
ITEM: BOX BOUNDS ff ff ff
0.0000000000000000e+00 1.0000000000000000e-04
0.0000000000000000e+00 1.0000000000000000e-04
0.0000000000000000e+00 5.0000000000000002e-05
ITEM: ATOMS id type diameter x y z 
27 1 1.56562e-06 2.56e-05 3.4e-05 4.67e-06 
20 1 1.85319e-06 3.86e-05 4.9e-05 6.85e-06 
43 1 1.92774e-06 1.83e-05 4.8e-05 1.04e-05 
49 1 1.70408e-06 4.8e-05 2.76e-06 1.75e-05 
29 1 1.61888e-06 3.05e-05 1.73e-06 2.2e-05 
14 1 1.79994e-06 4.81e-05 4.33e-05 2.47e-05 
42 1 1.92774e-06 3.52e-05 7.21e-06 2.65e-05 
39 1 1.70535e-06 2.05274e-05 4.9194e-05 2.76443e-05 
30 1 1.49398e-06 3.35036e-05 3.15816e-05 2.82998e-05 
59 1 1.67425e-06 3.49805e-05 3.20448e-05 2.80882e-05 
53 1 1.51227e-06 2.16093e-05 4.86385e-05 2.86943e-05 
4 1 1.91709e-06 6.58e-06 1.78e-05 3.02e-05 
22 1 1.57734e-06 3.65142e-05 2.48877e-05 3.53439e-05 
52 1 1.66629e-06 3.71015e-05 2.63514e-05 3.56647e-05 
21 1 1.93839e-06 2.51e-06 2.39e-05 3.66e-05 
54 1 1.49853e-06 3.34008e-05 4.00464e-05 3.79426e-05 
47 1 1.75733e-06 3.2e-05 3.63e-05 3.84e-05 
15 1 1.70097e-06 3.36122e-05 3.93081e-05 3.93438e-05 
13 1 1.49107e-06 2.95e-05 1.23e-05 4.05e-05 
34 1 1.56091e-06 1.91536e-06 8.54906e-05 9.27454e-06 
41 1 1.65083e-06 1.03e-05 8.22e-05 9.98e-06 
55 1 1.64894e-06 2.50028e-06 8.69484e-05 9.59401e-06 
8 1 1.68749e-06 1.43298e-05 5.71928e-05 1.15465e-05 
16 1 1.76798e-06 1.56e-05 5.26e-05 1.3e-05 
57 1 1.49644e-06 1.54072e-05 5.66396e-05 1.25923e-05 
38 1 1.50172e-06 3.38e-05 6.98e-05 1.38e-05 
10 1 1.91709e-06 1.18e-05 9.38e-05 1.96e-05 
37 1 1.58556e-06 4.69145e-05 7.75885e-05 2.10441e-05 
51 1 1.67497e-06 4.75012e-05 7.90506e-05 2.13645e-05 
3 1 1.70408e-06 4.67e-05 9.14e-05 2.24e-05 
25 1 1.59758e-06 3.63e-05 7.41e-05 2.29e-05 
26 1 1.85319e-06 3.25e-05 5.74e-05 2.99e-05 
23 1 1.46977e-06 2.68e-05 6.87e-05 2.99e-05 
19 1 1.75733e-06 8.62e-06 7.46e-05 3.11e-05 
28 1 1.64018e-06 1.67e-05 7.88e-05 3.78e-05 
48 1 1.73603e-06 6.4e-05 1.21e-05 7.03e-06 
18 1 1.56913e-06 7.58139e-05 2.9287e-05 8.86374e-06 
56 1 1.65761e-06 7.64018e-05 3.07522e-05 9.18485e-06 
44 1 1.77863e-06 8.71e-05 2.56e-05 2.32e-05 
11 1 1.92774e-06 5.48e-05 7.22e-06 2.46e-05 
46 1 1.58693e-06 8.47e-05 4.26e-05 2.53e-05 
2 1 1.49107e-06 9.25e-05 3.13e-05 3.02e-05 
32 1 1.68278e-06 7.05e-05 2.75e-05 3.36e-05 
35 1 1.46977e-06 8.19e-05 3.32e-05 3.54e-05 
24 1 1.52302e-06 7.52e-05 1.2e-05 3.94e-05 
17 1 1.91709e-06 5.2e-05 4.44e-05 4.49e-05 
5 1 1.83189e-06 9.27e-05 7.62e-05 5.52e-06 
33 1 1.49107e-06 7.28e-05 8e-05 9.94e-06 
45 1 1.5527e-06 7.64151e-05 7.74899e-05 1.32444e-05 
58 1 1.64026e-06 7.70006e-05 7.89491e-05 1.35642e-05 
50 1 1.66148e-06 6.84e-05 5.7e-05 1.46e-05 
1 1 1.87449e-06 9e-05 6.84e-05 1.88e-05 
9 1 1.77863e-06 7.82e-05 5.69e-05 2.24e-05 
12 1 1.53367e-06 5.44e-05 6.66e-05 3.33e-05 
40 1 1.57628e-06 9.58e-05 5.17e-05 3.56e-05 
7 1 1.85319e-06 7.46e-05 6.26e-05 3.85e-05 
31 1 1.53367e-06 8.3e-05 7.11e-05 3.85e-05 
6 1 1.85319e-06 6.88e-05 9.75e-05 4.43e-05 
36 1 1.87449e-06 5.11e-05 5.81e-05 4.74e-05 
ITEM: TIMESTEP
1100
ITEM: NUMBER OF ATOMS
59
ITEM: BOX BOUNDS ff ff ff
0.0000000000000000e+00 1.0000000000000000e-04
0.0000000000000000e+00 1.0000000000000000e-04
0.0000000000000000e+00 5.0000000000000002e-05
ITEM: ATOMS id type diameter x y z 
27 1 1.57552e-06 2.56e-05 3.4e-05 4.67e-06 
20 1 1.8649e-06 3.86e-05 4.9e-05 6.85e-06 