LAMMPS (20 Nov 2019)
Reading data file ...
  orthogonal box = (0 0 0) to (0.001 0.001 0.0001)
  2 by 3 by 1 MPI processor grid
  reading atoms ...
  2 atoms
  4 nutrients
Lattice spacing in x,y,z = 100 100 100
1 atoms in group CYANO
1 atoms in group ECW
Model is defined as a closed system. 
Neighbor list info ...
  update every 1 steps, delay 0 steps, check yes
  max neighbors/atom: 5000, page size: 100000
  master list distance cutoff = 1.89e-06
  ghost atom cutoff = 1.89e-06
  binsize = 9.45e-07, bins = 1059 1059 106
  1 neighbor lists, perpetual/occasional/extra = 1 0 0
  (1) pair gran/hooke/history, perpetual
      attributes: half, newton off, size, history
      pair build: half/size/bin/newtoff
      stencil: half/bin/3d/newtoff
      bin: standard
Setting up Verlet run ...
  Unit style    : lj
  Current step  : 0
  Time step     : 10
Per MPI rank memory allocation (min/avg/max) = 84.25 | 92.35 | 108.5 Mbytes
Step CPU Atoms c_myNtypes[1] c_myNtypes[2] c_myMass[1] c_myMass[2] c_myCon[1] c_myCon[2] c_myCon[3] c_myCon[4] 
       0            0        2            1            1 5.2028912e-16 1.3941014e-16          0.1        0.009     3.42e-20       0.0299 
number of iterations: 578271 
     100    4.0498161        3            1            2 5.2959848e-16 1.3941014e-16          0.1 0.0090000003 8.842066e-09       0.0299 
number of iterations: 265423 
     200    5.7736668        3            1            2 5.3907441e-16 1.3941014e-16          0.1 0.0090000003 3.6509385e-08       0.0299 
number of iterations: 172216 
     300    7.0509575        3            1            2 5.4871989e-16 1.3941014e-16          0.1 0.0090000003 7.9750937e-08       0.0299 
number of iterations: 147161 
     400     8.043927        3            1            2 5.5853795e-16 1.3941014e-16          0.1 0.0090000003 1.296423e-07       0.0299 
number of iterations: 128181 
     500    8.9123703        3            1            2 5.6853168e-16 1.3941014e-16          0.1 0.0090000003 1.8565279e-07  0.029899999 
number of iterations: 113206 
     600    9.7132172        3            1            2 5.7870423e-16 1.3941014e-16          0.1 0.0090000004 2.4735876e-07  0.029899999 
number of iterations: 101009 
     700    10.412482        3            1            2 5.8905879e-16 1.3941014e-16          0.1 0.0090000004 3.1442512e-07  0.029899999 
number of iterations: 90826 
     800    11.075817        3            1            2 5.9959862e-16 1.3941014e-16          0.1 0.0090000004  3.86585e-07  0.029899999 
number of iterations: 82149 
     900    11.677928        3            1            2 6.1032704e-16 1.3941014e-16          0.1 0.0090000004 4.6362724e-07  0.029899999 
number of iterations: 74638 
    1000    12.600515        3            1            2 6.2124742e-16 1.3941014e-16          0.1 0.0090000004 5.453813e-07  0.029899999 
number of iterations: 68048 
    1100    13.097711        3            1            2 6.3236319e-16 1.3941014e-16          0.1 0.0090000004 6.3171066e-07  0.029899999 
number of iterations: 62199 
    1200    13.542493        3            1            2 6.4367785e-16 1.3941014e-16          0.1 0.0090000004 7.2250687e-07  0.029899999 
number of iterations: 56962 
    1300    13.965965        3            1            2 6.5519496e-16 1.3941015e-16          0.1 0.0090000004 8.1768149e-07  0.029899999 
number of iterations: 52233 
    1400    14.363234        3            1            2 6.6691815e-16 1.3941015e-16          0.1 0.0090000004 9.1716534e-07  0.029899999 
number of iterations: 47933 
    1500    14.745562        3            1            2 6.7885109e-16 1.3941015e-16          0.1 0.0090000004 1.0209043e-06  0.029899999 
number of iterations: 44002 
    1600    15.104502        3            1            2 6.9099754e-16 1.3941015e-16          0.1 0.0090000004 1.1288554e-06  0.029899999 
number of iterations: 40388 
    1700    15.438721        3            1            2 7.0336133e-16 1.3941016e-16          0.1 0.0090000004 1.2409874e-06  0.029899999 
number of iterations: 37048 
    1800    15.750016        3            1            2 7.1594634e-16 1.3941016e-16          0.1 0.0090000004 1.3572797e-06  0.029899999 
number of iterations: 33950 
    1900     16.01672        3            1            2 7.2875653e-16 1.3941016e-16          0.1 0.0090000005 1.4777187e-06  0.029899999 
number of iterations: 31067 
    2000    16.680226        3            1            2 7.4179593e-16 1.3941016e-16          0.1 0.0090000005 1.6022973e-06  0.029899999 
number of iterations: 28373 
    2100    16.985808        3            1            2 7.5506863e-16 1.3941017e-16          0.1 0.0090000005 1.7310162e-06  0.029899999 
number of iterations: 25849 
    2200    17.238112        3            1            2 7.6857882e-16 1.3941017e-16          0.1 0.0090000005 1.8638811e-06  0.029899999 
number of iterations: 23478 
    2300    17.440162        3            1            2 7.8233075e-16 1.3941018e-16          0.1 0.0090000005 2.0009028e-06  0.029899999 
number of iterations: 21244 
    2400    17.628363        3            1            2 7.9632873e-16 1.3941018e-16          0.1 0.0090000005 2.1420976e-06  0.029899999 
number of iterations: 19137 
    2500    17.807246        3            1            2 8.1057717e-16 1.3941019e-16          0.1 0.0090000005 2.2874841e-06  0.029899999 
number of iterations: 17143 
    2600    17.980464        3            1            2 8.2508056e-16 1.3941019e-16          0.1 0.0090000005 2.437087e-06  0.029899999 
number of iterations: 15253 
    2700    18.148788        3            1            2 8.3984345e-16 1.394102e-16          0.1 0.0090000005 2.5909339e-06  0.029899999 
number of iterations: 13458 
    2800    18.306247        3            1            2 8.5487048e-16 1.394102e-16          0.1 0.0090000005 2.7490564e-06  0.029899999 
number of iterations: 11753 
    2900    18.445002        3            1            2 8.7016639e-16 1.3941021e-16          0.1 0.0090000005 2.911487e-06  0.029899999 
number of iterations: 10128 
    3000    18.937766        3            1            2 8.8573599e-16 1.3941022e-16          0.1 0.0090000006 3.078264e-06  0.029899999 
number of iterations: 8578 
    3100    19.059796        3            1            2 9.0158417e-16 1.3941022e-16          0.1 0.0090000006 3.2494275e-06  0.029899999 
number of iterations: 7098 
    3200    19.171426        3            1            2 9.1771591e-16 1.3941023e-16          0.1 0.0090000006 3.4250203e-06  0.029899999 
number of iterations: 5683 
    3300    19.274897        3            1            2 9.3413629e-16 1.3941024e-16          0.1 0.0090000006 3.6050878e-06  0.029899999 
number of iterations: 4983 
    3400    19.370977        3            1            2 9.5085048e-16 1.3941025e-16          0.1 0.0090000006 3.7896783e-06  0.029899999 
number of iterations: 5050 
    3500    19.463654        3            1            2 9.6786373e-16 1.3941026e-16          0.1 0.0090000006 3.9788419e-06  0.029899999 
number of iterations: 5117 
    3600     19.55173        3            1            2 9.8518139e-16 1.3941027e-16          0.1 0.0090000006 4.1726324e-06  0.029899999 
number of iterations: 5185 
    3700    19.634535        3            1            2 1.0028089e-15 1.3941028e-16          0.1 0.0090000006 4.3711043e-06  0.029899999 
number of iterations: 5253 
    3800    19.712212        3            1            2 1.0207518e-15 1.3941029e-16          0.1 0.0090000006 4.5737321e-06  0.029899999 
number of iterations: 5323 
    3900    19.793563        3            1            2 1.0390158e-15 1.394103e-16          0.1 0.0090000007 4.7799854e-06  0.029899999 
number of iterations: 5392 
    4000    20.238572        3            1            2 1.0576066e-15 1.3941031e-16          0.1 0.0090000007 4.989929e-06  0.029899999 
number of iterations: 5463 
    4100    20.319479        3            1            2  1.07653e-15 1.3941032e-16          0.1 0.0090000007 5.2036292e-06  0.029899999 
number of iterations: 5534 
    4200    20.402695        3            1            2 1.095792e-15 1.3941033e-16          0.1 0.0090000007 5.421153e-06  0.029899999 
number of iterations: 5605 
    4300     20.48715        3            1            2 1.1153986e-15 1.3941034e-16          0.1 0.0090000007 5.6425688e-06  0.029899999 
number of iterations: 5678 
    4400    20.570769        3            1            2 1.1353561e-15 1.3941036e-16          0.1 0.0090000007 5.8679464e-06  0.029899999 
number of iterations: 5751 
    4500    20.658275        3            1            2 1.1556706e-15 1.3941037e-16          0.1 0.0090000007 6.0973566e-06  0.029899999 
number of iterations: 5825 
    4600    20.749404        3            1            2 1.1763486e-15 1.3941039e-16          0.1 0.0090000008 6.3308715e-06  0.029899999 
number of iterations: 5899 
    4700    20.841329        3            1            2 1.1973966e-15 1.394104e-16          0.1 0.0090000008 6.5685646e-06  0.029899999 
number of iterations: 5974 
    4800    20.928523        3            1            2 1.2188213e-15 1.3941042e-16          0.1 0.0090000008 6.8105107e-06  0.029899999 
number of iterations: 6050 
    4900    21.012866        3            1            2 1.2406292e-15 1.3941043e-16          0.1 0.0090000008 7.0567858e-06  0.029899999 
number of iterations: 6126 
    5000    21.483975        3            1            2 1.2628274e-15 1.3941045e-16          0.1 0.0090000008 7.3074675e-06  0.029899999 
number of iterations: 6204 
    5100    21.576638        3            1            2 1.2854227e-15 1.3941047e-16          0.1 0.0090000008 7.5626345e-06  0.029899999 
number of iterations: 6281 
    5200    21.670255        3            1            2 1.3084224e-15 1.3941048e-16          0.1 0.0090000008 7.8223671e-06  0.029899999 
number of iterations: 6359 
    5300    21.766952        3            1            2 1.3318335e-15 1.394105e-16          0.1 0.0090000009 8.086747e-06  0.029899999 
number of iterations: 6439 
    5400    21.886292        3            1            2 1.3556636e-15 1.3941052e-16          0.1 0.0090000009 8.3558574e-06  0.029899999 
number of iterations: 6518 
    5500    21.991256        3            1            2  1.37992e-15 1.3941054e-16          0.1 0.0090000009 8.6297828e-06  0.029899999 
number of iterations: 6598 
    5600    22.090114        3            1            2 1.4046105e-15 1.3941056e-16          0.1 0.0090000009 8.9086096e-06  0.029899999 
number of iterations: 6680 
    5700    22.196645        3            1            2 1.4297427e-15 1.3941058e-16          0.1 0.0090000009 9.1924252e-06  0.029899999 
number of iterations: 6761 
    5800    22.290683        3            1            2 1.4553246e-15 1.394106e-16          0.1 0.0090000009 9.4813206e-06  0.029899998 
number of iterations: 6843 
    5900    22.386036        3            1            2 1.4813642e-15 1.3941062e-16          0.1  0.009000001 9.775385e-06  0.029899998 
number of iterations: 24340 
    6000    23.018695        4            2            2 1.5078698e-15 1.3941065e-16          0.1 0.0090000009 1.007471e-05  0.029899998 
number of iterations: 3879 
    6100    23.085512        4            2            2 1.5348496e-15 1.3941067e-16          0.1 0.0090000009 1.0379391e-05  0.029899998 
number of iterations: 4399 
    6200    23.157942        4            2            2 1.5623121e-15 1.394107e-16          0.1 0.0090000009 1.0689524e-05  0.029899998 
number of iterations: 4678 
    6300    23.234157        4            2            2 1.5902661e-15 1.3941072e-16          0.1  0.009000001 1.1005205e-05  0.029899998 
number of iterations: 4882 
    6400     23.31307        4            2            2 1.6187202e-15 1.3941075e-16          0.1  0.009000001 1.1326535e-05  0.029899998 
number of iterations: 5037 
    6500    23.392231        4            2            2 1.6476834e-15 1.3941077e-16          0.1  0.009000001 1.1653615e-05  0.029899998 
number of iterations: 5161 
    6600    23.474358        4            2            2 1.6771648e-15 1.394108e-16          0.1  0.009000001 1.1986546e-05  0.029899998 
number of iterations: 5264 
    6700     23.55292        4            2            2 1.7071738e-15 1.3941083e-16          0.1  0.009000001 1.2325435e-05  0.029899998 
number of iterations: 5356 
    6800    23.632253        4            2            2 1.7377197e-15 1.3941086e-16          0.1  0.009000001 1.2670388e-05  0.029899998 
number of iterations: 5441 
    6900    23.711587        4            2            2 1.7688121e-15 1.3941089e-16          0.1  0.009000001 1.3021512e-05  0.029899998 
number of iterations: 5522 
    7000    24.162279        4            2            2 1.8004609e-15 1.3941092e-16          0.1 0.0090000011 1.3378919e-05  0.029899998 
number of iterations: 5612 
    7100    24.309493        4            2            2 1.8326759e-15 1.3941095e-16          0.1 0.0090000011 1.3742721e-05  0.029899998 
number of iterations: 5702 
    7200     24.39571        4            2            2 1.8654674e-15 1.3941098e-16          0.1 0.0090000011 1.4113032e-05  0.029899998 
number of iterations: 5781 
    7300    24.483609        4            2            2 1.8988455e-15 1.3941101e-16          0.1 0.0090000011 1.448997e-05  0.029899998 
number of iterations: 5860 
    7400    24.569965        4            2            2 1.9328209e-15 1.3941105e-16          0.1 0.0090000011 1.4873651e-05  0.029899998 
number of iterations: 5940 
    7500    24.658423        4            2            2 1.9674043e-15 1.3941108e-16          0.1 0.0090000012 1.5264198e-05  0.029899998 
number of iterations: 6019 
    7600    24.745001        4            2            2 2.0026064e-15 1.3941112e-16          0.1 0.0090000012 1.5661733e-05  0.029899998 
number of iterations: 6100 
    7700    24.835385        4            2            2 2.0384383e-15 1.3941115e-16          0.1 0.0090000012 1.606638e-05  0.029899998 
number of iterations: 6180 
    7800    24.925241        4            2            2 2.0749114e-15 1.3941119e-16          0.1 0.0090000012 1.6478268e-05  0.029899998 
number of iterations: 6262 
    7900    25.016943        4            2            2 2.1120371e-15 1.3941123e-16          0.1 0.0090000012 1.6897526e-05  0.029899998 
number of iterations: 6344 
    8000    25.452802        4            2            2 2.1498271e-15 1.3941127e-16          0.1 0.0090000013 1.7324285e-05  0.029899998 
number of iterations: 6427 
    8100    25.540186        4            2            2 2.1882932e-15 1.3941131e-16          0.1 0.0090000013 1.775868e-05  0.029899998 
number of iterations: 6511 
    8200    25.629416        4            2            2 2.2274476e-15 1.3941135e-16          0.1 0.0090000013 1.8200847e-05  0.029899998 
number of iterations: 6596 
    8300    25.731054        4            2            2 2.2673026e-15 1.3941139e-16          0.1 0.0090000013 1.8650926e-05  0.029899998 
number of iterations: 6681 
    8400    25.835522        4            2            2 2.3078707e-15 1.3941144e-16          0.1 0.0090000014 1.9109058e-05  0.029899998 
number of iterations: 6767 
    8500    25.940776        4            2            2 2.3491646e-15 1.3941148e-16          0.1 0.0090000014 1.9575388e-05  0.029899998 
number of iterations: 6853 
    8600    26.043309        4            2            2 2.3911975e-15 1.3941153e-16          0.1 0.0090000014 2.0050061e-05  0.029899998 
number of iterations: 6941 
    8700    26.140764        4            2            2 2.4339824e-15 1.3941158e-16          0.1 0.0090000014 2.0533227e-05  0.029899998 
number of iterations: 7030 
    8800    26.241294        4            2            2 2.4775328e-15 1.3941162e-16          0.1 0.0090000015 2.1025039e-05  0.029899998 
number of iterations: 7118 
    8900    26.354879        4            2            2 2.5218624e-15 1.3941167e-16          0.1 0.0090000015 2.152565e-05  0.029899998 
number of iterations: 7209 
    9000    26.848867        4            2            2 2.5669853e-15 1.3941172e-16          0.1 0.0090000015 2.2035219e-05  0.029899998 
number of iterations: 7299 
    9100    26.957569        4            2            2 2.6129155e-15 1.3941177e-16          0.1 0.0090000016 2.2553905e-05  0.029899997 
number of iterations: 7391 
    9200    27.067298        4            2            2 2.6596675e-15 1.3941183e-16          0.1 0.0090000016 2.3081872e-05  0.029899997 
number of iterations: 7483 
    9300    27.197414        4            2            2 2.7072561e-15 1.3941188e-16          0.1 0.0090000016 2.3619285e-05  0.029899997 
number of iterations: 7576 
    9400    27.317254        4            2            2 2.7556961e-15 1.3941194e-16          0.1 0.0090000016 2.4166315e-05  0.029899997 
number of iterations: 7669 
    9500    27.421207        4            2            2 2.8050028e-15 1.3941199e-16          0.1 0.0090000017 2.4723132e-05  0.029899997 
number of iterations: 7764 
    9600    27.520047        4            2            2 2.8551918e-15 1.3941205e-16          0.1 0.0090000017 2.5289912e-05  0.029899997 
number of iterations: 7859 
    9700    27.624248        5            3            2 2.9062788e-15 1.3941211e-16          0.1 0.0090000017 2.5866833e-05  0.029899997 
number of iterations: 7956 
    9800    27.729556        5            3            2 2.9582799e-15 1.3941217e-16          0.1 0.0090000018 2.6454077e-05  0.029899997 
number of iterations: 8052 
    9900    27.835063        5            3            2 3.0112114e-15 1.3941223e-16          0.1 0.0090000018 2.7051828e-05  0.029899997 
number of iterations: 8150 
   10000     28.29904        6            4            2  3.06509e-15 1.394123e-16          0.1 0.0090000018 2.7660274e-05  0.029899997 
number of iterations: 8248 
   10100     28.41759        6            4            2 3.1199326e-15 1.3941236e-16          0.1 0.0090000019 2.8279608e-05  0.029899997 
number of iterations: 8347 
   10200    28.531461        6            4            2 3.1757565e-15 1.3941243e-16          0.1 0.0090000019 2.8910023e-05  0.029899997 
number of iterations: 8447 
   10300    28.639818        6            4            2 3.2325792e-15 1.3941249e-16          0.1 0.0090000019 2.9551717e-05  0.029899997 
number of iterations: 8548 
   10400    28.752379        6            4            2 3.2904187e-15 1.3941256e-16          0.1  0.009000002 3.0204893e-05  0.029899997 
number of iterations: 8649 
   10500     28.86723        6            4            2 3.3492931e-15 1.3941263e-16          0.1  0.009000002 3.0869757e-05  0.029899997 
number of iterations: 8752 
   10600    28.979881        6            4            2 3.4092208e-15 1.3941271e-16          0.1  0.009000002 3.1546516e-05  0.029899997 
number of iterations: 8854 
   10700    29.091039        6            4            2 3.4702209e-15 1.3941278e-16          0.1 0.0090000021 3.2235385e-05  0.029899997 
number of iterations: 8958 
   10800    29.205374        6            4            2 3.5323124e-15 1.3941286e-16          0.1 0.0090000021 3.2936579e-05  0.029899997 
number of iterations: 9063 
   10900    29.324763        6            4            2 3.5955149e-15 1.3941293e-16          0.1 0.0090000022 3.3650319e-05  0.029899997 
number of iterations: 9168 
   11000    29.860199        6            4            2 3.6598482e-15 1.3941301e-16          0.1 0.0090000022 3.437683e-05  0.029899996 
number of iterations: 9274 
   11100    29.983379        6            4            2 3.7253326e-15 1.3941309e-16          0.1 0.0090000022 3.511634e-05  0.029899996 
number of iterations: 9381 
   11200    30.102794        6            4            2 3.7919888e-15 1.3941317e-16          0.1 0.0090000023 3.5869083e-05  0.029899996 
number of iterations: 9488 
   11300    30.221549        6            4            2 3.8598376e-15 1.3941326e-16          0.1 0.0090000023 3.6635293e-05  0.029899996 
number of iterations: 9597 
   11400    30.345144        6            4            2 3.9289003e-15 1.3941334e-16          0.1 0.0090000024 3.7415213e-05  0.029899996 
number of iterations: 9705 
   11500    30.483492        6            4            2 3.9991988e-15 1.3941343e-16          0.1 0.0090000024 3.8209088e-05  0.029899996 
number of iterations: 9815 
   11600    30.614986        6            4            2 4.0707552e-15 1.3941352e-16          0.1 0.0090000024 3.9017168e-05  0.029899996 
number of iterations: 9926 
   11700    30.742738        6            4            2 4.1435918e-15 1.3941361e-16          0.1 0.0090000025 3.9839706e-05  0.029899996 
number of iterations: 10037 
   11800    30.879252        6            4            2 4.2177317e-15 1.394137e-16          0.1 0.0090000025 4.0676962e-05  0.029899996 
number of iterations: 10149 
   11900    31.019574        6            4            2 4.2931982e-15 1.394138e-16          0.1 0.0090000026 4.1529198e-05  0.029899996 
number of iterations: 10261 
   12000    31.601319        6            4            2 4.3700149e-15 1.394139e-16          0.1 0.0090000026 4.2396684e-05  0.029899996 
number of iterations: 10375 
   12100    31.749864        6            4            2 4.4482061e-15  1.39414e-16          0.1 0.0090000027 4.327969e-05  0.029899996 
number of iterations: 10489 
   12200    31.898019        6            4            2 4.5277964e-15 1.394141e-16          0.1 0.0090000027 4.4178496e-05  0.029899996 
number of iterations: 10604 
   12300     32.04329        6            4            2 4.6088107e-15 1.394142e-16          0.1 0.0090000028 4.5093385e-05  0.029899995 
number of iterations: 10720 
   12400    32.185077        6            4            2 4.6912747e-15 1.3941431e-16          0.1 0.0090000028 4.6024642e-05  0.029899995 
number of iterations: 10836 
   12500    32.319844        6            4            2 4.7752141e-15 1.3941441e-16          0.1 0.0090000029 4.6972563e-05  0.029899995 
number of iterations: 10953 
   12600    32.462337        6            4            2 4.8606554e-15 1.3941452e-16          0.1 0.0090000029 4.7937445e-05  0.029899995 
number of iterations: 11071 
   12700     32.60552        6            4            2 4.9476254e-15 1.3941464e-16          0.1  0.009000003 4.891959e-05  0.029899995 
number of iterations: 11189 
   12800    32.748396        6            4            2 5.0361516e-15 1.3941475e-16          0.1  0.009000003 4.9919309e-05  0.029899995 
number of iterations: 11309 
   12900    32.904844        6            4            2 5.1262618e-15 1.3941487e-16          0.1 0.0090000031 5.0936916e-05  0.029899995 
number of iterations: 11428 
   13000    33.444238        6            4            2 5.2179843e-15 1.3941499e-16          0.1 0.0090000031 5.197273e-05  0.029899995 
number of iterations: 11549 
   13100    33.586692        6            4            2 5.3113479e-15 1.3941511e-16          0.1 0.0090000032 5.3027078e-05  0.029899995 
number of iterations: 11670 
   13200    33.730101        7            5            2 5.4063821e-15 1.3941523e-16          0.1 0.0090000033 5.410029e-05  0.029899995 
number of iterations: 24149 
   13300    34.053907        8            6            2 5.5031167e-15 1.3941536e-16          0.1 0.0090000033 5.5192705e-05  0.029899995 
number of iterations: 11631 
   13400    34.194141        8            6            2 5.6015821e-15 1.3941549e-16          0.1 0.0090000033 5.6304666e-05  0.029899994 
number of iterations: 12282 
   13500    34.338575        8            6            2 5.7018093e-15 1.3941562e-16          0.1 0.0090000034 5.7436523e-05  0.029899994 
number of iterations: 12560 
   13600    34.490903        8            6            2 5.8038299e-15 1.3941575e-16          0.1 0.0090000034 5.8588632e-05  0.029899994 
number of iterations: 12729 
   13700    34.645589        8            6            2 5.9076759e-15 1.3941589e-16          0.1 0.0090000035 5.9761355e-05  0.029899994 
number of iterations: 26637 
   13800    34.956146        8            6            2 6.0133799e-15 1.3941603e-16          0.1 0.0090000035 6.095506e-05  0.029899994 
number of iterations: 13125 
   13900    35.128611        8            6            2 6.1209753e-15 1.3941617e-16          0.1 0.0090000036 6.2170124e-05  0.029899994 
number of iterations: 13747 
   14000    35.681823        9            7            2 6.2304959e-15 1.3941632e-16          0.1 0.0090000036 6.3406929e-05  0.029899994 
number of iterations: 29046 
   14100    36.024345        9            7            2 6.3419761e-15 1.3941647e-16          0.1 0.0090000038 6.4665864e-05  0.029899994 
number of iterations: 11478 
   14200    36.164217        9            7            2 6.4554509e-15 1.3941662e-16          0.1 0.0090000038 6.5947325e-05  0.029899994 
number of iterations: 13380 
   14300    36.327706        9            7            2 6.5709561e-15 1.3941677e-16          0.1 0.0090000039 6.7251715e-05  0.029899994 
number of iterations: 13631 
   14400    36.512085        9            7            2 6.688528e-15 1.3941693e-16          0.1  0.009000004 6.8579443e-05  0.029899993 
number of iterations: 13746 
   14500    36.683139        9            7            2 6.8082036e-15 1.3941709e-16          0.1  0.009000004 6.9930929e-05  0.029899993 
number of iterations: 13867 
   14600       36.879       10            8            2 6.9300205e-15 1.3941725e-16          0.1 0.0090000041 7.1306596e-05  0.029899993 
number of iterations: 27688 
   14700    37.247428       10            8            2 7.0540171e-15 1.3941742e-16          0.1 0.0090000041 7.2706876e-05  0.029899993 
number of iterations: 14240 
   14800    37.413399       10            8            2 7.1802322e-15 1.3941759e-16          0.1 0.0090000042 7.4132211e-05  0.029899993 
number of iterations: 14887 
   14900    37.590516       10            8            2 7.3087057e-15 1.3941776e-16          0.1 0.0090000042 7.5583049e-05  0.029899993 
number of iterations: 15151 
   15000    38.158522       10            8            2 7.4394779e-15 1.3941794e-16          0.1 0.0090000043 7.7059846e-05  0.029899993 
number of iterations: 15317 
   15100    38.344553       10            8            2  7.57259e-15 1.3941812e-16          0.1 0.0090000044 7.8563067e-05  0.029899993 
number of iterations: 15456 
   15200     38.53378       10            8            2 7.7080838e-15 1.394183e-16          0.1 0.0090000045 8.0093185e-05  0.029899993 
number of iterations: 15588 
   15300    38.714304       10            8            2 7.846002e-15 1.3941849e-16          0.1 0.0090000045 8.1650681e-05  0.029899993 
number of iterations: 15718 
   15400    38.898773       10            8            2 7.9863878e-15 1.3941868e-16          0.1 0.0090000046 8.3236044e-05  0.029899992 
number of iterations: 15848 
   15500    39.094549       10            8            2 8.1292856e-15 1.3941888e-16          0.1 0.0090000047 8.4849774e-05  0.029899992 
number of iterations: 15978 
   15600    39.275562       10            8            2 8.2747402e-15 1.3941907e-16          0.1 0.0090000048 8.6492377e-05  0.029899992 
number of iterations: 16108 
   15700    39.473196       10            8            2 8.4227973e-15 1.3941928e-16          0.1 0.0090000049 8.8164372e-05  0.029899992 
number of iterations: 16239 
   15800    39.658941       10            8            2 8.5735036e-15 1.3941948e-16          0.1  0.009000005 8.9866282e-05  0.029899992 
number of iterations: 16370 
   15900    39.851199       10            8            2 8.7269064e-15 1.3941969e-16          0.1 0.0090000051 9.1598645e-05  0.029899992 
number of iterations: 16502 
   16000    40.408388       10            8            2 8.883054e-15 1.3941991e-16          0.1 0.0090000051 9.3362004e-05  0.029899992 
number of iterations: 16634 
   16100    40.598983       10            8            2 9.0419955e-15 1.3942013e-16          0.1 0.0090000052 9.5156914e-05  0.029899991 
number of iterations: 16767 
   16200    40.794864       10            8            2 9.2037809e-15 1.3942035e-16          0.1 0.0090000053 9.6983939e-05  0.029899991 
number of iterations: 26287 
   16300    41.100687       11            9            2 9.3684611e-15 1.3942058e-16          0.1 0.0090000055 9.8843656e-05  0.029899991 
number of iterations: 15383 
   16400     41.27691       11            9            2 9.5360878e-15 1.3942081e-16          0.1 0.0090000056 0.00010073665  0.029899991 
number of iterations: 16874 
   16500    41.492163       11            9            2 9.7067138e-15 1.3942104e-16          0.1 0.0090000057 0.00010266351  0.029899991 
number of iterations: 16992 
   16600     41.70963       11            9            2 9.8803928e-15 1.3942128e-16          0.1 0.0090000058 0.00010462485   0.02989999 
number of iterations: 17122 
   16700    41.935894       11            9            2 1.0057179e-14 1.3942153e-16          0.1 0.0090000059 0.00010662128   0.02989999 
number of iterations: 17256 
   16800     42.14542       11            9            2 1.0237129e-14 1.3942178e-16          0.1  0.009000006 0.00010865344   0.02989999 
number of iterations: 17391 
   16900    42.339758       11            9            2 1.0420299e-14 1.3942203e-16          0.1 0.0090000061 0.00011072195   0.02989999 
number of iterations: 17528 
   17000    42.948322       11            9            2 1.0606745e-14 1.3942229e-16          0.1 0.0090000062 0.00011282748   0.02989999 
number of iterations: 28681 
   17100    43.285965       12           10            2 1.0796528e-14 1.3942255e-16          0.1 0.0090000064 0.00011497068  0.029899989 
number of iterations: 16068 
   17200     43.46108       13           11            2 1.0989707e-14 1.3942282e-16          0.1 0.0090000065 0.00011715223  0.029899989 
number of iterations: 17569 
   17300    43.701533       13           11            2 1.1186342e-14 1.394231e-16          0.1 0.0090000066 0.00011937281  0.029899989 
number of iterations: 17690 
   17400    43.906005       13           11            2 1.1386496e-14 1.3942338e-16          0.1 0.0090000068 0.00012163312  0.029899989 
number of iterations: 17825 
   17500    44.121477       13           11            2 1.159023e-14 1.3942366e-16          0.1 0.0090000069 0.00012393388  0.029899989 
number of iterations: 17963 
   17600    44.332807       13           11            2 1.1797611e-14 1.3942395e-16          0.1  0.009000007 0.00012627581  0.029899988 
number of iterations: 18103 
   17700    44.542449       13           11            2 1.2008701e-14 1.3942424e-16          0.1 0.0090000071 0.00012865963  0.029899988 
number of iterations: 18244 
   17800    44.753352       14           12            2 1.2223569e-14 1.3942455e-16          0.1 0.0090000073 0.00013108611  0.029899988 
number of iterations: 18385 
   17900     44.95918       15           13            2 1.2442281e-14 1.3942485e-16          0.1 0.0090000074 0.00013355601  0.029899988 
number of iterations: 18527 
   18000    45.540848       15           13            2 1.2664907e-14 1.3942516e-16          0.1 0.0090000075 0.0001360701  0.029899988 
number of iterations: 18669 
   18100    45.747546       16           14            2 1.2891516e-14 1.3942548e-16          0.1 0.0090000077 0.00013862917  0.029899987 
number of iterations: 18811 
   18200    45.960729       16           14            2 1.3122179e-14 1.3942581e-16          0.1 0.0090000078 0.00014123403  0.029899987 
number of iterations: 27968 
   18300     46.26975       17           15            2 1.335697e-14 1.3942614e-16          0.1  0.009000008 0.0001438855  0.029899987 
number of iterations: 17929 
   18400    46.499353       17           15            2 1.3595962e-14 1.3942647e-16          0.1 0.0090000081 0.00014658441  0.029899987 
number of iterations: 18981 
   18500    46.738843       17           15            2 1.383923e-14 1.3942682e-16          0.1 0.0090000083 0.00014933162  0.029899986 
number of iterations: 19130 
   18600    46.973089       17           15            2 1.408685e-14 1.3942717e-16          0.1 0.0090000084 0.00015212797  0.029899986 
number of iterations: 19273 
   18700    47.207157       17           15            2 1.4338901e-14 1.3942752e-16          0.1 0.0090000086 0.00015497437  0.029899986 
number of iterations: 19418 
   18800    47.422643       17           15            2 1.4595463e-14 1.3942788e-16          0.1 0.0090000087 0.00015787169  0.029899986 
number of iterations: 19564 
   18900    47.654748       17           15            2 1.4856614e-14 1.3942825e-16          0.1 0.0090000089 0.00016082085  0.029899985 
number of iterations: 19711 
   19000    48.240619       17           15            2 1.5122439e-14 1.3942863e-16          0.1 0.0090000091 0.00016382278  0.029899985 
number of iterations: 19858 
   19100     48.46065       17           15            2 1.5393019e-14 1.3942901e-16          0.1 0.0090000092 0.00016687842  0.029899985 
number of iterations: 20005 
   19200    48.688202       18           16            2 1.5668442e-14 1.394294e-16          0.1 0.0090000094 0.00016998874  0.029899984 
number of iterations: 20153 
   19300    48.911825       19           17            2 1.5948792e-14 1.394298e-16          0.1 0.0090000096 0.00017315471  0.029899984 
number of iterations: 20302 
   19400    49.141903       19           17            2 1.6234158e-14 1.3943021e-16          0.1 0.0090000097 0.00017637732  0.029899984 
number of iterations: 20450 
   19500    49.366683       19           17            2 1.652463e-14 1.3943062e-16          0.1 0.0090000099 0.0001796576  0.029899984 
number of iterations: 20599 
   19600     49.60029       19           17            2  1.68203e-14 1.3943104e-16          0.1 0.0090000101 0.00018299657  0.029899983 
number of iterations: 20749 
   19700    49.830006       19           17            2 1.712126e-14 1.3943147e-16          0.1 0.0090000103 0.00018639528  0.029899983 
number of iterations: 20898 
   19800    50.086351       19           17            2 1.7427605e-14 1.394319e-16          0.1 0.0090000104 0.00018985481  0.029899983 
number of iterations: 21049 
   19900    50.339936       19           17            2 1.7739431e-14 1.3943235e-16          0.1 0.0090000106 0.00019337623  0.029899982 
number of iterations: 21199 
   20000    50.965958       19           17            2 1.8056837e-14 1.394328e-16          0.1 0.0090000108 0.00019696067  0.029899982 
number of iterations: 21350 
   20100      51.2016       19           17            2 1.8379922e-14 1.3943326e-16          0.1  0.009000011 0.00020060924  0.029899982 
number of iterations: 32485 
   20200    51.576565       19           17            2 1.8708788e-14 1.3943373e-16          0.1 0.0090000113 0.00020432309  0.029899981 
number of iterations: 21545 
   20300    51.845459       19           17            2 1.9043538e-14 1.3943421e-16          0.1 0.0090000115 0.00020810339  0.029899981 
number of iterations: 21890 
   20400    52.125198       21           19            2 1.9384277e-14 1.3943469e-16          0.1 0.0090000117 0.00021195133  0.029899981 
number of iterations: 22063 
   20500    52.358292       21           19            2 1.9731114e-14 1.3943519e-16          0.1 0.0090000119 0.00021586812   0.02989998 
number of iterations: 22228 
   20600    52.603538       21           19            2 2.0084156e-14 1.3943569e-16          0.1 0.0090000122  0.000219855   0.02989998 
number of iterations: 22392 
   20700    52.850002       21           19            2 2.0443515e-14 1.3943621e-16          0.1 0.0090000124 0.00022391321  0.029899979 
number of iterations: 22557 
   20800    53.106365       22           20            2 2.0809304e-14 1.3943673e-16          0.1 0.0090000126 0.00022804403  0.029899979 
number of iterations: 22722 
   20900    53.360398       23           21            2 2.1181638e-14 1.3943726e-16          0.1 0.0090000128 0.00023224876  0.029899979 
number of iterations: 22887 
   21000    53.975205       23           21            2 2.1560633e-14 1.3943781e-16          0.1 0.0090000131 0.00023652873  0.029899978 
number of iterations: 23054 
   21100    54.222201       23           21            2 2.1946411e-14 1.3943836e-16          0.1 0.0090000133 0.00024088528  0.029899978 
number of iterations: 23220 
   21200    54.489527       23           21            2 2.233909e-14 1.3943892e-16          0.1 0.0090000135 0.00024531977  0.029899978 
number of iterations: 23387 
   21300    54.763963       23           21            2 2.2738796e-14 1.394395e-16          0.1 0.0090000138 0.00024983362  0.029899977 
number of iterations: 23554 
   21400    55.052371       24           22            2 2.3145654e-14 1.3944008e-16          0.1  0.009000014 0.00025442822  0.029899977 
number of iterations: 23722 
   21500    55.320803       24           22            2 2.3559791e-14 1.3944068e-16          0.1 0.0090000143 0.00025910504  0.029899976 
number of iterations: 29457 
   21600    55.676914       26           24            2 2.3981338e-14 1.3944128e-16          0.1 0.0090000145 0.00026386553  0.029899976 
number of iterations: 27872 
   21700    56.054623       27           25            2 2.4410428e-14 1.394419e-16          0.1 0.0090000147 0.00026871121  0.029899976 
number of iterations: 23626 
   21800     56.32984       27           25            2 2.4847196e-14 1.3944253e-16          0.1 0.0090000149 0.00027364358  0.029899975 
number of iterations: 24083 
   21900     56.65486       27           25            2 2.5291779e-14 1.3944317e-16          0.1 0.0090000152 0.00027866421  0.029899975 
number of iterations: 24273 
   22000    57.385443       28           26            2 2.5744316e-14 1.3944382e-16          0.1 0.0090000155 0.00028377467  0.029899974 
number of iterations: 24436 
   22100    57.665595       28           26            2 2.620495e-14 1.3944449e-16          0.1 0.0090000157 0.00028897658  0.029899974 
number of iterations: 24595 
   22200    57.951862       28           26            2 2.6673826e-14 1.3944516e-16          0.1  0.009000016 0.00029427155  0.029899973 
number of iterations: 24755 
   22300    58.233373       28           26            2 2.7151092e-14 1.3944585e-16          0.1 0.0090000163 0.00029966127  0.029899973 
number of iterations: 24914 
   22400    58.524685       28           26            2 2.7636898e-14 1.3944655e-16          0.1 0.0090000166 0.00030514742  0.029899972 
number of iterations: 25074 
   22500     58.80669       29           27            2 2.8131395e-14 1.3944726e-16          0.1 0.0090000169 0.00031073174  0.029899972 
number of iterations: 31410 
   22600    59.184698       30           28            2 2.8634741e-14 1.3944799e-16          0.1 0.0090000173 0.00031641598  0.029899971 
number of iterations: 25397 
   22700    59.509654       31           29            2 2.9147093e-14 1.3944873e-16          0.1 0.0090000176 0.00032220192  0.029899971 
number of iterations: 25691 
   22800    59.793573       31           29            2 2.9668612e-14 1.3944948e-16          0.1 0.0090000179 0.00032809139   0.02989997 
number of iterations: 25869 
   22900    60.079521       33           31            2 3.0199462e-14 1.3945025e-16          0.1 0.0090000182 0.00033408623   0.02989997 
number of iterations: 32796 
   23000     60.84586       34           32            2 3.0739811e-14 1.3945103e-16          0.1 0.0090000186 0.00034018834  0.029899969 
number of iterations: 26297 
   23100    61.147482       34           32            2 3.1289828e-14 1.3945183e-16          0.1  0.009000019 0.00034639963  0.029899969 
number of iterations: 26577 
   23200    61.469163       34           32            2 3.1849686e-14 1.3945264e-16          0.1 0.0090000193 0.00035272206  0.029899968 
number of iterations: 26756 
   23300    61.822176       34           32            2 3.2419562e-14 1.3945346e-16          0.1 0.0090000196 0.00035915762  0.029899967 
number of iterations: 26931 
   23400    62.186143       34           32            2 3.2999634e-14 1.394543e-16          0.1   0.00900002 0.00036570832  0.029899967 
number of iterations: 30174 
   23500    62.533956       35           33            2 3.3590085e-14 1.3945516e-16          0.1 0.0090000203 0.00037237623  0.029899966 
number of iterations: 26575 
   23600    62.824831       36           34            2 3.4191101e-14 1.3945603e-16          0.1 0.0090000206 0.00037916345  0.029899966 
number of iterations: 33047 
   23700     63.19267       38           36            2 3.4802871e-14 1.3945692e-16          0.1 0.0090000211 0.00038607212  0.029899965 
number of iterations: 27562 
   23800    63.500631       39           37            2 3.5425587e-14 1.3945782e-16          0.1 0.0090000215 0.00039310439  0.029899964 
number of iterations: 27827 
   23900     63.80581       39           37            2 3.6059445e-14 1.3945874e-16          0.1 0.0090000219 0.00040026249  0.029899964 
number of iterations: 28007 
   24000     64.47579       39           37            2 3.6704645e-14 1.3945968e-16          0.1 0.0090000222 0.00040754867  0.029899963 
number of iterations: 28185 
   24100    64.791708       39           37            2 3.7361389e-14 1.3946063e-16          0.1 0.0090000226 0.00041496522  0.029899962 
number of iterations: 28363 
   24200    65.126151       39           37            2 3.8029883e-14 1.394616e-16          0.1 0.0090000231 0.00042251447  0.029899962 
number of iterations: 28542 
   24300    65.448724       39           37            2 3.8710339e-14 1.3946259e-16          0.1 0.0090000235 0.0004301988  0.029899961 
number of iterations: 28721 
   24400    65.758082       39           37            2 3.940297e-14 1.394636e-16          0.1 0.0090000239 0.00043802062   0.02989996 
number of iterations: 33862 
   24500    66.136432       40           38            2 4.0107994e-14 1.3946462e-16          0.1 0.0090000244 0.00044598239  0.029899959 
number of iterations: 29132 
   24600    66.495273       40           38            2 4.0825633e-14 1.3946566e-16          0.1 0.0090000248 0.00045408662  0.029899959 
number of iterations: 29378 
   24700    66.840031       43           41            2 4.1556112e-14 1.3946673e-16          0.1 0.0090000253 0.00046233586  0.029899958 
number of iterations: 32909 
   24800    67.286619       43           41            2 4.2299661e-14 1.3946781e-16          0.1 0.0090000256 0.0004707327  0.029899957 
number of iterations: 28972 
   24900    67.599584       44           42            2 4.3056515e-14 1.3946891e-16          0.1 0.0090000261 0.00047927977  0.029899957 
number of iterations: 29733 
   25000    68.298321       45           43            2 4.382691e-14 1.3947003e-16          0.1 0.0090000265 0.00048797978  0.029899956 
number of iterations: 29927 
   25100    68.670927       45           43            2 4.4611091e-14 1.3947117e-16          0.1  0.009000027 0.00049683546  0.029899955 
number of iterations: 30110 
   25200    69.044298       47           45            2 4.5409302e-14 1.3947233e-16          0.1 0.0090000275 0.00050584958  0.029899954 
number of iterations: 30293 
   25300    69.459657       48           46            2 4.6221795e-14 1.3947352e-16          0.1  0.009000028 0.00051502499  0.029899954 
number of iterations: 30475 
   25400    69.808528       48           46            2 4.7048826e-14 1.3947472e-16          0.1 0.0090000285 0.00052436458  0.029899953 
number of iterations: 30658 
   25500     70.27228       48           46            2 4.7890654e-14 1.3947595e-16          0.1  0.009000029 0.00053387127  0.029899952 
number of iterations: 30841 
   25600    70.608081       49           47            2 4.8747546e-14 1.394772e-16          0.1 0.0090000295 0.00054354807  0.029899951 
number of iterations: 31025 
   25700    70.993304       50           48            2 4.9619769e-14 1.3947847e-16          0.1   0.00900003 0.00055339801   0.02989995 
number of iterations: 35238 
   25800    71.452531       51           49            2 5.0507599e-14 1.3947976e-16          0.1 0.0090000307 0.00056342419  0.029899949 
number of iterations: 31437 
   25900    71.821123       51           49            2 5.1411314e-14 1.3948108e-16          0.1 0.0090000312 0.00057362976  0.029899948 
number of iterations: 31667 
   26000    72.575729       51           49            2 5.2331199e-14 1.3948242e-16          0.1 0.0090000318 0.00058401794  0.029899947 
number of iterations: 35732 
   26100    72.996076       54           52            2 5.3267543e-14 1.3948379e-16          0.1 0.0090000324  0.000594592  0.029899946 
number of iterations: 33765 
   26200    73.401242       55           53            2 5.4220641e-14 1.3948518e-16          0.1 0.0090000329 0.00060535525  0.029899945 
number of iterations: 31874 
   26300    73.740635       56           54            2 5.5190793e-14 1.394866e-16          0.1 0.0090000335 0.00061631108  0.029899944 
number of iterations: 32380 
   26400    74.104529       57           55            2 5.6178303e-14 1.3948804e-16          0.1 0.0090000341 0.00062746294  0.029899943 
number of iterations: 32572 
   26500    74.476579       58           56            2 5.7183482e-14 1.3948951e-16          0.1 0.0090000347 0.00063881434  0.029899942 
number of iterations: 33946 
   26600    74.847074       61           59            2 5.8206647e-14  1.39491e-16          0.1 0.0090000353 0.00065036885  0.029899941 
number of iterations: 36413 
   26700     75.28381       61           59            2 5.9248118e-14 1.3949252e-16          0.1  0.009000036 0.00066213009   0.02989994 
number of iterations: 33091 
   26800    75.651807       61           59            2 6.0308225e-14 1.3949407e-16          0.1 0.0090000366 0.00067410178  0.029899939 
number of iterations: 33319 
   26900    76.032668       62           60            2 6.1387299e-14 1.3949565e-16          0.1 0.0090000373 0.00068628767  0.029899938 
number of iterations: 34572 
   27000    76.824347       63           61            2 6.2485681e-14 1.3949725e-16          0.1 0.0090000379 0.0006986916  0.029899937 
number of iterations: 33388 
   27100     77.31127       65           63            2 6.3603716e-14 1.3949889e-16          0.1 0.0090000385 0.00071131747  0.029899936 
number of iterations: 33797 
   27200    77.710544       65           63            2 6.4741756e-14 1.3950055e-16          0.1 0.0090000392 0.00072416925  0.029899935 
number of iterations: 34798 
   27300    78.114526       69           67            2 6.5900158e-14 1.3950225e-16          0.1 0.0090000399 0.00073725098  0.029899934 
number of iterations: 33926 
   27400    78.525676       69           67            2 6.7079287e-14 1.3950397e-16          0.1 0.0090000405 0.00075056677  0.029899933 
number of iterations: 38880 
   27500    78.990519       70           68            2 6.8279514e-14 1.3950573e-16          0.1 0.0090000414 0.00076412082  0.029899931 
number of iterations: 34562 
   27600    79.430819       71           69            2 6.9501216e-14 1.3950752e-16          0.1 0.0090000421 0.00077791739   0.02989993 
number of iterations: 35781 
   27700    79.837897       72           70            2 7.0744777e-14 1.3950934e-16          0.1 0.0090000428 0.00079196082  0.029899929 
number of iterations: 34677 
   27800    80.226061       74           72            2 7.2010589e-14 1.3951119e-16          0.1 0.0090000436 0.00080625552  0.029899928 
number of iterations: 35077 
   27900    80.653717       75           73            2 7.329905e-14 1.3951308e-16          0.1 0.0090000443 0.00082080599  0.029899926 
number of iterations: 35272 
   28000    81.417738       76           74            2 7.4610565e-14  1.39515e-16          0.1 0.0090000451 0.00083561681  0.029899925 
number of iterations: 35463 
   28100    81.867574       76           74            2 7.5945546e-14 1.3951695e-16          0.1 0.0090000459 0.00085069263  0.029899924 
number of iterations: 35654 
   28200    82.318983       77           75            2 7.7304414e-14 1.3951894e-16          0.1 0.0090000468 0.0008660382  0.029899922 
number of iterations: 35846 
   28300    82.751779       78           76            2 7.8687595e-14 1.3952097e-16          0.1 0.0090000476 0.00088165834  0.029899921 
number of iterations: 36038 
   28400      83.1568       79           77            2 8.0095526e-14 1.3952303e-16          0.1 0.0090000485 0.00089755797  0.029899919 
number of iterations: 36230 
   28500     83.57151       79           77            2 8.1528647e-14 1.3952513e-16          0.1 0.0090000493 0.00091374208  0.029899918 
number of iterations: 39024 
   28600    83.999685       85           83            2 8.2987411e-14 1.3952727e-16          0.1 0.0090000503 0.00093021577  0.029899916 
number of iterations: 36649 
   28700    84.435265       86           84            2 8.4472277e-14 1.3952945e-16          0.1 0.0090000512 0.00094698422  0.029899915 
number of iterations: 36861 
   28800    84.870598       86           84            2 8.598371e-14 1.3953166e-16          0.1 0.0090000521 0.0009640527  0.029899913 
number of iterations: 37054 
   28900    85.331793       87           85            2 8.7522187e-14 1.3953392e-16          0.1  0.009000053 0.00098142658  0.029899912 
number of iterations: 37248 
   29000    86.115679       89           87            2 8.9088191e-14 1.3953621e-16          0.1  0.009000054 0.00099911133   0.02989991 
number of iterations: 37441 
   29100    86.607148       89           87            2 9.0682216e-14 1.3953855e-16          0.1  0.009000055 0.0010171125  0.029899909 
number of iterations: 37635 
   29200    87.177088       91           89            2 9.2304762e-14 1.3954093e-16          0.1 0.0090000559 0.0010354358  0.029899907 
number of iterations: 37829 
   29300    87.706511       93           91            2 9.3956339e-14 1.3954336e-16          0.1 0.0090000569 0.0010540869  0.029899905 
number of iterations: 38024 
   29400    88.130256       94           92            2 9.5637467e-14 1.3954582e-16          0.1  0.009000058 0.0010730717  0.029899904 
number of iterations: 38219 
   29500    88.537222       94           92            2 9.7348676e-14 1.3954833e-16          0.1  0.009000059 0.0010923962  0.029899902 
number of iterations: 38413 
   29600    88.948278       95           93            2 9.9090502e-14 1.3955089e-16          0.1 0.0090000601 0.0011120665    0.0298999 
number of iterations: 38241 
   29700    89.367019       98           96            2 1.0086349e-13 1.3955349e-16          0.1 0.0090000611 0.0011320888  0.029899898 
number of iterations: 40451 
   29800    89.790906      102          100            2 1.0266821e-13 1.3955614e-16          0.1 0.0090000622 0.0011524692  0.029899897 
number of iterations: 38930 
   29900    90.249732      104          102            2 1.0450522e-13 1.3955884e-16          0.1 0.0090000632 0.0011732144  0.029899895 
number of iterations: 39026 
   30000    91.040989      104          102            2 1.0637509e-13 1.3956159e-16          0.1 0.0090000643 0.0011943307  0.029899893 
number of iterations: 41418 
   30100    91.508922      110          108            2 1.0827843e-13 1.3956438e-16          0.1 0.0090000656 0.0012158249  0.029899891 
number of iterations: 39551 
   30200    92.034072      114          112            2 1.1021581e-13 1.3956723e-16          0.1 0.0090000667 0.0012377036  0.029899889 
number of iterations: 39759 
   30300    92.531678      117          115            2 1.1218787e-13 1.3957012e-16          0.1 0.0090000679 0.0012599739  0.029899887 
number of iterations: 39956 
   30400    93.006112      119          117            2 1.1419521e-13 1.3957307e-16          0.1 0.0090000692 0.0012826426  0.029899885 
number of iterations: 40153 
   30500     93.47714      119          117            2 1.1623846e-13 1.3957607e-16          0.1 0.0090000704 0.0013057169  0.029899883 
number of iterations: 40351 
   30600    93.906162      120          118            2 1.1831828e-13 1.3957913e-16          0.1 0.0090000717  0.001329204  0.029899881 
number of iterations: 40549 
   30700    94.410469      120          118            2 1.204353e-13 1.3958224e-16          0.1 0.0090000729 0.0013531114  0.029899879 
number of iterations: 40747 
   30800    94.840419      122          120            2 1.2259021e-13 1.3958541e-16          0.1 0.0090000742 0.0013774466  0.029899877 
number of iterations: 40945 
   30900    95.330501      123          121            2 1.2478367e-13 1.3958863e-16          0.1 0.0090000756 0.0014022172  0.029899874 
number of iterations: 43967 
   31000    96.218052      128          126            2 1.2701639e-13 1.3959191e-16          0.1 0.0090000771  0.001427431  0.029899872 
number of iterations: 40518 
   31100    96.717506      131          129            2 1.2928905e-13 1.3959526e-16          0.1 0.0090000784 0.0014530959   0.02989987 
number of iterations: 41591 
   31200    97.263624      132          130            2 1.3160237e-13 1.3959866e-16          0.1 0.0090000798 0.0014792201  0.029899867 
number of iterations: 41289 
   31300    97.759891      135          133            2 1.3395708e-13 1.3960212e-16          0.1 0.0090000811 0.0015058117  0.029899865 
number of iterations: 43221 
   31400    98.297478      137          135            2 1.3635393e-13 1.3960564e-16          0.1 0.0090000826  0.001532879  0.029899863 
number of iterations: 41058 
   31500    98.873546      138          136            2 1.3879367e-13 1.3960923e-16          0.1  0.009000084 0.0015604307   0.02989986 
number of iterations: 42321 
   31600    99.467838      141          139            2 1.4127705e-13 1.3961289e-16          0.1 0.0090000855 0.0015884754  0.029899858 
number of iterations: 44224 
   31700    100.06217      144          142            2 1.4380487e-13 1.396166e-16          0.1 0.0090000872 0.0016170218  0.029899855 
number of iterations: 44100 
   31800    100.61026      147          145            2 1.4637792e-13 1.3962039e-16          0.1 0.0090000888 0.0016460791  0.029899852 
number of iterations: 46486 
   31900    101.16827      149          147            2 1.4899701e-13 1.3962424e-16          0.1 0.0090000906 0.0016756562  0.029899849 
number of iterations: 43255 
   32000    102.15884      149          147            2 1.5166296e-13 1.3962817e-16          0.1 0.0090000922 0.0017057626  0.029899847 
number of iterations: 44972 
   32100    102.66809      150          148            2 1.5437662e-13 1.3963216e-16          0.1 0.0090000939 0.0017364076  0.029899844 
number of iterations: 42863 
   32200    103.19613      153          151            2 1.5713882e-13 1.3963622e-16          0.1 0.0090000955 0.0017676009  0.029899841 
number of iterations: 45363 
   32300    103.73217      157          155            2 1.5995045e-13 1.3964036e-16          0.1 0.0090000972 0.0017993524  0.029899838 
number of iterations: 44062 
   32400    104.25769      160          158            2 1.6281239e-13 1.3964458e-16          0.1  0.009000099  0.001831672  0.029899835 
number of iterations: 44269 
   32500    104.80865      162          160            2 1.6572553e-13 1.3964886e-16          0.1 0.0090001008 0.0018645699  0.029899832 
number of iterations: 46274 
   32600    105.34585      163          161            2 1.686908e-13 1.3965323e-16          0.1 0.0090001027 0.0018980564  0.029899829 
number of iterations: 43348 
   32700    105.85933      166          164            2 1.7170913e-13 1.3965767e-16          0.1 0.0090001044 0.0019321421  0.029899826 
number of iterations: 47064 
   32800    106.36975      169          167            2 1.7478146e-13 1.396622e-16          0.1 0.0090001064 0.0019668377  0.029899823 
number of iterations: 45118 
   32900    106.94819      176          174            2 1.7790876e-13 1.396668e-16          0.1 0.0090001083  0.002002154   0.02989982 
number of iterations: 43888 
   33000    107.89874      177          175            2 1.8109202e-13 1.3967149e-16          0.1 0.0090001102 0.0020381023  0.029899817 
number of iterations: 47297 
   33100    108.45635      181          179            2 1.8433224e-13 1.3967626e-16          0.1 0.0090001123 0.0020746937  0.029899813 
number of iterations: 44246 
   33200    108.96831      185          183            2 1.8763043e-13 1.3968112e-16          0.1 0.0090001142 0.0021119399   0.02989981 
number of iterations: 44476 
   33300    109.48661      188          186            2 1.9098763e-13 1.3968607e-16          0.1 0.0090001161 0.0021498525  0.029899807 
number of iterations: 45650 
   33400    110.02736      191          189            2 1.9440491e-13 1.396911e-16          0.1 0.0090001181 0.0021884435  0.029899803 
number of iterations: 45757 
   33500    110.55229      194          192            2 1.9788333e-13 1.3969623e-16          0.1 0.0090001202  0.002227725    0.0298998 
number of iterations: 46476 
   33600    111.09461      200          198            2 2.0142398e-13 1.3970145e-16          0.1 0.0090001224 0.0022677093  0.029899796 
number of iterations: 46680 
   33700    111.64914      206          204            2 2.0502799e-13 1.3970676e-16          0.1 0.0090001245  0.002308409  0.029899793 
number of iterations: 48119 
   33800    112.25169      210          208            2 2.0869648e-13 1.3971216e-16          0.1 0.0090001269  0.002349837  0.029899789 
number of iterations: 48143 
   33900    112.81081      215          213            2 2.1243061e-13 1.3971767e-16          0.1 0.0090001292 0.0023920062  0.029899785 
number of iterations: 48383 
   34000    113.74321      218          216            2 2.1623156e-13 1.3972327e-16          0.1 0.0090001316 0.0024349299  0.029899781 
number of iterations: 48718 
   34100    114.25423      221          219            2 2.2010051e-13 1.3972897e-16          0.1 0.0090001341 0.0024786217  0.029899777 
number of iterations: 48827 
   34200    114.81334      221          219            2 2.2403869e-13 1.3973478e-16          0.1 0.0090001365 0.0025230952  0.029899773 
number of iterations: 48014 
   34300    115.35307      226          224            2 2.2804734e-13 1.3974069e-16          0.1  0.009000139 0.0025683645  0.029899769 
number of iterations: 48938 
   34400    115.90515      232          230            2 2.3212771e-13 1.397467e-16          0.1 0.0090001415 0.0026144437  0.029899764 
number of iterations: 48440 
   34500    116.51938      235          233            2 2.3628109e-13 1.3975283e-16          0.1 0.0090001441 0.0026613474   0.02989976 
number of iterations: 48648 
   34600    117.14058      240          238            2 2.4050878e-13 1.3975906e-16          0.1 0.0090001467 0.0027090904  0.029899756 
number of iterations: 48089 
   34700    117.75285      247          245            2 2.4481212e-13 1.3976541e-16          0.1 0.0090001492 0.0027576876  0.029899752 
number of iterations: 50233 
   34800    118.32282      252          250            2 2.4919245e-13 1.3977187e-16          0.1  0.009000152 0.0028071543  0.029899747 
number of iterations: 49277 
   34900    118.88918      255          253            2 2.5365116e-13 1.3977845e-16          0.1 0.0090001547 0.0028575062  0.029899743 
number of iterations: 50389 
   35000    119.83402      259          257            2 2.5818965e-13 1.3978514e-16          0.1 0.0090001576 0.0029087589  0.029899738 
Loop time of 119.834 on 6 procs for 35000 steps with 259 atoms

Performance: 252348908.209 tau/day, 292.070 timesteps/s
99.8% CPU use with 6 MPI tasks x no OpenMP threads

MPI task timing breakdown:
Section |  min time  |  avg time  |  max time  |%varavg| %total
---------------------------------------------------------------
Pair    | 0.0031422  | 0.015181   | 0.073354   |  21.1 |  0.01
Neigh   | 11.954     | 12.635     | 13.956     |  26.0 | 10.54
Comm    | 13.067     | 13.068     | 13.068     |   0.0 | 10.91
Output  | 1.077      | 1.0797     | 1.0807     |   0.1 |  0.90
Modify  | 91.458     | 92.586     | 93.16      |   8.2 | 77.26
Other   |            | 0.4498     |            |       |  0.38

Nlocal:    43.1667 ave 257 max 0 min
Histogram: 5 0 0 0 0 0 0 0 0 1
Nghost:    0 ave 0 max 0 min
Histogram: 6 0 0 0 0 0 0 0 0 0
Neighs:    145.5 ave 873 max 0 min
Histogram: 5 0 0 0 0 0 0 0 0 1

Total # of neighbors = 873
Ave neighs/atom = 3.37066
Neighbor list builds = 416
Dangerous builds = 0
Total wall time: 0:02:00
