 NUFEB Simulation

     100 atoms 
     2 atom types 
     4 nutrients 

  0.0e-4   1.00e-04  xlo xhi 
  0.0e-4   1.00e-04  ylo yhi 
  0.0e-4   1.00e-05  zlo zhi 

 Atoms 

     1 1 1.72e-06  370 6.83e-05 7.52e-05 3.37e-06 1.72e-06 
     2 1 1.49e-06  370 3.45e-06 2.07e-05 5.44e-06 1.49e-06 
     3 1 1.89e-06  370 1.28e-05 8.98e-05 4.08e-06 1.89e-06 
     4 1 1.93e-06  370 9.13e-05 7.59e-05 2.80e-06 1.93e-06 
     5 1 1.82e-06  370 6.38e-05 3.32e-05 8.13e-06 1.82e-06 
     6 1 1.72e-06  370 8.93e-05 7.23e-05 3.07e-06 1.72e-06 
     7 1 1.71e-06  370 9.46e-05 9.85e-06 3.20e-06 1.71e-06 
     8 1 1.65e-06  370 4.31e-05 2.43e-05 7.62e-06 1.65e-06 
     9 1 1.46e-06  370 9.57e-05 1.59e-05 5.72e-06 1.46e-06 
     10 1 1.88e-06  370 9.56e-05 2.62e-06 5.33e-06 1.88e-06 
     11 1 1.45e-06  370 5.61e-05 1.04e-05 6.61e-06 1.45e-06 
     12 1 1.75e-06  370 1.21e-05 6.91e-05 6.11e-06 1.75e-06 
     13 1 1.46e-06  370 5.09e-05 7.84e-06 2.86e-06 1.46e-06 
     14 1 1.66e-06  370 5.60e-06 3.80e-05 6.43e-06 1.66e-06 
     15 1 1.44e-06  370 9.48e-05 5.49e-05 6.82e-06 1.44e-06 
     16 1 1.84e-06  370 5.55e-05 4.48e-05 4.79e-06 1.84e-06 
     17 1 1.39e-06  370 7.34e-05 4.98e-05 3.16e-06 1.39e-06 
     18 1 1.60e-06  370 9.04e-05 3.46e-05 2.67e-06 1.60e-06 
     19 1 1.69e-06  370 3.17e-05 1.77e-05 6.07e-06 1.69e-06 
     20 1 1.41e-06  370 7.66e-05 8.01e-05 5.81e-06 1.41e-06 
     21 1 1.69e-06  370 3.19e-05 6.97e-05 2.83e-06 1.69e-06 
     22 1 1.39e-06  370 1.34e-05 4.38e-05 3.03e-06 1.39e-06 
     23 1 1.60e-06  370 7.69e-05 8.19e-06 7.15e-06 1.60e-06 
     24 1 1.52e-06  370 7.50e-05 8.55e-05 6.01e-06 1.52e-06 
     25 1 1.50e-06  370 4.75e-05 4.82e-05 6.50e-06 1.50e-06 
     26 1 1.60e-06  370 3.90e-05 8.53e-05 7.67e-06 1.60e-06 
     27 1 1.56e-06  370 1.04e-05 5.47e-05 3.99e-06 1.56e-06 
     28 1 1.51e-06  370 2.85e-05 6.05e-05 4.41e-06 1.51e-06 
     29 1 1.90e-06  370 6.74e-05 4.53e-05 7.18e-06 1.90e-06 
     30 1 1.54e-06  370 6.71e-05 1.28e-05 4.86e-06 1.54e-06 
     31 1 1.75e-06  370 6.04e-05 4.96e-06 7.01e-06 1.75e-06 
     32 1 1.42e-06  370 7.61e-05 1.92e-05 8.24e-06 1.42e-06 
     33 1 1.87e-06  370 8.41e-05 3.66e-05 4.55e-06 1.87e-06 
     34 1 1.73e-06  370 1.38e-05 4.73e-05 3.05e-06 1.73e-06 
     35 1 1.74e-06  370 7.25e-05 7.44e-05 4.65e-06 1.74e-06 
     36 1 1.56e-06  370 8.72e-05 3.35e-05 2.17e-06 1.56e-06 
     37 1 1.86e-06  370 7.00e-05 2.80e-05 7.26e-06 1.86e-06 
     38 1 1.56e-06  370 4.62e-05 1.21e-05 2.35e-06 1.56e-06 
     39 1 1.49e-06  370 4.82e-05 5.56e-05 5.25e-06 1.49e-06 
     40 1 1.49e-06  370 3.61e-05 2.48e-05 2.79e-06 1.49e-06 
     41 1 1.42e-06  370 3.06e-05 7.68e-05 6.78e-06 1.42e-06 
     42 1 1.67e-06  370 9.70e-05 1.42e-05 4.38e-06 1.67e-06 
     43 1 1.87e-06  370 3.58e-05 7.73e-05 5.70e-06 1.87e-06 
     44 1 1.41e-06  370 3.41e-05 3.73e-05 2.23e-06 1.41e-06 
     45 1 1.62e-06  370 5.69e-05 9.35e-06 1.87e-06 1.62e-06 
     46 1 1.59e-06  370 2.28e-05 7.51e-05 4.26e-06 1.59e-06 
     47 1 1.48e-06  370 6.54e-05 5.20e-06 2.66e-06 1.48e-06 
     48 1 1.63e-06  370 2.83e-05 1.12e-05 1.88e-06 1.63e-06 
     49 1 1.65e-06  370 6.38e-05 1.99e-05 4.26e-06 1.65e-06 
     50 1 1.60e-06  370 4.83e-05 4.42e-05 2.94e-06 1.60e-06 
     51 2 1.25e-06  230 4.48e-05 2.42e-05 7.64e-06 1.25e-06 
     52 2 9.69e-07  230 8.58e-05 3.48e-05 2.67e-06 9.69e-07 
     53 2 1.18e-06  230 6.53e-06 6.11e-05 2.80e-06 1.18e-06 
     54 2 1.34e-06  230 1.64e-05 8.64e-05 2.20e-06 1.34e-06 
     55 2 1.12e-06  230 6.92e-05 7.83e-05 3.01e-06 1.12e-06 
     56 2 1.12e-06  230 5.71e-05 2.49e-05 6.17e-06 1.12e-06 
     57 2 1.36e-06  230 9.67e-05 8.10e-05 2.13e-06 1.36e-06 
     58 2 1.30e-06  230 6.28e-05 6.55e-05 4.07e-06 1.30e-06 
     59 2 1.33e-06  230 7.87e-05 3.67e-05 5.04e-06 1.33e-06 
     60 2 1.06e-06  230 7.68e-05 1.88e-05 4.85e-06 1.06e-06 
     61 2 1.32e-06  230 3.25e-05 6.53e-05 8.22e-06 1.32e-06 
     62 2 1.24e-06  230 3.15e-05 5.48e-05 3.62e-06 1.24e-06 
     63 2 1.15e-06  230 9.51e-05 9.69e-05 8.82e-06 1.15e-06 
     64 2 1.27e-06  230 3.45e-05 2.85e-05 3.39e-06 1.27e-06 
     65 2 1.04e-06  230 3.44e-05 2.19e-05 4.50e-06 1.04e-06 
     66 2 1.23e-06  230 8.08e-05 1.53e-05 5.51e-06 1.23e-06 
     67 2 1.30e-06  230 8.90e-05 4.17e-05 6.22e-06 1.30e-06 
     68 2 9.21e-07  230 2.55e-05 6.57e-05 3.12e-06 9.21e-07 
     69 2 1.29e-06  230 7.66e-05 5.03e-05 6.74e-06 1.29e-06 
     70 2 8.84e-07  230 9.41e-05 6.58e-05 5.44e-06 8.84e-07 
     71 2 1.10e-06  230 3.44e-05 6.99e-05 6.12e-06 1.10e-06 
     72 2 1.06e-06  230 6.65e-05 6.94e-05 8.90e-06 1.06e-06 
     73 2 1.27e-06  230 8.17e-05 7.31e-05 1.89e-06 1.27e-06 
     74 2 1.04e-06  230 4.59e-05 1.31e-05 2.42e-06 1.04e-06 
     75 2 1.33e-06  230 8.41e-05 9.58e-05 3.88e-06 1.33e-06 
     76 2 1.28e-06  230 4.48e-06 1.40e-05 2.23e-06 1.28e-06 
     77 2 1.17e-06  230 7.67e-05 4.05e-05 5.68e-06 1.17e-06 
     78 2 9.46e-07  230 8.26e-06 9.79e-05 8.51e-06 9.46e-07 
     79 2 9.50e-07  230 6.37e-05 9.51e-05 3.89e-06 9.50e-07 
     80 2 1.34e-06  230 4.16e-05 2.59e-06 5.30e-06 1.34e-06 
     81 2 9.23e-07  230 6.74e-05 5.70e-05 6.33e-06 9.23e-07 
     82 2 1.12e-06  230 6.46e-05 1.24e-05 6.52e-06 1.12e-06 
     83 2 1.13e-06  230 4.93e-05 2.85e-05 8.14e-06 1.13e-06 
     84 2 1.10e-06  230 7.49e-05 2.63e-05 2.28e-06 1.10e-06 
     85 2 1.35e-06  230 6.99e-05 7.58e-05 6.00e-06 1.35e-06 
     86 2 1.07e-06  230 6.84e-05 4.88e-05 8.46e-06 1.07e-06 
     87 2 1.03e-06  230 7.24e-05 7.22e-05 1.28e-06 1.03e-06 
     88 2 1.17e-06  230 5.47e-05 4.04e-05 7.88e-06 1.17e-06 
     89 2 1.10e-06  230 3.33e-05 9.62e-05 1.53e-06 1.10e-06 
     90 2 9.07e-07  230 7.00e-05 4.75e-05 8.25e-06 9.07e-07 
     91 2 1.00e-06  230 4.13e-05 1.77e-05 5.45e-06 1.00e-06 
     92 2 9.95e-07  230 9.46e-05 2.70e-05 7.43e-06 9.95e-07 
     93 2 1.23e-06  230 6.73e-05 5.37e-05 7.51e-06 1.23e-06 
     94 2 9.37e-07  230 5.03e-05 4.87e-05 1.96e-06 9.37e-07 
     95 2 1.35e-06  230 7.34e-06 3.61e-05 6.34e-06 1.35e-06 
     96 2 8.89e-07  230 3.20e-05 4.62e-05 4.03e-06 8.89e-07 
     97 2 1.26e-06  230 5.11e-05 2.62e-05 6.32e-06 1.26e-06 
     98 2 1.13e-06  230 4.12e-05 1.69e-05 5.44e-06 1.13e-06 
     99 2 1.24e-06  230 5.74e-06 9.35e-05 7.32e-06 1.24e-06 
     100 2 1.20e-06  230 2.73e-05 5.60e-05 8.06e-06 1.20e-06 

 Nutrients 

     1 sub g nn nn nn 1.00e-01 1.00e-01 
     2 o2 l nn nn nd 9.00e-03 9.00e-03 
     3 suc l nn nn nn 3.42e-20 3.42e-20 
     4 co2 l nn nn nd 2.99e-02 2.99e-02 

 Type Name 

     1 cyano  
     2 ecw  

 Diffusion Coeffs 

     sub 0 
     o2 2.3e-09 
     suc 5.2e-10 
     co2 1.9e-09 

 Growth Rate 

     cyano 1.67e-05 
     ecw 1.1e-05 

 Ks 

     cyano 0.00035 0.0002 0.01 0.000138 
     ecw 0 0.001 3.6 0.05 

 Yield 

     cyano 0.55 
     ecw 0.43 

 Maintenance 

     cyano 0 
     ecw 9.5e-07 

 Decay 

     cyano 0 
     ecw 0 



