LAMMPS (20 Nov 2019)
Reading data file ...
  orthogonal box = (0 0 0) to (0.0001 0.0001 1e-05)
  8 by 4 by 1 MPI processor grid
  reading atoms ...
  100 atoms
  4 nutrients
Lattice spacing in x,y,z = 100 100 100
50 atoms in group CYANO
50 atoms in group ECW
Model is defined as a closed system. 
Neighbor list info ...
  update every 1 steps, delay 0 steps, check yes
  max neighbors/atom: 5000, page size: 100000
  master list distance cutoff = 2.43e-06
  ghost atom cutoff = 2.43e-06
  binsize = 1.215e-06, bins = 83 83 9
  1 neighbor lists, perpetual/occasional/extra = 1 0 0
  (1) pair gran/hooke/history, perpetual
      attributes: half, newton off, size, history
      pair build: half/size/bin/newtoff
      stencil: half/bin/3d/newtoff
      bin: standard
Setting up Verlet run ...
  Unit style    : lj
  Current step  : 0
  Time step     : 10
Per MPI rank memory allocation (min/avg/max) = 5.79 | 10.57 | 12.11 Mbytes
Step CPU Atoms c_myNtypes[1] c_myNtypes[2] c_myMass[1] c_myMass[2] c_myCon[1] c_myCon[2] c_myCon[3] c_myCon[4] 
       0            0      100           50           50   4.2604e-14 9.4829173e-15          0.1        0.009     3.42e-20       0.0299 
number of iterations: 325477 
     100    15.608717      138           50           88 4.3168598e-14 9.4756937e-15          0.1 0.0090007397  0.034234169  0.029898768 
number of iterations: 4093 
     200    15.928507      152           50          102 4.3740677e-14 9.469347e-15          0.1 0.0090007494  0.067823358  0.029898752 
number of iterations: 2895 
     300    16.220168      152           50          102 4.4320338e-14 9.4638529e-15          0.1 0.0090007593   0.10183462  0.029898735 
number of iterations: 2418 
     400     16.47614      152           50          102 4.4907681e-14 9.4592032e-15          0.1 0.0090007694   0.13627624  0.029898718 
number of iterations: 2127 
     500    16.704178      153           51          102 4.5502807e-14 9.4553915e-15          0.1 0.0090007795   0.17115483  0.029898701 
number of iterations: 1919 
     600    16.935861      153           51          102 4.610582e-14 9.4524109e-15          0.1 0.0090007898   0.20647685  0.029898684 
number of iterations: 1758 
     700    17.148037      153           51          102 4.6716825e-14 9.4502556e-15          0.1 0.0090008002    0.2422487  0.029898667 
number of iterations: 1628 
     800    17.350209      153           51          102 4.7335926e-14 9.4489197e-15          0.1 0.0090008108    0.2784768  0.029898649 
number of iterations: 1518 
     900    17.563557      154           52          102 4.7963232e-14 9.4483978e-15          0.1 0.0090008215   0.31516763  0.029898631 
number of iterations: 1618 
    1000    17.821261      155           53          102 4.8598851e-14 9.4486846e-15          0.1 0.0090008369   0.35232772  0.029898605 
number of iterations: 1552 
    1100    18.029291      156           54          102 4.9242894e-14 9.4497752e-15          0.1 0.0090008441   0.38996366  0.029898593 
number of iterations: 1566 
    1200    18.224419      158           56          102 4.9895471e-14 9.4516648e-15          0.1 0.0090008543   0.42808214  0.029898576 
number of iterations: 1475 
    1300    18.438106      159           57          102 5.0556697e-14 9.4543495e-15          0.1 0.0090008656   0.46668992  0.029898558 
number of iterations: 1476 
    1400    18.645935      159           57          102 5.1226685e-14 9.4578242e-15          0.1  0.009000877   0.50579384  0.029898538 
number of iterations: 1479 
    1500    18.823879      159           57          102 5.1905552e-14 9.4620848e-15          0.1 0.0090008886   0.54540081  0.029898519 
number of iterations: 1482 
    1600    19.013806      160           58          102 5.2593415e-14 9.4671272e-15          0.1 0.0090009004   0.58551785    0.0298985 
number of iterations: 1485 
    1700     19.23651      160           58          102 5.3290395e-14 9.4729477e-15          0.1 0.0090009123   0.62615204   0.02989848 
number of iterations: 1549 
    1800    19.427365      161           59          102 5.399661e-14 9.4795427e-15          0.1 0.0090009293   0.66731056  0.029898451 
number of iterations: 1491 
    1900    19.618941      161           59          102 5.4712185e-14 9.4869086e-15          0.1 0.0090009416   0.70900071  0.029898431 
number of iterations: 1494 
    2000    19.919891      161           59          102 5.5437243e-14 9.4950421e-15          0.1 0.0090009541   0.75122982   0.02989841 
number of iterations: 1507 
    2100    20.110664      161           59          102 5.6171909e-14 9.5039399e-15          0.1 0.0090009699   0.79400536  0.029898384 
number of iterations: 1500 
    2200    20.317794      161           59          102 5.6916311e-14 9.5135992e-15          0.1 0.0090009827   0.83733487  0.029898362 
number of iterations: 1502 
    2300    20.505954      162           59          103 5.7670578e-14 9.5240171e-15          0.1 0.0090009957   0.88122599   0.02989834 
number of iterations: 1505 
    2400    20.696228      162           59          103 5.8434841e-14 9.5351909e-15          0.1 0.0090010089   0.92568645  0.029898318 
number of iterations: 1508 
    2500     20.89966      162           59          103 5.9209232e-14 9.547118e-15          0.1 0.0090010222   0.97072407  0.029898296 
number of iterations: 1511 
    2600     21.07833      162           59          103 5.9993885e-14 9.5597961e-15          0.1 0.0090010357    1.0163468  0.029898274 
number of iterations: 1592 
    2700    21.299895      165           61          104 6.0788937e-14 9.5732232e-15          0.1 0.0090010539    1.0625626  0.029898243 
number of iterations: 1516 
    2800    21.495166      165           61          104 6.1594525e-14 9.5873969e-15          0.1 0.0090010678    1.1093798   0.02989822 
number of iterations: 1520 
    2900    21.676428      166           62          104 6.2410788e-14 9.6023157e-15          0.1  0.009001085    1.1568064  0.029898192 
number of iterations: 1480 
    3000    21.865916      167           63          104 6.3237869e-14 9.6179777e-15          0.1 0.0090010924    1.2048508  0.029898179 
number of iterations: 1523 
    3100    22.037421      169           65          104 6.4075911e-14 9.6343809e-15          0.1 0.0090011042    1.2535215  0.029898159 
number of iterations: 1527 
    3200    22.215416      169           65          104 6.4925059e-14 9.6515238e-15          0.1 0.0090011188    1.3028271  0.029898135 
number of iterations: 1490 
    3300    22.411163      170           66          104 6.5785459e-14 9.6694048e-15          0.1 0.0090011336    1.3527763   0.02989811 
number of iterations: 1532 
    3400    22.602328      171           66          105 6.6657262e-14 9.6880229e-15          0.1 0.0090011486    1.4033778  0.029898085 
number of iterations: 1601 
    3500    22.804921      173           68          105 6.7540618e-14 9.707377e-15          0.1 0.0090011683    1.4546405  0.029898052 
number of iterations: 1538 
    3600    22.981218      173           68          105 6.843568e-14 9.7274662e-15          0.1 0.0090011838    1.5065733  0.029898027 
number of iterations: 1540 
    3700    23.197895      173           68          105 6.9342604e-14 9.7482894e-15          0.1 0.0090011994    1.5591854  0.029898001 
number of iterations: 1711 
    3800    23.394239      175           69          106 7.0261547e-14 9.7698431e-15          0.1 0.0090012178    1.6124858   0.02989797 
number of iterations: 1619 
    3900    23.613281      179           70          109 7.1192668e-14 9.7921286e-15          0.1 0.0090012384     1.666484  0.029897936 
number of iterations: 1552 
    4000    23.844133      179           70          109 7.2136128e-14 9.8151464e-15          0.1 0.0090012548    1.7211896  0.029897908 
number of iterations: 1583 
    4100    24.030496      181           72          109 7.3092091e-14 9.8388965e-15          0.1 0.0090012692    1.7766122  0.029897884 
number of iterations: 1558 
    4200    24.214451      181           72          109 7.4060723e-14 9.8633782e-15          0.1  0.009001286    1.8327614  0.029897856 
number of iterations: 1561 
    4300    24.416789      182           72          110 7.5042191e-14 9.8885915e-15          0.1  0.009001303    1.8896472  0.029897828 
number of iterations: 1563 
    4400     24.67727      184           73          111 7.6036666e-14 9.9145351e-15          0.1 0.0090013189    1.9472795  0.029897801 
number of iterations: 1541 
    4500    24.913096      185           74          111 7.7044319e-14 9.9412103e-15          0.1 0.0090013351    2.0056683  0.029897774 
number of iterations: 1569 
    4600    25.109296      185           74          111 7.8065327e-14 9.9686175e-15          0.1 0.0090013527     2.064824  0.029897745 
number of iterations: 1572 
    4700    25.290411      185           74          111 7.9099865e-14 9.9967568e-15          0.1 0.0090013706     2.124757  0.029897715 
number of iterations: 1621 
    4800    25.470595      189           78          111 8.0148112e-14 1.0025629e-14          0.1 0.0090013851    2.1854776  0.029897691 
number of iterations: 1578 
    4900    25.653943      190           79          111 8.1210252e-14 1.0055235e-14          0.1 0.0090014063    2.2469967  0.029897655 
number of iterations: 1428 
    5000    25.864172      190           79          111 8.2286467e-14 1.0085575e-14          0.1 0.0090014163    2.3093249  0.029897639 
number of iterations: 1582 
    5100    26.038589      190           79          111 8.3376944e-14 1.0116649e-14          0.1 0.0090014369    2.3724732  0.029897604 
number of iterations: 1585 
    5200    26.215505      190           79          111 8.4481873e-14 1.0148458e-14          0.1 0.0090014559    2.4364526  0.029897573 
number of iterations: 1589 
    5300    26.401371      191           80          111 8.5601444e-14 1.0181004e-14          0.1 0.0090014739    2.5012744  0.029897543 
number of iterations: 1637 
    5400    26.611979      194           83          111 8.6735852e-14 1.0214288e-14          0.1 0.0090014937    2.5669502   0.02989751 
number of iterations: 1594 
    5500     26.79407      194           83          111 8.7885293e-14 1.0248311e-14          0.1 0.0090015135    2.6334911  0.029897477 
number of iterations: 1618 
    5600     26.99594      197           85          112 8.9049967e-14 1.0283074e-14          0.1 0.0090015379    2.7009085  0.029897436 
number of iterations: 1600 
    5700    27.185733      198           86          112 9.0230075e-14 1.0318579e-14          0.1 0.0090015582    2.7692148  0.029897402 
number of iterations: 1603 
    5800    27.376911      198           86          112 9.1425823e-14 1.0354827e-14          0.1 0.0090015789    2.8384218  0.029897368 
number of iterations: 1759 
    5900    27.554168      201           88          113 9.2637417e-14 1.0391819e-14          0.1 0.0090016071    2.9085411  0.029897321 
number of iterations: 1546 
    6000    27.765718      203           90          113 9.3865067e-14 1.0429557e-14          0.1 0.0090016257    2.9795857   0.02989729 
number of iterations: 1614 
    6100    27.966236      206           91          115 9.5108986e-14 1.0468044e-14          0.1 0.0090016502    3.0515677  0.029897249 
number of iterations: 1621 
    6200    28.165999      207           92          115 9.6369389e-14 1.0507281e-14          0.1 0.0090016758    3.1244998  0.029897206 
number of iterations: 1605 
    6300    28.341479      210           94          116 9.7646496e-14 1.0547271e-14          0.1 0.0090016949    3.1983948  0.029897174 
number of iterations: 1610 
    6400    28.539999      216           99          117 9.8940527e-14 1.0588013e-14          0.1 0.0090017108    3.2732656  0.029897148 
number of iterations: 1626 
    6500    28.743827      217           99          118 1.0025171e-13 1.0629512e-14          0.1 0.0090017334    3.3491253   0.02989711 
number of iterations: 1658 
    6600    28.927345      218          100          118 1.0158026e-13 1.0671771e-14          0.1 0.0090017577    3.4259872   0.02989707 
number of iterations: 1630 
    6700    29.110769      220          101          119 1.0292643e-13 1.071479e-14          0.1 0.0090017809    3.5038648  0.029897031 
number of iterations: 1633 
    6800    29.323808      221          102          119 1.0429043e-13 1.0758572e-14          0.1 0.0090018045    3.5827717  0.029896991 
number of iterations: 1762 
    6900    29.530646      225          106          119 1.056725e-13 1.080312e-14          0.1 0.0090018277    3.6627217  0.029896953 
number of iterations: 1671 
    7000    29.725764      229          109          120 1.070729e-13 1.0848438e-14          0.1 0.0090018516    3.7437287  0.029896913 
number of iterations: 1644 
    7100    30.015475      230          109          121 1.0849185e-13 1.0894527e-14          0.1 0.0090018762    3.8258071  0.029896872 
number of iterations: 1646 
    7200    30.226503      231          110          121 1.0992961e-13 1.0941392e-14          0.1  0.009001901    3.9089711  0.029896831 
number of iterations: 1649 
    7300    30.430131      232          110          122 1.1138641e-13 1.0989033e-14          0.1 0.0090019262    3.9932352  0.029896789 
number of iterations: 1643 
    7400    30.623948      233          111          122 1.1286253e-13 1.1037456e-14          0.1 0.0090019471    4.0786143  0.029896754 
number of iterations: 1792 
    7500    30.821457      237          115          122 1.1435821e-13 1.1086662e-14          0.1 0.0090019822    4.1651231  0.029896695 
number of iterations: 1668 
    7600    31.024965      238          116          122 1.158737e-13 1.1136655e-14          0.1 0.0090020054    4.2527767  0.029896656 
number of iterations: 1664 
    7700    31.209697      241          118          123 1.1740929e-13 1.1187439e-14          0.1 0.0090020295    4.3415906  0.029896616 
number of iterations: 1666 
    7800     31.38907      243          119          124 1.1896522e-13 1.1239017e-14          0.1 0.0090020578    4.4315806  0.029896569 
number of iterations: 1676 
    7900     31.58393      245          121          124 1.2054177e-13 1.1291392e-14          0.1 0.0090020814    4.5227621   0.02989653 
number of iterations: 1544 
    8000    31.759642      247          123          124 1.2213921e-13 1.1344567e-14          0.1 0.0090020961    4.6151513  0.029896505 
number of iterations: 1668 
    8100    31.966896      248          124          124 1.2375783e-13 1.1398547e-14          0.1 0.0090021253    4.7087641  0.029896457 
number of iterations: 1630 
    8200    32.166928      249          125          124 1.2539789e-13 1.1453336e-14          0.1 0.0090021578    4.8036179  0.029896402 
number of iterations: 1688 
    8300    32.348609      252          128          124 1.2705969e-13 1.1508938e-14          0.1 0.0090021849    4.8997284  0.029896357 
number of iterations: 1679 
    8400    32.531649      252          128          124 1.2874351e-13 1.1565356e-14          0.1 0.0090022139    4.9971124  0.029896309 
number of iterations: 1582 
    8500    32.724952      254          130          124 1.3044964e-13 1.1622594e-14          0.1 0.0090022366     5.095787  0.029896271 
number of iterations: 1684 
    8600    32.946963      254          130          124 1.3217839e-13 1.1680657e-14          0.1 0.0090022663    5.1957694  0.029896222 
number of iterations: 1683 
    8700    33.137956      258          133          125 1.3393004e-13 1.1739549e-14          0.1 0.0090022873    5.2970771  0.029896186 
number of iterations: 1719 
    8800    33.327136      262          136          126 1.3570491e-13 1.1799274e-14          0.1 0.0090023205    5.3997279  0.029896131 
number of iterations: 1653 
    8900    33.520271      265          138          127 1.375033e-13 1.1859838e-14          0.1 0.0090023517    5.5037398  0.029896079 
number of iterations: 1728 
    9000    33.720208      265          138          127 1.3932552e-13 1.1921243e-14          0.1 0.0090023829    5.6091304  0.029896027 
number of iterations: 1698 
    9100    33.930286      266          138          128 1.4117189e-13 1.1983495e-14          0.1 0.0090024145    5.7159185  0.029895974 
number of iterations: 1700 
    9200    34.112561      266          138          128 1.4304272e-13 1.2046598e-14          0.1 0.0090024465    5.8241229  0.029895921 
number of iterations: 1707 
    9300    34.308621      271          141          130 1.4493835e-13 1.211056e-14          0.1 0.0090024762    5.9337625  0.029895872 
number of iterations: 1706 
    9400    34.520711      272          142          130 1.4685911e-13 1.2175382e-14          0.1  0.009002509    6.0448564  0.029895817 
number of iterations: 1767 
    9500    34.737904      276          145          131 1.4880531e-13 1.224107e-14          0.1 0.0090025445    6.1574242  0.029895758 
number of iterations: 1713 
    9600    35.036972      277          145          132 1.5077731e-13 1.2307629e-14          0.1 0.0090025782    6.2714854  0.029895702 
number of iterations: 1717 
    9700    35.231622      279          147          132 1.5277544e-13 1.2375064e-14          0.1 0.0090026074    6.3870601  0.029895653 
number of iterations: 1718 
    9800     35.43211      279          147          132 1.5480005e-13 1.244338e-14          0.1 0.0090026466    6.5041683  0.029895588 
number of iterations: 1583 
    9900    35.619847      283          151          132 1.5685149e-13 1.2512584e-14          0.1 0.0090026742    6.6228308  0.029895542 
number of iterations: 1722 
   10000    35.833008      285          152          133 1.5893011e-13 1.2582679e-14          0.1 0.0090027097    6.7430682  0.029895482 
number of iterations: 1719 
   10100    36.055414      288          155          133 1.6103629e-13 1.2653673e-14          0.1 0.0090027408    6.8649019  0.029895431 
number of iterations: 1727 
   10200    36.254178      291          156          135 1.6317037e-13 1.2725569e-14          0.1 0.0090027771    6.9883527   0.02989537 
number of iterations: 1764 
   10300    36.441597      295          159          136 1.6533274e-13 1.2798374e-14          0.1 0.0090028143    7.1134421  0.029895308 
number of iterations: 1711 
   10400    36.626192      299          161          138 1.6752376e-13 1.2872093e-14          0.1 0.0090028502    7.2401921  0.029895248 
number of iterations: 1745 
   10500    36.814869      300          162          138 1.6974381e-13 1.2946733e-14          0.1  0.009002888    7.3686248  0.029895185 
number of iterations: 1862 
   10600    37.020958      305          166          139 1.7199329e-13 1.3022299e-14          0.1 0.0090029397    7.4987628  0.029895099 
number of iterations: 1751 
   10700    37.216659      308          169          139 1.7427258e-13 1.3098795e-14          0.1 0.0090029885    7.6306286  0.029895018 
number of iterations: 1738 
   10800    37.421911      311          171          140 1.7658207e-13 1.3176231e-14          0.1 0.0090030282    7.7642453  0.029894952 
number of iterations: 1633 
   10900    37.607962      317          177          140 1.7892217e-13 1.3254609e-14          0.1 0.0090030594    7.8996366  0.029894899 
number of iterations: 1734 
   11000    37.824396      319          179          140 1.8129328e-13 1.3333939e-14          0.1 0.0090031033    8.0368257  0.029894826 
number of iterations: 1761 
   11100    38.044616      321          181          140 1.8369582e-13 1.3414226e-14          0.1  0.009003149    8.1758371   0.02989475 
number of iterations: 1673 
   11200     38.23575      326          186          140 1.8613019e-13 1.3495476e-14          0.1 0.0090031875    8.3166949  0.029894686 
number of iterations: 1771 
   11300    38.439496      328          188          140 1.8859682e-13 1.3577697e-14          0.1 0.0090032325    8.4594237  0.029894611 
number of iterations: 1758 
   11400    38.648667      329          189          140 1.9109614e-13 1.3660893e-14          0.1 0.0090032753    8.6040478   0.02989454 
number of iterations: 1769 
   11500     38.83818      335          192          143 1.9362858e-13 1.3745072e-14          0.1 0.0090033128    8.7505931  0.029894477 
number of iterations: 1805 
   11600    39.032972      339          195          144 1.9619459e-13 1.3830241e-14          0.1 0.0090033584    8.8990847  0.029894401 
number of iterations: 1797 
   11700    39.226771      343          198          145 1.9879459e-13 1.3916406e-14          0.1 0.0090034125    9.0495494  0.029894311 
number of iterations: 1770 
   11800    39.422648      344          199          145 2.0142906e-13 1.4003575e-14          0.1 0.0090034577    9.2020127  0.029894236 
number of iterations: 1771 
   11900    39.610709      350          202          148 2.0409843e-13 1.4091753e-14          0.1 0.0090035009    9.3565015  0.029894164 
number of iterations: 1790 
   12000    39.794471      354          204          150 2.0680318e-13 1.4180948e-14          0.1 0.0090035442    9.5130426  0.029894091 
number of iterations: 1749 
   12100    40.064966      359          207          152 2.0954378e-13 1.4271168e-14          0.1 0.0090035952    9.6716636  0.029894006 
number of iterations: 1824 
   12200     40.26409      367          212          155 2.1232069e-13 1.436242e-14          0.1 0.0090036616    9.8323922  0.029893896 
number of iterations: 1782 
   12300    40.474292      369          213          156 2.151344e-13 1.4454712e-14          0.1 0.0090037055    9.9952565  0.029893823 
number of iterations: 1809 
   12400    40.669867      374          218          156 2.179854e-13 1.4548051e-14          0.1  0.009003761    10.160286   0.02989373 
number of iterations: 1764 
   12500    40.851902      376          220          156 2.2087419e-13 1.4642445e-14          0.1 0.0090038027    10.327508  0.029893661 
number of iterations: 1725 
   12600    41.058073      380          224          156 2.2380125e-13 1.4737902e-14          0.1 0.0090038442    10.496952  0.029893592 
number of iterations: 1802 
   12700    41.262509      384          226          158 2.2676711e-13 1.483443e-14          0.1 0.0090039042    10.668647  0.029893492 
number of iterations: 1770 
   12800    41.465373      389          231          158 2.2977227e-13 1.4932036e-14          0.1 0.0090039559    10.842625  0.029893405 
number of iterations: 1801 
   12900    41.677609      392          233          159 2.3281725e-13 1.5030728e-14          0.1 0.0090040084    11.018914  0.029893318 
number of iterations: 1768 
   13000    41.886056      397          236          161 2.3590259e-13 1.5130515e-14          0.1 0.0090040646    11.197547  0.029893224 
number of iterations: 1763 
   13100    42.109196      405          243          162 2.3902881e-13 1.5231404e-14          0.1  0.009004107    11.378553  0.029893153 
number of iterations: 1815 
   13200     42.31392      407          244          163 2.4219646e-13 1.5333405e-14          0.1 0.0090041603    11.561965  0.029893065 
number of iterations: 1810 
   13300    42.500316      409          245          164 2.454061e-13 1.5436524e-14          0.1 0.0090042154    11.747815  0.029892973 
number of iterations: 1823 
   13400    42.693405      413          249          164 2.4865826e-13 1.5540771e-14          0.1 0.0090042713    11.936135   0.02989288 
number of iterations: 1785 
   13500      42.8744      417          252          165 2.5195353e-13 1.5646153e-14          0.1 0.0090043197    12.126958  0.029892799 
number of iterations: 1737 
   13600    43.065973      421          254          167 2.5529246e-13 1.5752682e-14          0.1 0.0090043732    12.320317   0.02989271 
number of iterations: 1906 
   13700    43.273756      425          257          168 2.5867564e-13 1.5860363e-14          0.1 0.0090044376    12.516247  0.029892602 
number of iterations: 1829 
   13800    43.461355      425          257          168 2.6210366e-13 1.5969208e-14          0.1 0.0090044932    12.714781   0.02989251 
number of iterations: 1805 
   13900    43.653503      431          262          169 2.655771e-13 1.6079224e-14          0.1 0.0090045497    12.915954  0.029892416 
number of iterations: 1885 
   14000    43.879976      435          266          169 2.6909658e-13 1.619042e-14          0.1  0.009004616    13.119801  0.029892305 
number of iterations: 1812 
   14100    44.109284      439          269          170 2.7266269e-13 1.6302806e-14          0.1 0.0090046763    13.326358  0.029892205 
number of iterations: 1697 
   14200    44.294658      446          271          175 2.7627606e-13 1.6416392e-14          0.1 0.0090047297     13.53566  0.029892116 
number of iterations: 1822 
   14300    44.483091      452          276          176 2.7993732e-13 1.6531186e-14          0.1 0.0090047954    13.747745  0.029892006 
number of iterations: 1836 
   14400    44.716315      459          282          177 2.836471e-13 1.6647199e-14          0.1 0.0090048615     13.96265  0.029891896 
number of iterations: 1839 
   14500    44.960057      461          284          177 2.8740604e-13 1.6764441e-14          0.1 0.0090049109    14.180411  0.029891814 
number of iterations: 1874 
   14600    45.152665      466          287          179 2.912148e-13 1.6882921e-14          0.1 0.0090049874    14.401067  0.029891686 
number of iterations: 1796 
   14700    45.332166      470          289          181 2.9507403e-13 1.7002648e-14          0.1 0.0090050436    14.624656  0.029891593 
number of iterations: 1872 
   14800    45.541067      474          293          181 2.989844e-13 1.7123632e-14          0.1 0.0090051154    14.851219  0.029891473 
number of iterations: 1860 
   14900    45.753197      478          296          182 3.0294659e-13 1.7245883e-14          0.1 0.0090051872    15.080793  0.029891353 
number of iterations: 1859 
   15000    45.967062      483          300          183 3.0696129e-13 1.7369412e-14          0.1 0.0090052482     15.31342  0.029891252 
number of iterations: 1833 
   15100    46.254675      491          307          184 3.110292e-13 1.7494228e-14          0.1 0.0090053208     15.54914  0.029891131 
number of iterations: 1865 
   15200    46.457959      493          308          185 3.1515101e-13 1.7620342e-14          0.1 0.0090053872    15.787994   0.02989102 
number of iterations: 1873 
   15300     46.67068      498          312          186 3.1932744e-13 1.7747765e-14          0.1 0.0090054544    16.030023  0.029890908 
number of iterations: 1911 
   15400    46.883619      507          316          191 3.2355922e-13 1.7876507e-14          0.1 0.0090055267    16.275271  0.029890788 
number of iterations: 1753 
   15500    47.070218      512          319          193 3.2784709e-13 1.8006578e-14          0.1 0.0090055866    16.523779  0.029890688 
number of iterations: 1943 
   15600    47.293071      520          326          194 3.3219177e-13 1.813799e-14          0.1 0.0090056724    16.775592  0.029890545 
number of iterations: 1862 
   15700    47.484089      534          336          198 3.3659403e-13 1.8270754e-14          0.1 0.0090057335    17.030753  0.029890443 
number of iterations: 1857 
   15800    47.685778      535          337          198 3.4105463e-13 1.840488e-14          0.1 0.0090058065    17.289306  0.029890321 
number of iterations: 1951 
   15900    47.943142      537          339          198 3.4557434e-13 1.8540379e-14          0.1 0.0090058838    17.551298  0.029890192 
number of iterations: 1931 
   16000    48.163918      543          345          198 3.5015395e-13 1.8677263e-14          0.1 0.0090059676    17.816772  0.029890053 
number of iterations: 1918 
   16100     48.38985      552          350          202 3.5479425e-13 1.8815543e-14          0.1 0.0090060495    18.085775  0.029889916 
number of iterations: 1880 
   16200    48.596903      557          353          204 3.5949604e-13 1.895523e-14          0.1 0.0090061217    18.358355  0.029889796 
number of iterations: 1897 
   16300    48.789183      561          355          206 3.6426014e-13 1.9096337e-14          0.1 0.0090062065    18.634559  0.029889655 
number of iterations: 1899 
   16400    48.992321      568          359          209 3.6908738e-13 1.9238875e-14          0.1 0.0090062899    18.914434  0.029889516 
number of iterations: 1957 
   16500    49.199082      574          363          211 3.7397858e-13 1.9382856e-14          0.1 0.0090063758    19.198031  0.029889373 
number of iterations: 1911 
   16600    49.406301      584          373          211 3.7893461e-13 1.9528291e-14          0.1 0.0090064635    19.485398  0.029889226 
number of iterations: 1925 
   16700    49.605136      594          381          213 3.8395631e-13 1.9675194e-14          0.1 0.0090065509    19.776586  0.029889081 
number of iterations: 1940 
   16800    49.830821      605          391          214 3.8904456e-13 1.9823576e-14          0.1 0.0090066419    20.071645  0.029888929 
number of iterations: 1902 
   16900     50.06008      610          394          216 3.9420024e-13 1.9973448e-14          0.1 0.0090067342    20.370628  0.029888775 
number of iterations: 1915 
   17000    50.277931      613          396          217 3.9942425e-13 2.0124824e-14          0.1 0.0090068195    20.673586  0.029888633 
number of iterations: 1915 
   17100    50.468076      623          404          219 4.0471748e-13 2.0277717e-14          0.1 0.0090069065    20.980573  0.029888488 
number of iterations: 1960 
   17200    50.680194      630          408          222 4.1008086e-13 2.0432138e-14          0.1 0.0090069966    21.291642  0.029888338 
number of iterations: 1917 
   17300    50.897498      639          415          224 4.1551532e-13  2.05881e-14          0.1 0.0090070829    21.606846  0.029888194 
number of iterations: 1953 
   17400    51.105626      648          422          226 4.2102179e-13 2.0745617e-14          0.1 0.0090071648    21.926242  0.029888058 
number of iterations: 1944 
   17500     51.29612      656          429          227 4.2660124e-13 2.0904701e-14          0.1 0.0090072724    22.249884  0.029887879 
number of iterations: 1867 
   17600     51.48405      662          432          230 4.3225462e-13 2.1065366e-14          0.1 0.0090073575     22.57783  0.029887737 
number of iterations: 1937 
   17700    51.679181      669          437          232 4.3798293e-13 2.1227626e-14          0.1 0.0090074519    22.910136  0.029887579 
number of iterations: 1923 
   17800    51.888286      673          440          233 4.4378714e-13 2.1391492e-14          0.1  0.009007548    23.246861  0.029887419 
number of iterations: 1886 
   17900    52.077333      676          441          235 4.4966828e-13 2.155698e-14          0.1 0.0090076416    23.588064  0.029887263 
number of iterations: 1918 
   18000    52.325941      683          445          238 4.5562735e-13 2.1724103e-14          0.1 0.0090077467    23.933805  0.029887088 
number of iterations: 1950 
   18100    52.523986      689          450          239 4.6166539e-13 2.1892875e-14          0.1 0.0090078482    24.284142  0.029886919 
number of iterations: 1952 
   18200    52.723268      697          457          240 4.6778345e-13 2.2063311e-14          0.1 0.0090079544    24.639137  0.029886742 
number of iterations: 1948 
   18300    52.938269      711          470          241 4.7398259e-13 2.2235423e-14          0.1 0.0090080243    24.998854  0.029886626 
number of iterations: 1941 
   18400    53.159392      719          476          243 4.8026387e-13 2.2409226e-14          0.1 0.0090081408    25.363353  0.029886432 
number of iterations: 1960 
   18500    53.364614      729          485          244 4.866284e-13 2.2584736e-14          0.1 0.0090082535    25.732698  0.029886244 
number of iterations: 1941 
   18600    53.578808      735          489          246 4.9307727e-13 2.2761966e-14          0.1 0.0090083577    26.106954   0.02988607 
number of iterations: 1982 
   18700    53.810935      745          498          247 4.9961161e-13 2.2940931e-14          0.1 0.0090084726    26.486186  0.029885879 
number of iterations: 1959 
   18800    54.021857      752          502          250 5.0623253e-13 2.3121646e-14          0.1 0.0090085803    26.870461  0.029885699 
number of iterations: 1971 
   18900    54.228409      758          507          251 5.129412e-13 2.3304126e-14          0.1 0.0090086979    27.259845  0.029885503 
number of iterations: 1968 
   19000    54.442228      761          510          251 5.1973877e-13 2.3488386e-14          0.1 0.0090088159    27.654406  0.029885307 
number of iterations: 1944 
   19100     54.70299      774          521          253 5.2662642e-13 2.367444e-14          0.1 0.0090089264    28.054213  0.029885123 
number of iterations: 2019 
   19200    54.915273      787          533          254 5.3360535e-13 2.3862305e-14          0.1 0.0090090386    28.459336  0.029884936 
number of iterations: 2027 
   19300     55.13344      793          538          255 5.4067676e-13 2.4051995e-14          0.1 0.0090091807    28.869845  0.029884699 
number of iterations: 1999 
   19400    55.344967      800          544          256 5.4784189e-13 2.4243528e-14          0.1 0.0090093032    29.285813  0.029884495 
number of iterations: 2021 
   19500    55.538785      807          547          260 5.5510196e-13 2.4436918e-14          0.1  0.009009425     29.70731  0.029884292 
number of iterations: 1943 
   19600    55.741869      822          559          263 5.6245825e-13 2.4632182e-14          0.1 0.0090095359    30.134412  0.029884107 
number of iterations: 1924 
   19700    55.940268      831          566          265 5.6991202e-13 2.4829336e-14          0.1 0.0090096556    30.567191  0.029883907 
number of iterations: 1995 
   19800    56.165909      838          572          266 5.7746458e-13 2.5028396e-14          0.1 0.0090097796    31.005725  0.029883701 
number of iterations: 1999 
   19900    56.395852      844          578          266 5.8511721e-13 2.5229379e-14          0.1 0.0090099115    31.450089  0.029883481 
number of iterations: 2011 
   20000    56.617717      849          582          267 5.9287127e-13 2.5432301e-14          0.1 0.0090100402     31.90036  0.029883267 
number of iterations: 2022 
   20100     56.83479      862          593          269 6.0072807e-13 2.5637179e-14          0.1 0.0090101748    32.356618  0.029883042 
number of iterations: 2046 
   20200    57.036819      870          599          271  6.08689e-13 2.584403e-14          0.1 0.0090103221    32.818943  0.029882797 
number of iterations: 2019 
   20300    57.263665      876          603          273 6.1675543e-13 2.6052871e-14          0.1 0.0090104618    33.287415  0.029882564 
number of iterations: 1991 
   20400    57.490209      884          611          273 6.2492875e-13 2.626372e-14          0.1 0.0090105913    33.762116  0.029882349 
number of iterations: 2026 
   20500     57.70116      895          619          276 6.3321038e-13 2.6476594e-14          0.1 0.0090107439    34.243127  0.029882094 
number of iterations: 2002 
   20600    57.953674      903          625          278 6.4160177e-13 2.6691511e-14          0.1 0.0090108788    34.730533  0.029881869 
number of iterations: 2035 
   20700    58.182972      913          632          281 6.5010435e-13 2.6908489e-14          0.1  0.009011017     35.22442  0.029881639 
number of iterations: 1997 
   20800    58.386368      927          643          284 6.5871962e-13 2.7127544e-14          0.1 0.0090111699    35.724872  0.029881385 
number of iterations: 1935 
   20900    58.630204      936          651          285 6.6744905e-13 2.7348697e-14          0.1 0.0090112909    36.231978  0.029881183 
number of iterations: 1987 
   21000    58.842247      951          664          287 6.7629417e-13 2.7571963e-14          0.1 0.0090114116    36.745826  0.029880982 
number of iterations: 2020 
   21100    59.076946      964          675          289 6.852565e-13 2.7797363e-14          0.1 0.0090115733    37.266505  0.029880712 
number of iterations: 2025 
   21200    59.299709      979          685          294 6.943376e-13 2.8024915e-14          0.1 0.0090117155    37.794107  0.029880475 
number of iterations: 2104 
   21300    59.503217      983          689          294 7.0353905e-13 2.8254637e-14          0.1 0.0090118842    38.328723  0.029880194 
number of iterations: 1960 
   21400    59.710486     1000          701          299 7.1286243e-13 2.8486549e-14          0.1 0.0090120344    38.870446  0.029879944 
number of iterations: 2034 
   21500    59.918322     1014          712          302 7.2230937e-13 2.872067e-14          0.1 0.0090121686    39.419372  0.029879721 
number of iterations: 2057 
   21600    60.132648     1023          719          304 7.318815e-13 2.8957019e-14          0.1 0.0090123246    39.975595  0.029879461 
number of iterations: 2034 
   21700    60.338254     1031          727          304 7.4158047e-13 2.9195617e-14          0.1  0.009012494    40.539212  0.029879178 
number of iterations: 2077 
   21800    60.609319     1047          738          309 7.5140798e-13 2.9436481e-14          0.1  0.009012661    41.110322    0.0298789 
number of iterations: 2039 
   21900    60.805514     1067          752          315 7.6136573e-13 2.9679632e-14          0.1 0.0090128166    41.689024  0.029878641 
number of iterations: 2031 
   22000    61.018455     1080          763          317 7.7145543e-13 2.9925091e-14          0.1   0.00901297    42.275419  0.029878385 
number of iterations: 2077 
   22100    61.252183     1086          767          319 7.8167884e-13 3.0172877e-14          0.1 0.0090131376    42.869609  0.029878106 
number of iterations: 2065 
   22200     61.45999     1092          771          321 7.9203774e-13 3.0423011e-14          0.1 0.0090133131    43.471699  0.029877814 
number of iterations: 2083 
   22300    61.678886     1112          787          325 8.0253391e-13 3.0675514e-14          0.1 0.0090134933    44.081793  0.029877513 
number of iterations: 2138 
   22400    61.901947     1125          797          328 8.1316917e-13 3.0930407e-14          0.1 0.0090136946    44.699996  0.029877178 
number of iterations: 2070 
   22500    62.119833     1141          811          330 8.2394537e-13 3.118771e-14          0.1 0.0090138925    45.326417  0.029876848 
number of iterations: 2031 
   22600    62.332092     1161          828          333 8.3486438e-13 3.1447445e-14          0.1 0.0090140707    45.961166  0.029876551 
number of iterations: 2019 
   22700    62.531494     1174          838          336 8.4592809e-13 3.1709633e-14          0.1 0.0090142438    46.604353  0.029876263 
number of iterations: 2121 
   22800    62.784878     1190          850          340 8.5713841e-13 3.1974296e-14          0.1 0.0090144699    47.256089  0.029875886 
number of iterations: 2013 
   22900    63.011172     1206          861          345 8.684973e-13 3.2241456e-14          0.1 0.0090146453    47.916488  0.029875594 
number of iterations: 2074 
   23000    63.221265     1218          871          347 8.8000671e-13 3.2511135e-14          0.1 0.0090148346    48.585666  0.029875279 
number of iterations: 2085 
   23100     63.43755     1226          879          347 8.9166864e-13 3.2783355e-14          0.1   0.00901502    49.263738   0.02987497 
number of iterations: 2071 
   23200    63.695299     1244          893          351 9.0348512e-13 3.3058138e-14          0.1 0.0090152082    49.950824  0.029874656 
number of iterations: 2073 
   23300    63.918883     1261          906          355 9.1545819e-13 3.3335508e-14          0.1 0.0090154079    50.647043  0.029874323 
number of iterations: 2122 
   23400    64.145154     1279          917          362 9.2758993e-13 3.3615486e-14          0.1  0.009015602    51.352515     0.029874 
number of iterations: 2092 
   23500    64.357243     1294          929          365 9.3988243e-13 3.3898096e-14          0.1 0.0090158135    52.067365  0.029873648 
number of iterations: 2104 
   23600    64.613335     1307          940          367 9.5233784e-13 3.4183362e-14          0.1  0.009016012    52.791716  0.029873317 
number of iterations: 2127 
   23700    64.838092     1324          951          373 9.6495831e-13 3.4471305e-14          0.1  0.009016236    53.525693  0.029872944 
number of iterations: 2061 
   23800    65.052778     1345          966          379 9.7774602e-13 3.4761952e-14          0.1  0.009016449    54.269427  0.029872589 
number of iterations: 2107 
   23900    65.268757     1354          972          382 9.9070319e-13 3.5055326e-14          0.1 0.0090166515    55.023046  0.029872252 
number of iterations: 2124 
   24000    65.504187     1368          983          385 1.0038321e-12 3.5351449e-14          0.1  0.009016873    55.786682  0.029871883 
number of iterations: 2102 
   24100    65.717173     1384          996          388 1.0171349e-12 3.5650347e-14          0.1  0.009017099    56.560466  0.029871506 
number of iterations: 2124 
   24200    65.943187     1405         1014          391 1.0306141e-12 3.5952045e-14          0.1 0.0090173248    57.344535   0.02987113 
number of iterations: 1986 
   24300    66.157035     1424         1030          394 1.0442719e-12 3.6256567e-14          0.1 0.0090175111    58.139026   0.02987082 
number of iterations: 2116 
   24400    66.366027     1439         1043          396 1.0581106e-12 3.6563938e-14          0.1 0.0090177514    58.944075  0.029870419 
number of iterations: 2164 
   24500    66.592433     1456         1054          402 1.0721328e-12 3.6874184e-14          0.1 0.0090180024    59.759823  0.029870001 
number of iterations: 2125 
   24600    66.825239     1474         1071          403 1.0863408e-12 3.718733e-14          0.1 0.0090182227    60.586411  0.029869634 
number of iterations: 2120 
   24700    67.037334     1484         1079          405 1.1007371e-12 3.7503402e-14          0.1 0.0090184598    61.423986  0.029869239 
number of iterations: 2155 
   24800    67.285274     1509         1102          407 1.1153241e-12 3.7822427e-14          0.1 0.0090187221    62.272692  0.029868802 
number of iterations: 2152 
   24900    67.525991     1522         1115          407 1.1301045e-12 3.8144429e-14          0.1 0.0090189831    63.132674  0.029868367 
number of iterations: 2140 
   25000    67.769257     1533         1124          409 1.1450807e-12 3.8469436e-14          0.1 0.0090192263    64.004086  0.029867962 
number of iterations: 2128 
   25100    68.008835     1549         1137          412 1.1602554e-12 3.8797474e-14          0.1 0.0090194719    64.887078  0.029867553 
number of iterations: 2142 
   25200    68.244219     1571         1156          415 1.1756311e-12 3.9128571e-14          0.1 0.0090197196    65.781806   0.02986714 
number of iterations: 2158 
   25300    68.472324     1592         1174          418 1.1912107e-12 3.9462753e-14          0.1  0.009020005    66.688423  0.029866665 
number of iterations: 2101 
   25400    68.692271     1608         1186          422 1.2069967e-12 3.9800048e-14          0.1 0.0090202536    67.607089  0.029866251 
number of iterations: 2147 
   25500     68.94953     1639         1212          427 1.2229919e-12 4.0140484e-14          0.1 0.0090205274    68.537963  0.029865794 
number of iterations: 2183 
   25600    69.171882     1654         1224          430 1.239199e-12 4.048409e-14          0.1 0.0090208151     69.48121  0.029865315 
number of iterations: 2188 
   25700    69.394472     1671         1237          434 1.255621e-12 4.0830893e-14          0.1 0.0090210915    70.436992  0.029864855 
number of iterations: 2137 
   25800    69.626277     1685         1248          437 1.2722605e-12 4.1180921e-14          0.1 0.0090213716    71.405474  0.029864388 
number of iterations: 2162 
   25900    69.865428     1711         1267          444 1.2891206e-12 4.1534204e-14          0.1 0.0090216514    72.386828  0.029863922 
number of iterations: 2155 
   26000    70.174778     1737         1288          449 1.3062041e-12 4.1890769e-14          0.1 0.0090219278    73.381223  0.029863461 
number of iterations: 2147 
   26100    70.407537     1760         1306          454 1.323514e-12 4.2250648e-14          0.1 0.0090222101    74.388832  0.029862991 
number of iterations: 2191 
   26200    70.635812     1788         1329          459 1.3410532e-12 4.2613868e-14          0.1 0.0090225097    75.409833  0.029862492 
number of iterations: 2188 
   26300    70.886439     1804         1342          462 1.3588249e-12 4.2980461e-14          0.1 0.0090228172    76.444401   0.02986198 
number of iterations: 2152 
   26400    71.162693     1824         1359          465 1.3768321e-12 4.3350456e-14          0.1 0.0090231005    77.492715  0.029861508 
number of iterations: 2162 
   26500    71.388999     1840         1370          470 1.395078e-12 4.3723883e-14          0.1 0.0090233911    78.554959  0.029861024 
number of iterations: 2184 
   26600    71.654259     1858         1387          471 1.4135656e-12 4.4100774e-14          0.1 0.0090236959    79.631319  0.029860516 
number of iterations: 2151 
   26700    71.912685     1887         1409          478 1.4310682e-12 4.4481158e-14          0.1  0.009024005    80.721041  0.029860001 
number of iterations: 2215 
   26800    72.156152     1909         1429          480 1.4500327e-12 4.4865067e-14          0.1 0.0090243367    81.825242  0.029859448 
number of iterations: 2204 
   26900    72.393085     1931         1449          482 1.4692486e-12 4.5252533e-14          0.1 0.0090246804    82.944114  0.029858876 
number of iterations: 2192 
   27000    72.629132     1942         1456          486 1.4887191e-12 4.5643588e-14          0.1 0.0090250168    84.077855  0.029858315 
number of iterations: 2186 
   27100    72.860765     1968         1481          487 1.5084477e-12 4.6038263e-14          0.1 0.0090253001    85.226659  0.029857843 
number of iterations: 2218 
   27200     73.10802     1992         1500          492 1.5284377e-12 4.6436591e-14          0.1 0.0090256446    86.390728   0.02985727 
number of iterations: 2223 
   27300    73.359971     2015         1518          497 1.5486926e-12 4.6838605e-14          0.1 0.0090260071    87.570266  0.029856666 
number of iterations: 2219 
   27400    73.584165     2041         1537          504 1.5692159e-12 4.7244337e-14          0.1 0.0090263557    88.765475  0.029856085 
number of iterations: 2160 
   27500    73.828624     2068         1562          506 1.5900112e-12 4.7653822e-14          0.1 0.0090266759    89.976567  0.029855552 
number of iterations: 2245 
   27600    74.054814     2092         1582          510 1.611082e-12 4.8067092e-14          0.1 0.0090270579    91.203751  0.029854915 
number of iterations: 2184 
   27700    74.286324     2123         1607          516 1.6324321e-12 4.8484181e-14          0.1 0.0090273983    92.447238  0.029854348 
number of iterations: 2218 
   27800    74.548082     2147         1629          518 1.6540651e-12 4.8905124e-14          0.1 0.0090277594    93.707248  0.029853747 
number of iterations: 2221 
   27900    74.785443     2171         1649          522 1.6759848e-12 4.9329954e-14          0.1 0.0090281224    94.983999  0.029853142 
number of iterations: 2215 
   28000      75.0655     2198         1672          526 1.698195e-12 4.9758708e-14          0.1 0.0090285187     96.27771  0.029852482 
number of iterations: 2223 
   28100    75.309473     2224         1693          531 1.7206995e-12 5.0191421e-14          0.1 0.0090288757    97.588612  0.029851887 
number of iterations: 2215 
   28200    75.543752     2262         1723          539 1.7435022e-12 5.0628127e-14          0.1 0.0090292388     98.91693  0.029851282 
number of iterations: 2231 
   28300    75.772863     2288         1745          543 1.7666071e-12 5.1068861e-14          0.1 0.0090296367     100.2629  0.029850619 
number of iterations: 2184 
   28400    75.999405     2314         1768          546 1.7900182e-12 5.1513662e-14          0.1 0.0090299777    101.62674  0.029850051 
number of iterations: 2189 
   28500    76.245318     2332         1784          548 1.8137395e-12 5.1962564e-14          0.1 0.0090303647    103.00871  0.029849406 
number of iterations: 2265 
   28600    76.482663     2373         1819          554 1.8377751e-12 5.2415605e-14          0.1 0.0090307421    104.40904  0.029848778 
number of iterations: 2252 
   28700    76.727697     2398         1844          554 1.8621293e-12 5.2872822e-14          0.1 0.0090311406    105.82797  0.029848114 
number of iterations: 2229 
   28800    76.973451     2424         1864          560 1.8868063e-12 5.3334253e-14          0.1 0.0090315323    107.26576  0.029847461 
number of iterations: 2250 
   28900     77.21762     2451         1885          566 1.9118102e-12 5.3799936e-14          0.1 0.0090319659    108.72264  0.029846739 
number of iterations: 2235 
   29000    77.472395     2481         1913          568 1.9371455e-12 5.4269908e-14          0.1 0.0090323973    110.19887   0.02984602 
number of iterations: 2220 
   29100    77.699632     2506         1932          574 1.9628165e-12 5.4744208e-14          0.1 0.0090327922    111.69472  0.029845362 
number of iterations: 2165 
   29200     78.00608     2539         1957          582 1.9874579e-12 5.5222875e-14          0.1 0.0090331817    113.20939  0.029844714 
number of iterations: 2268 
   29300    78.248257     2560         1975          585 2.0137956e-12 5.5705948e-14          0.1 0.0090336147    114.74419  0.029843992 
number of iterations: 2273 
   29400    78.481404     2597         2004          593 2.0404824e-12 5.6193468e-14          0.1 0.0090340303    116.29937    0.0298433 
number of iterations: 2251 
   29500    78.743872     2634         2031          603 2.0675228e-12 5.6685472e-14          0.1 0.0090344742    117.87522  0.029842561 
number of iterations: 2269 
   29600    78.980402     2670         2063          607 2.0949216e-12 5.7182003e-14          0.1 0.0090349462      119.472  0.029841774 
number of iterations: 2285 
   29700    79.225274     2703         2092          611 2.1226834e-12  5.76831e-14          0.1 0.0090354208    121.08999  0.029840984 
number of iterations: 2281 
   29800    79.484768     2733         2115          618 2.1508131e-12 5.8188805e-14          0.1 0.0090358742    122.72947  0.029840228 
number of iterations: 2265 
   29900    79.735776     2771         2148          623 2.1793156e-12 5.869916e-14          0.1 0.0090363489    124.39073  0.029839437 
number of iterations: 2262 
   30000    79.970745     2804         2176          628 2.2081958e-12 5.9214205e-14          0.1  0.009036815    126.07406  0.029838661 
number of iterations: 2320 
   30100    80.366401     2835         2198          637 2.2374587e-12 5.9733984e-14          0.1 0.0090373228    127.77975  0.029837815 
number of iterations: 2234 
   30200     80.62988     2862         2222          640 2.2671094e-12 6.0258539e-14          0.1 0.0090377942     129.5081   0.02983703 
number of iterations: 2287 
   30300    80.885307     2886         2243          643 2.2971531e-12 6.0787913e-14          0.1 0.0090382839    131.25941  0.029836214 
number of iterations: 2287 
   30400     81.12419     2926         2278          648 2.3275948e-12 6.1322149e-14          0.1 0.0090387685    133.03398  0.029835407 
number of iterations: 2268 
   30500    81.367177     2962         2308          654  2.35844e-12 6.186129e-14          0.1 0.0090392667    134.83212  0.029834577 
number of iterations: 2189 
   30600    81.636979     2998         2338          660 2.3861469e-12 6.2405382e-14          0.1 0.0090397282    136.65144  0.029833808 
number of iterations: 2251 
   30700    81.896516     3040         2368          672 2.4166072e-12 6.2954468e-14          0.1 0.0090402007    138.49404  0.029833021 
number of iterations: 2301 
   30800    82.136344     3087         2410          677 2.448632e-12 6.3508594e-14          0.1 0.0090407156     140.3611  0.029832163 
number of iterations: 2304 
   30900    82.404407     3118         2435          683 2.4810811e-12 6.4067803e-14          0.1 0.0090412412    142.25297  0.029831288 
number of iterations: 2307 
   31000    82.670949     3161         2470          691 2.5139602e-12 6.4632144e-14          0.1 0.0090418121    144.16997  0.029830337 
number of iterations: 2312 
   31100    82.929506     3211         2506          705 2.547275e-12 6.5201662e-14          0.1 0.0090423798    146.11243  0.029829391 
number of iterations: 2309 
   31200    83.188302     3249         2539          710 2.5810313e-12 6.5776403e-14          0.1 0.0090429605    148.08069  0.029828424 
number of iterations: 2344 
   31300    83.443323     3294         2579          715 2.615235e-12 6.6356414e-14          0.1 0.0090435009     150.0751  0.029827523 
number of iterations: 2326 
   31400    83.820692     3335         2614          721 2.6498919e-12 6.6941744e-14          0.1 0.0090440739    152.09599  0.029826569 
number of iterations: 2325 
   31500     84.06889     3375         2651          724 2.685008e-12 6.7532439e-14          0.1  0.009044636    154.14373  0.029825633 
number of iterations: 2326 
   31600    84.308341     3421         2686          735 2.7205895e-12 6.8128547e-14          0.1 0.0090452314    156.21866  0.029824641 
number of iterations: 2292 
   31700     84.60266     3465         2727          738 2.7566425e-12 6.8730119e-14          0.1 0.0090457649    158.32114  0.029823752 
number of iterations: 2316 
   31800    84.868883     3507         2762          745 2.7931733e-12 6.9337205e-14          0.1 0.0090463581    160.45156  0.029822764 
number of iterations: 2310 
   31900    85.215079     3548         2798          750 2.8301882e-12 6.9949852e-14          0.1 0.0090469467    162.61027  0.029821784 
number of iterations: 2340 
   32000    85.485051     3591         2828          763 2.8676936e-12 7.056811e-14          0.1  0.009047571    164.79765  0.029820744 
number of iterations: 2347 
   32100    85.773471     3645         2874          771 2.9056959e-12 7.119203e-14          0.1 0.0090481949    167.01408  0.029819704 
number of iterations: 2317 
   32200    86.039265     3681         2906          775 2.9432596e-12 7.1821664e-14          0.1 0.0090488196    169.25923  0.029818664 
number of iterations: 2258 
   32300    86.287626     3721         2942          779 2.9803159e-12 7.2457063e-14          0.1 0.0090493735    171.53271  0.029817741 
number of iterations: 2324 
   32400      86.5651     3766         2982          784 3.0198107e-12 7.3098278e-14          0.1 0.0090499686    173.83639   0.02981675 
number of iterations: 2289 
   32500     86.81149     3810         3023          787 3.0588442e-12 7.3745363e-14          0.1 0.0090505888    176.16991  0.029815717 
number of iterations: 2370 
   32600    87.084362     3857         3064          793 3.0993796e-12 7.4398372e-14          0.1 0.0090513143    178.53442  0.029814508 
number of iterations: 2306 
   32700    87.355095     3901         3099          802 3.1404522e-12 7.5057357e-14          0.1 0.0090519474    180.93033  0.029813454 
number of iterations: 2387 
   32800    87.615316     3934         3126          808 3.1820691e-12 7.5722374e-14          0.1 0.0090526789    183.35806  0.029812235 
number of iterations: 2289 
   32900    87.903562     3981         3167          814 3.2217773e-12 7.6393476e-14          0.1 0.0090533266    185.81616  0.029811156 
number of iterations: 2344 
   33000    88.172659     4026         3204          822 3.2644719e-12 7.7070718e-14          0.1 0.0090540013     188.3069  0.029810032 
number of iterations: 2360 
   33100    88.436981     4069         3242          827 3.3065536e-12 7.7754155e-14          0.1 0.0090547137    190.82981  0.029808845 
number of iterations: 2326 
   33200    88.683736     4126         3288          838 3.3492628e-12 7.8443842e-14          0.1   0.00905542    193.38538  0.029807669 
number of iterations: 2315 
   33300    88.963854     4175         3332          843 3.3923604e-12 7.9139836e-14          0.1 0.0090561526    195.97391  0.029806449 
number of iterations: 2345 
   33400    89.236947     4234         3380          854 3.4373155e-12 7.9842195e-14          0.1 0.0090567825     198.5968  0.029805399 
number of iterations: 2332 
   33500    89.535699     4286         3427          859 3.4816175e-12 8.0550973e-14          0.1 0.0090575028    201.25359    0.0298042 
number of iterations: 2365 
   33600    89.834917     4342         3473          869 3.5269157e-12 8.126623e-14          0.1 0.0090582791    203.94502  0.029802907 
number of iterations: 2381 
   33700    90.173949     4394         3514          880 3.5736539e-12 8.1988027e-14          0.1 0.0090590724     206.6722  0.029801585 
number of iterations: 2337 
   33800    90.447806     4445         3555          890 3.6201071e-12 8.271642e-14          0.1 0.0090597495     209.4349  0.029800457 
number of iterations: 2432 
   33900    90.714922     4522         3619          903 3.6680802e-12 8.3451471e-14          0.1 0.0090606125    212.23429   0.02979902 
number of iterations: 2321 
   34000     90.98432     4572         3666          906 3.7130964e-12 8.419324e-14          0.1 0.0090613332     215.0681  0.029797819 
number of iterations: 2358 
   34100    91.241609     4633         3722          911 3.7608694e-12 8.4941786e-14          0.1 0.0090620791    217.93845  0.029796577 
number of iterations: 2349 
   34200    91.527645     4691         3771          920 3.808031e-12 8.569717e-14          0.1 0.0090628859    220.84488  0.029795233 
number of iterations: 2355 
   34300    91.823837     4737         3813          924 3.8570414e-12 8.6459454e-14          0.1 0.0090636677     223.7888  0.029793931 
number of iterations: 2356 
   34400    92.136138     4784         3852          932 3.9071175e-12 8.7228701e-14          0.1 0.0090644784    226.77102   0.02979258 
number of iterations: 2401 
   34500    92.429966     4840         3899          941 3.9588939e-12 8.8004974e-14          0.1 0.0090653404    229.79284  0.029791144 
number of iterations: 2360 
   34600    92.718938     4892         3945          947 4.0113564e-12 8.8788336e-14          0.1  0.009066199    232.85481  0.029789714 
number of iterations: 2397 
   34700    93.001743     4944         3989          955 4.0645142e-12 8.9578851e-14          0.1 0.0090670207    235.95743  0.029788346 
number of iterations: 2402 
   34800    93.297181     5007         4043          964 4.1173593e-12 9.0376583e-14          0.1 0.0090678382    239.10047  0.029786984 
number of iterations: 2393 
   34900    93.557557     5062         4087          975 4.170506e-12 9.1181597e-14          0.1 0.0090686926    242.28417  0.029785561 
number of iterations: 2409 
   35000    93.877223     5123         4143          980 4.2257727e-12 9.199396e-14          0.1  0.009069593    245.51015  0.029784061 
Loop time of 93.8773 on 32 procs for 35000 steps with 5123 atoms

Performance: 322122720.377 tau/day, 372.827 timesteps/s
92.3% CPU use with 32 MPI tasks x no OpenMP threads

MPI task timing breakdown:
Section |  min time  |  avg time  |  max time  |%varavg| %total
---------------------------------------------------------------
Pair    | 0.0018344  | 0.074319   | 0.18693    |  15.3 |  0.08
Neigh   | 0.0024831  | 0.023016   | 0.05169    |   7.8 |  0.02
Comm    | 0.0416     | 0.18038    | 0.29574    |  15.9 |  0.19
Output  | 22.279     | 22.279     | 22.287     |   0.0 | 23.73
Modify  | 70.863     | 70.92      | 70.991     |   0.4 | 75.55
Other   |            | 0.4005     |            |       |  0.43

Nlocal:    160.094 ave 357 max 0 min
Histogram: 3 0 7 3 7 4 3 3 0 2
Nghost:    96.625 ave 208 max 1 min
Histogram: 4 2 3 7 1 2 5 6 1 1
Neighs:    598.156 ave 1369 max 0 min
Histogram: 3 1 6 3 8 2 5 1 2 1

Total # of neighbors = 19141
Ave neighs/atom = 3.73629
Neighbor list builds = 681
Dangerous builds = 0
Total wall time: 0:01:34
