 NUFEB Simulation

     100 atoms 
     2 atom types 
     4 nutrients 

  0.0e-4   1.00e-04  xlo xhi 
  0.0e-4   1.00e-04  ylo yhi 
  0.0e-4   1.00e-05  zlo zhi 

 Atoms 

     1 1 1.87e-06  370 2.88e-05 4.92e-05 5.39e-06 1.87e-06 
     2 1 1.61e-06  370 1.58e-05 4.60e-05 3.79e-06 1.61e-06 
     3 1 1.91e-06  370 6.73e-05 2.65e-05 4.16e-06 1.91e-06 
     4 1 1.39e-06  370 6.55e-05 6.45e-05 4.36e-06 1.39e-06 
     5 1 1.40e-06  370 1.84e-05 6.91e-05 5.66e-06 1.40e-06 
     6 1 1.74e-06  370 3.43e-06 2.22e-05 6.62e-06 1.74e-06 
     7 1 1.45e-06  370 8.16e-05 3.92e-05 2.37e-06 1.45e-06 
     8 1 1.89e-06  370 3.98e-05 6.05e-05 5.92e-06 1.89e-06 
     9 1 1.88e-06  370 9.04e-05 3.08e-05 4.86e-06 1.88e-06 
     10 1 1.55e-06  370 7.48e-05 1.36e-05 7.89e-06 1.55e-06 
     11 1 1.66e-06  370 1.07e-05 4.89e-05 3.15e-06 1.66e-06 
     12 1 1.62e-06  370 6.28e-05 7.44e-05 7.07e-06 1.62e-06 
     13 1 1.90e-06  370 3.73e-05 8.42e-05 7.97e-06 1.90e-06 
     14 1 1.68e-06  370 2.37e-05 4.56e-05 3.63e-06 1.68e-06 
     15 1 1.45e-06  370 4.71e-06 1.09e-05 3.07e-06 1.45e-06 
     16 1 1.47e-06  370 4.59e-05 9.13e-05 2.87e-06 1.47e-06 
     17 1 1.56e-06  370 4.42e-05 1.12e-05 2.54e-06 1.56e-06 
     18 1 1.86e-06  370 2.48e-05 8.67e-05 7.49e-06 1.86e-06 
     19 1 1.52e-06  370 1.93e-05 5.98e-05 7.86e-06 1.52e-06 
     20 1 1.71e-06  370 4.93e-05 2.94e-05 3.84e-06 1.71e-06 
     21 1 1.71e-06  370 5.17e-05 6.94e-05 3.81e-06 1.71e-06 
     22 1 1.66e-06  370 8.72e-05 5.00e-05 7.19e-06 1.66e-06 
     23 1 1.60e-06  370 5.36e-05 2.60e-05 7.84e-06 1.60e-06 
     24 1 1.58e-06  370 2.61e-05 3.93e-05 5.10e-06 1.58e-06 
     25 1 1.52e-06  370 7.57e-05 1.83e-05 1.81e-06 1.52e-06 
     26 1 1.73e-06  370 4.53e-05 7.58e-05 6.29e-06 1.73e-06 
     27 1 1.59e-06  370 3.88e-05 4.82e-06 7.94e-06 1.59e-06 
     28 1 1.47e-06  370 9.16e-05 7.45e-06 2.54e-06 1.47e-06 
     29 1 1.44e-06  370 4.09e-05 6.18e-05 4.81e-06 1.44e-06 
     30 1 1.93e-06  370 7.85e-05 3.89e-05 2.61e-06 1.93e-06 
     31 1 1.41e-06  370 8.32e-05 4.88e-06 3.26e-06 1.41e-06 
     32 1 1.40e-06  370 5.44e-05 6.57e-05 3.80e-06 1.40e-06 
     33 1 1.48e-06  370 1.22e-05 9.42e-05 6.91e-06 1.48e-06 
     34 1 1.79e-06  370 6.14e-05 4.75e-05 6.69e-06 1.79e-06 
     35 1 1.70e-06  370 7.35e-05 5.73e-06 6.42e-06 1.70e-06 
     36 1 1.66e-06  370 7.42e-05 1.04e-05 3.39e-06 1.66e-06 
     37 1 1.42e-06  370 2.26e-06 9.45e-05 6.18e-06 1.42e-06 
     38 1 1.45e-06  370 2.57e-05 5.77e-05 5.23e-06 1.45e-06 
     39 1 1.59e-06  370 5.66e-05 8.84e-05 1.72e-06 1.59e-06 
     40 1 1.43e-06  370 1.74e-05 5.90e-05 5.79e-06 1.43e-06 
     41 1 1.56e-06  370 1.84e-05 6.86e-05 5.56e-06 1.56e-06 
     42 1 1.58e-06  370 5.19e-05 1.74e-05 2.64e-06 1.58e-06 
     43 1 1.66e-06  370 1.09e-05 5.49e-05 4.88e-06 1.66e-06 
     44 1 1.64e-06  370 1.24e-05 1.04e-05 7.76e-06 1.64e-06 
     45 1 1.50e-06  370 4.92e-05 6.05e-05 7.40e-06 1.50e-06 
     46 1 1.66e-06  370 5.78e-06 4.60e-05 2.54e-06 1.66e-06 
     47 1 1.37e-06  370 6.20e-05 3.91e-05 2.00e-06 1.37e-06 
     48 1 1.60e-06  370 3.71e-05 6.61e-05 7.56e-06 1.60e-06 
     49 1 1.71e-06  370 7.37e-06 8.82e-05 4.08e-06 1.71e-06 
     50 1 1.52e-06  370 9.48e-05 3.29e-05 2.27e-06 1.52e-06 
     51 2 9.39e-07  230 7.88e-05 4.59e-05 7.37e-06 9.39e-07 
     52 2 9.27e-07  230 4.96e-06 7.93e-06 6.50e-06 9.27e-07 
     53 2 1.28e-06  230 3.19e-05 2.08e-05 4.63e-06 1.28e-06 
     54 2 1.13e-06  230 9.00e-05 2.01e-05 2.94e-06 1.13e-06 
     55 2 1.10e-06  230 5.83e-06 7.65e-06 4.71e-06 1.10e-06 
     56 2 1.10e-06  230 1.82e-05 2.90e-06 3.44e-06 1.10e-06 
     57 2 1.13e-06  230 2.35e-05 1.54e-06 4.89e-06 1.13e-06 
     58 2 9.83e-07  230 4.55e-05 6.20e-05 4.24e-06 9.83e-07 
     59 2 1.35e-06  230 7.75e-05 5.13e-05 7.26e-06 1.35e-06 
     60 2 1.06e-06  230 3.45e-05 9.43e-05 6.23e-06 1.06e-06 
     61 2 1.25e-06  230 6.47e-06 4.57e-05 7.19e-06 1.25e-06 
     62 2 1.08e-06  230 1.44e-05 1.65e-05 7.57e-06 1.08e-06 
     63 2 1.03e-06  230 6.90e-05 9.42e-05 7.00e-06 1.03e-06 
     64 2 9.11e-07  230 7.81e-05 2.84e-05 6.01e-06 9.11e-07 
     65 2 9.08e-07  230 8.99e-06 5.80e-05 7.32e-06 9.08e-07 
     66 2 9.32e-07  230 9.28e-05 8.47e-05 6.40e-06 9.32e-07 
     67 2 1.36e-06  230 5.05e-05 3.46e-05 2.34e-06 1.36e-06 
     68 2 1.32e-06  230 8.53e-05 3.82e-05 2.17e-06 1.32e-06 
     69 2 1.00e-06  230 7.87e-05 7.35e-06 7.37e-06 1.00e-06 
     70 2 1.10e-06  230 3.00e-05 1.17e-06 8.03e-06 1.10e-06 
     71 2 1.34e-06  230 5.41e-05 9.84e-06 6.52e-06 1.34e-06 
     72 2 9.55e-07  230 1.21e-05 7.63e-05 4.90e-06 9.55e-07 
     73 2 1.23e-06  230 3.34e-05 6.32e-05 8.36e-06 1.23e-06 
     74 2 1.20e-06  230 5.01e-05 3.33e-05 6.51e-06 1.20e-06 
     75 2 1.00e-06  230 5.43e-05 6.91e-05 4.80e-06 1.00e-06 
     76 2 1.39e-06  230 5.53e-05 1.22e-05 8.02e-06 1.39e-06 
     77 2 9.26e-07  230 4.20e-05 9.57e-05 3.81e-06 9.26e-07 
     78 2 1.07e-06  230 1.21e-05 2.63e-05 1.36e-06 1.07e-06 
     79 2 1.12e-06  230 2.01e-05 7.89e-05 7.39e-06 1.12e-06 
     80 2 1.29e-06  230 9.69e-05 1.20e-05 7.95e-06 1.29e-06 
     81 2 1.03e-06  230 5.90e-05 4.15e-05 8.71e-06 1.03e-06 
     82 2 1.28e-06  230 9.15e-05 4.65e-05 2.79e-06 1.28e-06 
     83 2 1.09e-06  230 9.01e-05 7.16e-05 7.73e-06 1.09e-06 
     84 2 1.18e-06  230 3.33e-05 3.96e-05 7.28e-06 1.18e-06 
     85 2 1.31e-06  230 1.04e-05 4.34e-05 5.86e-06 1.31e-06 
     86 2 1.23e-06  230 9.27e-05 2.20e-05 6.94e-06 1.23e-06 
     87 2 1.36e-06  230 1.89e-05 1.11e-05 6.86e-06 1.36e-06 
     88 2 9.23e-07  230 3.54e-05 6.45e-05 8.40e-06 9.23e-07 
     89 2 1.25e-06  230 6.69e-05 5.12e-05 1.72e-06 1.25e-06 
     90 2 1.02e-06  230 5.87e-05 2.00e-05 6.86e-06 1.02e-06 
     91 2 1.12e-06  230 7.38e-05 6.20e-05 8.60e-06 1.12e-06 
     92 2 1.07e-06  230 7.68e-05 1.55e-05 5.45e-06 1.07e-06 
     93 2 1.27e-06  230 7.78e-05 2.15e-05 8.68e-06 1.27e-06 
     94 2 1.26e-06  230 9.00e-05 8.40e-05 3.11e-06 1.26e-06 
     95 2 1.36e-06  230 6.65e-05 4.03e-05 2.70e-06 1.36e-06 
     96 2 1.34e-06  230 2.30e-05 2.42e-05 4.40e-06 1.34e-06 
     97 2 1.24e-06  230 5.68e-05 1.91e-05 3.48e-06 1.24e-06 
     98 2 9.00e-07  230 8.36e-05 2.47e-05 3.29e-06 9.00e-07 
     99 2 1.34e-06  230 6.44e-05 6.15e-05 2.72e-06 1.34e-06 
     100 2 9.03e-07  230 6.87e-05 1.35e-05 6.70e-06 9.03e-07 

 Nutrients 

     1 sub g nn nn nn 1.00e-01 1.00e-01 
     2 o2 l nn nn nd 9.00e-03 9.00e-03 
     3 suc l nn nn nn 3.42e-20 3.42e-20 
     4 co2 l nn nn nd 2.99e-02 2.99e-02 

 Type Name 

     1 cyano  
     2 ecw  

 Diffusion Coeffs 

     sub 0 
     o2 2.3e-09 
     suc 5.2e-10 
     co2 1.9e-09 

 Growth Rate 

     cyano 1.67e-05 
     ecw 1.6e-05 

 Ks 

     cyano 0.00035 0.0002 0.01 0.000138 
     ecw 0 0.001 3.6 0.05 

 Yield 

     cyano 0.55 
     ecw 0.43 

 Maintenance 

     cyano 0 
     ecw 9.5e-07 

 Decay 

     cyano 0 
     ecw 0 



