 NUFEB Simulation

     100 atoms 
     2 atom types 
     4 nutrients 

  0.0e-4   1.00e-04  xlo xhi 
  0.0e-4   1.00e-04  ylo yhi 
  0.0e-4   1.00e-05  zlo zhi 

 Atoms 

     1 1 1.66e-06  370 8.15e-05 2.25e-05 4.36e-06 1.66e-06 
     2 1 1.79e-06  370 2.98e-05 6.78e-05 2.38e-06 1.79e-06 
     3 1 1.79e-06  370 9.35e-06 6.01e-05 4.46e-06 1.79e-06 
     4 1 1.75e-06  370 9.71e-05 2.03e-05 2.33e-06 1.75e-06 
     5 1 1.54e-06  370 6.03e-05 8.90e-05 6.51e-06 1.54e-06 
     6 1 1.68e-06  370 3.11e-05 1.55e-05 6.62e-06 1.68e-06 
     7 1 1.53e-06  370 7.50e-06 4.21e-05 8.41e-06 1.53e-06 
     8 1 1.88e-06  370 2.31e-05 1.76e-05 5.65e-06 1.88e-06 
     9 1 1.61e-06  370 7.28e-05 4.14e-05 2.06e-06 1.61e-06 
     10 1 1.77e-06  370 6.99e-05 4.80e-05 3.77e-06 1.77e-06 
     11 1 1.68e-06  370 6.93e-06 3.21e-05 6.24e-06 1.68e-06 
     12 1 1.43e-06  370 8.44e-05 7.84e-05 3.07e-06 1.43e-06 
     13 1 1.93e-06  370 8.48e-05 9.52e-06 4.64e-06 1.93e-06 
     14 1 1.82e-06  370 8.35e-05 1.12e-05 4.43e-06 1.82e-06 
     15 1 1.75e-06  370 6.43e-05 1.74e-05 5.15e-06 1.75e-06 
     16 1 1.40e-06  370 9.32e-06 6.29e-05 7.26e-06 1.40e-06 
     17 1 1.79e-06  370 7.72e-05 8.80e-05 6.48e-06 1.79e-06 
     18 1 1.66e-06  370 9.81e-05 2.97e-06 6.36e-06 1.66e-06 
     19 1 1.87e-06  370 5.30e-05 1.69e-05 7.69e-06 1.87e-06 
     20 1 1.44e-06  370 5.64e-05 6.52e-05 6.84e-06 1.44e-06 
     21 1 1.82e-06  370 6.18e-05 7.44e-06 4.64e-06 1.82e-06 
     22 1 1.88e-06  370 9.08e-05 6.99e-05 3.46e-06 1.88e-06 
     23 1 1.60e-06  370 1.39e-05 4.67e-05 2.09e-06 1.60e-06 
     24 1 1.91e-06  370 7.00e-05 5.42e-06 3.93e-06 1.91e-06 
     25 1 1.86e-06  370 6.56e-05 4.36e-05 2.55e-06 1.86e-06 
     26 1 1.76e-06  370 6.02e-05 1.77e-05 6.56e-06 1.76e-06 
     27 1 1.87e-06  370 3.27e-06 2.06e-05 6.49e-06 1.87e-06 
     28 1 1.86e-06  370 2.12e-05 3.28e-05 7.84e-06 1.86e-06 
     29 1 1.55e-06  370 9.47e-05 1.88e-05 2.49e-06 1.55e-06 
     30 1 1.58e-06  370 8.27e-05 3.60e-05 4.96e-06 1.58e-06 
     31 1 1.87e-06  370 4.14e-05 8.76e-05 3.02e-06 1.87e-06 
     32 1 1.60e-06  370 8.23e-05 2.62e-05 7.04e-06 1.60e-06 
     33 1 1.90e-06  370 8.00e-05 1.19e-05 2.22e-06 1.90e-06 
     34 1 1.46e-06  370 7.28e-05 3.10e-06 5.39e-06 1.46e-06 
     35 1 1.67e-06  370 6.08e-05 3.66e-05 7.10e-06 1.67e-06 
     36 1 1.81e-06  370 6.17e-05 8.31e-05 6.97e-06 1.81e-06 
     37 1 1.64e-06  370 2.86e-06 5.79e-06 5.45e-06 1.64e-06 
     38 1 1.93e-06  370 6.89e-05 7.37e-05 7.43e-06 1.93e-06 
     39 1 1.91e-06  370 3.32e-05 6.30e-05 3.67e-06 1.91e-06 
     40 1 1.90e-06  370 1.64e-05 1.32e-05 6.30e-06 1.90e-06 
     41 1 1.74e-06  370 8.68e-05 2.48e-05 4.91e-06 1.74e-06 
     42 1 1.44e-06  370 7.05e-05 4.89e-05 4.88e-06 1.44e-06 
     43 1 1.83e-06  370 5.50e-05 2.42e-05 2.86e-06 1.83e-06 
     44 1 1.38e-06  370 6.66e-06 8.97e-05 8.17e-06 1.38e-06 
     45 1 1.82e-06  370 1.07e-05 5.22e-05 4.54e-06 1.82e-06 
     46 1 1.83e-06  370 4.45e-05 2.22e-05 5.91e-06 1.83e-06 
     47 1 1.58e-06  370 9.61e-05 6.94e-05 3.19e-06 1.58e-06 
     48 1 1.37e-06  370 6.56e-05 2.61e-05 8.39e-06 1.37e-06 
     49 1 1.77e-06  370 5.68e-05 8.02e-05 3.06e-06 1.77e-06 
     50 1 1.58e-06  370 7.63e-05 3.19e-05 6.27e-06 1.58e-06 
     51 2 1.17e-06  230 2.86e-05 9.13e-05 5.54e-06 1.17e-06 
     52 2 1.05e-06  230 8.36e-05 3.57e-05 3.74e-06 1.05e-06 
     53 2 1.14e-06  230 3.53e-05 5.37e-05 5.30e-06 1.14e-06 
     54 2 1.03e-06  230 1.28e-05 7.89e-05 2.12e-06 1.03e-06 
     55 2 9.64e-07  230 4.12e-05 2.14e-05 5.83e-06 9.64e-07 
     56 2 1.04e-06  230 2.85e-05 6.41e-05 5.39e-06 1.04e-06 
     57 2 1.34e-06  230 5.04e-05 9.24e-05 7.17e-06 1.34e-06 
     58 2 8.83e-07  230 7.82e-05 2.89e-06 2.97e-06 8.83e-07 
     59 2 8.83e-07  230 5.96e-05 2.04e-05 3.71e-06 8.83e-07 
     60 2 1.03e-06  230 5.07e-05 3.27e-05 2.08e-06 1.03e-06 
     61 2 1.28e-06  230 7.17e-05 6.56e-05 5.70e-06 1.28e-06 
     62 2 1.23e-06  230 4.54e-05 8.85e-06 2.77e-06 1.23e-06 
     63 2 9.27e-07  230 4.07e-05 9.71e-05 5.67e-06 9.27e-07 
     64 2 9.52e-07  230 4.08e-05 1.01e-05 8.26e-06 9.52e-07 
     65 2 1.33e-06  230 9.08e-05 9.72e-05 3.11e-06 1.33e-06 
     66 2 1.11e-06  230 7.58e-05 1.87e-05 4.11e-06 1.11e-06 
     67 2 1.20e-06  230 7.03e-05 5.13e-05 3.69e-06 1.20e-06 
     68 2 9.07e-07  230 9.58e-06 3.73e-05 3.84e-06 9.07e-07 
     69 2 1.06e-06  230 9.24e-05 8.31e-05 4.59e-06 1.06e-06 
     70 2 1.18e-06  230 8.85e-05 1.82e-05 2.03e-06 1.18e-06 
     71 2 9.36e-07  230 9.06e-05 8.37e-05 8.96e-06 9.36e-07 
     72 2 1.26e-06  230 5.61e-05 1.48e-05 6.22e-06 1.26e-06 
     73 2 9.02e-07  230 4.76e-05 5.73e-05 4.63e-06 9.02e-07 
     74 2 1.11e-06  230 8.26e-05 5.53e-05 8.01e-06 1.11e-06 
     75 2 1.14e-06  230 7.78e-05 7.08e-05 3.34e-06 1.14e-06 
     76 2 1.08e-06  230 7.01e-05 1.71e-05 4.13e-06 1.08e-06 
     77 2 1.15e-06  230 9.55e-05 6.80e-05 6.14e-06 1.15e-06 
     78 2 8.86e-07  230 3.26e-05 5.87e-05 7.27e-06 8.86e-07 
     79 2 1.30e-06  230 4.40e-05 6.88e-05 6.22e-06 1.30e-06 
     80 2 1.18e-06  230 5.00e-05 7.18e-05 3.52e-06 1.18e-06 
     81 2 9.74e-07  230 8.67e-06 1.75e-05 2.25e-06 9.74e-07 
     82 2 9.01e-07  230 6.40e-05 5.26e-05 5.78e-06 9.01e-07 
     83 2 9.23e-07  230 7.54e-05 5.73e-05 2.73e-06 9.23e-07 
     84 2 1.31e-06  230 1.72e-05 9.63e-05 6.82e-06 1.31e-06 
     85 2 1.13e-06  230 6.46e-05 7.53e-05 7.18e-06 1.13e-06 
     86 2 1.01e-06  230 7.01e-06 4.62e-06 6.37e-06 1.01e-06 
     87 2 9.41e-07  230 5.31e-05 6.44e-05 3.82e-06 9.41e-07 
     88 2 1.16e-06  230 7.01e-05 6.60e-05 8.58e-06 1.16e-06 
     89 2 1.34e-06  230 1.38e-05 9.86e-05 8.61e-06 1.34e-06 
     90 2 1.03e-06  230 2.22e-05 1.95e-05 5.29e-06 1.03e-06 
     91 2 1.35e-06  230 3.43e-05 7.51e-05 6.02e-06 1.35e-06 
     92 2 1.06e-06  230 3.06e-05 9.51e-05 6.57e-06 1.06e-06 
     93 2 1.08e-06  230 9.48e-05 7.55e-05 7.88e-06 1.08e-06 
     94 2 1.38e-06  230 4.67e-05 5.28e-05 8.42e-06 1.38e-06 
     95 2 1.09e-06  230 6.82e-05 1.32e-06 8.08e-06 1.09e-06 
     96 2 9.40e-07  230 1.22e-06 2.33e-05 6.41e-06 9.40e-07 
     97 2 1.06e-06  230 4.61e-06 1.05e-05 4.65e-06 1.06e-06 
     98 2 1.36e-06  230 1.60e-05 4.61e-05 2.32e-06 1.36e-06 
     99 2 1.05e-06  230 8.01e-05 5.40e-05 1.38e-06 1.05e-06 
     100 2 1.19e-06  230 9.51e-05 9.76e-05 3.72e-06 1.19e-06 

 Nutrients 

     1 sub g nn nn nn 1.00e-01 1.00e-01 
     2 o2 l nn nn nd 9.00e-03 9.00e-03 
     3 suc l nn nn nn 3.42e-20 3.42e-20 
     4 co2 l nn nn nd 2.99e-02 2.99e-02 

 Type Name 

     1 cyano  
     2 ecw  

 Diffusion Coeffs 

     sub 0 
     o2 2.3e-09 
     suc 5.2e-10 
     co2 1.9e-09 

 Growth Rate 

     cyano 1.67e-05 
     ecw 1.4e-05 

 Ks 

     cyano 0.00035 0.0002 0.01 0.000138 
     ecw 0 0.001 3.6 0.05 

 Yield 

     cyano 0.55 
     ecw 0.43 

 Maintenance 

     cyano 0 
     ecw 9.5e-07 

 Decay 

     cyano 0 
     ecw 0 



