LAMMPS (20 Nov 2019)
Reading data file ...
  orthogonal box = (0 0 0) to (0.0001 0.0001 1e-05)
  8 by 4 by 1 MPI processor grid
  reading atoms ...
  100 atoms
  4 nutrients
Lattice spacing in x,y,z = 100 100 100
50 atoms in group CYANO
50 atoms in group ECW
Model is defined as a closed system. 
Neighbor list info ...
  update every 1 steps, delay 0 steps, check yes
  max neighbors/atom: 5000, page size: 100000
  master list distance cutoff = 2.43e-06
  ghost atom cutoff = 2.43e-06
  binsize = 1.215e-06, bins = 83 83 9
  1 neighbor lists, perpetual/occasional/extra = 1 0 0
  (1) pair gran/hooke/history, perpetual
      attributes: half, newton off, size, history
      pair build: half/size/bin/newtoff
      stencil: half/bin/3d/newtoff
      bin: standard
Setting up Verlet run ...
  Unit style    : lj
  Current step  : 0
  Time step     : 10
Per MPI rank memory allocation (min/avg/max) = 5.792 | 10.71 | 12.11 Mbytes
Step CPU Atoms c_myNtypes[1] c_myNtypes[2] c_myMass[1] c_myMass[2] c_myCon[1] c_myCon[2] c_myCon[3] c_myCon[4] 
       0            0      100           50           50 4.9716146e-14 8.4137425e-15          0.1        0.009     3.42e-20       0.0299 
number of iterations: 331310 
     100    15.918286      132           50           82 5.0374995e-14 8.4077126e-15          0.1 0.0090008447  0.039971535  0.029898593 
number of iterations: 4906 
     200    16.285369      144           50           94 5.1042575e-14 8.4027214e-15          0.1 0.0090008559  0.079165679  0.029898574 
number of iterations: 2569 
     300    16.586422      144           50           94 5.1719002e-14 8.3988232e-15          0.1 0.0090008671   0.11884455  0.029898556 
number of iterations: 2023 
     400    16.854552      144           50           94 5.2404394e-14 8.3960178e-15          0.1 0.0090008786   0.15902264  0.029898536 
number of iterations: 1685 
     500    17.078613      146           52           94 5.3098868e-14 8.3942957e-15          0.1 0.0090008878   0.19970794  0.029898521 
number of iterations: 1524 
     600    17.301946      146           52           94 5.3802546e-14 8.3936472e-15          0.1 0.0090008995   0.24090824  0.029898501 
number of iterations: 1445 
     700    17.499934      148           54           94 5.4515548e-14 8.3940629e-15          0.1 0.0090009061   0.28263117   0.02989849 
number of iterations: 1529 
     800     17.70059      148           54           94   5.5238e-14 8.3955338e-15          0.1  0.009000918   0.32488435   0.02989847 
number of iterations: 1673 
     900    17.939117      150           56           94 5.5970026e-14  8.39805e-15          0.1 0.0090009362   0.36767534   0.02989844 
number of iterations: 1537 
    1000     18.17104      150           56           94 5.6711753e-14 8.4016044e-15          0.1 0.0090009486   0.41101186  0.029898419 
number of iterations: 1535 
    1100    18.371247      152           58           94 5.7463309e-14 8.406189e-15          0.1  0.009000955   0.45490166  0.029898409 
number of iterations: 1644 
    1200    18.572304      155           61           94 5.8224825e-14 8.4117962e-15          0.1 0.0090009667   0.49935256  0.029898389 
number of iterations: 1555 
    1300    18.774267      157           63           94 5.8996433e-14 8.4184185e-15          0.1 0.0090009756   0.54437244  0.029898374 
number of iterations: 1548 
    1400    18.955635      158           63           95 5.9778266e-14 8.4260487e-15          0.1 0.0090009885   0.58996933  0.029898353 
number of iterations: 1551 
    1500    19.158696      158           63           95 6.057046e-14 8.4346807e-15          0.1 0.0090010015   0.63615131  0.029898331 
number of iterations: 1553 
    1600    19.398116      158           63           95 6.1373153e-14 8.4443083e-15          0.1 0.0090010148   0.68292658  0.029898309 
number of iterations: 1540 
    1700     19.60101      160           65           95 6.2186483e-14 8.4549257e-15          0.1 0.0090010242   0.73030342  0.029898293 
number of iterations: 1762 
    1800    19.805413      163           68           95 6.3010592e-14 8.4665281e-15          0.1  0.009001047   0.77829023  0.029898255 
number of iterations: 1566 
    1900    20.030341      163           68           95 6.3845621e-14  8.47911e-15          0.1 0.0090010609    0.8268955  0.029898232 
number of iterations: 1569 
    2000    20.236009      164           69           95 6.4691717e-14 8.4926666e-15          0.1 0.0090010749   0.87612781  0.029898208 
number of iterations: 1572 
    2100    20.442763      164           69           95 6.5549025e-14 8.5071937e-15          0.1 0.0090010891   0.92599587  0.029898185 
number of iterations: 1635 
    2200    20.624889      167           72           95 6.6417695e-14 8.5226886e-15          0.1 0.0090011128   0.97650831  0.029898145 
number of iterations: 1577 
    2300    20.829529      167           72           95 6.7297876e-14 8.5391462e-15          0.1 0.0090011275    1.0276742  0.029898121 
number of iterations: 1580 
    2400    21.039415      168           72           96 6.8189722e-14 8.5565632e-15          0.1 0.0090011424    1.0795026  0.029898096 
number of iterations: 1580 
    2500    21.226113      170           74           96 6.9093386e-14 8.5749369e-15          0.1 0.0090011552    1.1320027  0.029898074 
number of iterations: 1655 
    2600    21.453716      171           75           96 7.0009027e-14 8.5942642e-15          0.1 0.0090011752    1.1851836  0.029898041 
number of iterations: 1647 
    2700    21.678742      173           77           96 7.0936801e-14 8.6145428e-15          0.1 0.0090011922    1.2390547  0.029898013 
number of iterations: 1593 
    2800    21.868579      173           77           96 7.187687e-14 8.6357703e-15          0.1  0.009001208    1.2936256  0.029897986 
number of iterations: 1596 
    2900     22.05512      174           78           96 7.2829398e-14 8.6579447e-15          0.1 0.0090012239    1.3489058   0.02989796 
number of iterations: 1599 
    3000    22.296991      177           78           99 7.3794548e-14 8.6810645e-15          0.1 0.0090012401     1.404905  0.029897933 
number of iterations: 1601 
    3100    22.495341      178           78          100 7.4772489e-14 8.7051285e-15          0.1 0.0090012565     1.461633  0.029897905 
number of iterations: 1604 
    3200    22.717232      178           78          100 7.576339e-14 8.7301354e-15          0.1 0.0090012732    1.5190999  0.029897878 
number of iterations: 1607 
    3300     22.97257      178           78          100 7.6767422e-14 8.7560847e-15          0.1   0.00900129    1.5773157   0.02989785 
number of iterations: 1610 
    3400    23.144906      179           78          101 7.778476e-14 8.7829756e-15          0.1 0.0090013071    1.6362906  0.029897821 
number of iterations: 1612 
    3500    23.332249      179           78          101 7.881558e-14 8.8108081e-15          0.1 0.0090013244    1.6960349  0.029897792 
number of iterations: 1615 
    3600     23.51985      179           78          101 7.986006e-14 8.8395821e-15          0.1 0.0090013419    1.7565593  0.029897763 
number of iterations: 1700 
    3700    23.714486      181           80          101 8.0918382e-14 8.8692979e-15          0.1 0.0090013685    1.8178742  0.029897719 
number of iterations: 1621 
    3800    23.896392      183           81          102 8.1990729e-14 8.8999564e-15          0.1 0.0090013866    1.8799904  0.029897688 
number of iterations: 1845 
    3900    24.092899      185           83          102 8.3077287e-14 8.9315579e-15          0.1 0.0090014123    1.9429188  0.029897645 
number of iterations: 1632 
    4000    24.331153      185           83          102 8.4178245e-14 8.9641033e-15          0.1  0.009001431    2.0066704  0.029897614 
number of iterations: 1635 
    4100    24.660106      185           83          102 8.5293792e-14 8.9975939e-15          0.1   0.00900145    2.0712564  0.029897583 
number of iterations: 1637 
    4200    24.870738      186           84          102 8.6424123e-14 9.0320313e-15          0.1 0.0090014657    2.1366881  0.029897556 
number of iterations: 1655 
    4300     25.07172      186           84          102 8.7569433e-14 9.067417e-15          0.1 0.0090014872     2.202977  0.029897521 
number of iterations: 1643 
    4400    25.281675      186           84          102 8.8729921e-14 9.103753e-15          0.1 0.0090015068    2.2701345  0.029897488 
number of iterations: 1646 
    4500    25.471386      186           84          102 8.9905788e-14 9.1410413e-15          0.1 0.0090015268    2.3381726  0.029897454 
number of iterations: 1662 
    4600     25.66237      187           85          102 9.1097238e-14 9.1792846e-15          0.1 0.0090015486     2.407103  0.029897418 
number of iterations: 1652 
    4700    25.882446      188           85          103 9.2304477e-14 9.2184847e-15          0.1 0.0090015691    2.4769378  0.029897384 
number of iterations: 1655 
    4800    26.119645      191           87          104 9.3527715e-14 9.2586448e-15          0.1 0.0090015915    2.5476894  0.029897347 
number of iterations: 1558 
    4900    26.306508      192           88          104 9.4767163e-14 9.2997683e-15          0.1 0.0090016113    2.6193702  0.029897313 
number of iterations: 1628 
    5000     26.52162      192           88          104 9.6023037e-14 9.3418589e-15          0.1 0.0090016326    2.6919928  0.029897278 
number of iterations: 1695 
    5100    26.707778      195           91          104 9.7295554e-14 9.3849187e-15          0.1  0.009001659    2.7655698  0.029897234 
number of iterations: 1665 
    5200    26.878915      196           92          104 9.8584934e-14 9.4289518e-15          0.1  0.009001681    2.8401139  0.029897197 
number of iterations: 1669 
    5300    27.090713      196           92          104 9.9891402e-14 9.4739621e-15          0.1 0.0090017065    2.9156381  0.029897155 
number of iterations: 1575 
    5400    27.274973      198           94          104 1.0121518e-13 9.5199531e-15          0.1 0.0090017314    2.9921556  0.029897113 
number of iterations: 1730 
    5500    27.455544      199           95          104 1.0255651e-13 9.5669297e-15          0.1 0.0090017559    3.0696798  0.029897072 
number of iterations: 1709 
    5600    27.663287      202           98          104 1.0391561e-13 9.6148958e-15          0.1 0.0090017854    3.1482241  0.029897023 
number of iterations: 1679 
    5700    27.852109      202           98          104 1.0529272e-13 9.6638564e-15          0.1 0.0090018091    3.2278024  0.029896984 
number of iterations: 1685 
    5800    28.045819      205          100          105 1.0668808e-13 9.7138166e-15          0.1 0.0090018396    3.3084283  0.029896933 
number of iterations: 1597 
    5900    28.262989      206          101          105 1.0810193e-13 9.7647812e-15          0.1 0.0090018609    3.3901162  0.029896897 
number of iterations: 1684 
    6000    28.449541      207          102          105 1.0953452e-13 9.8167558e-15          0.1 0.0090018871    3.4728801  0.029896854 
number of iterations: 1689 
    6100    28.699198      210          105          105 1.1098609e-13 9.8697454e-15          0.1 0.0090019101    3.5567346  0.029896815 
number of iterations: 1586 
    6200    28.874199      215          110          105 1.124569e-13 9.9237562e-15          0.1 0.0090019327    3.6416942  0.029896778 
number of iterations: 1701 
    6300    29.095326      217          112          105 1.139472e-13 9.9787937e-15          0.1 0.0090019558     3.727774  0.029896739 
number of iterations: 1697 
    6400    29.298578      220          114          106 1.1545725e-13 1.0034864e-14          0.1 0.0090019848    3.8149888  0.029896691 
number of iterations: 1690 
    6500    29.588992      224          117          107 1.1698731e-13 1.0091973e-14          0.1 0.0090020042     3.903354  0.029896658 
number of iterations: 1791 
    6600    29.781928      226          119          107 1.1853765e-13 1.0150128e-14          0.1 0.0090020359    3.9928847  0.029896605 
number of iterations: 1707 
    6700    29.976914      227          120          107 1.2010854e-13 1.0209334e-14          0.1 0.0090020648    4.0835965  0.029896557 
number of iterations: 1746 
    6800    30.198622      229          122          107 1.2170024e-13 1.0269599e-14          0.1 0.0090020983    4.1755053  0.029896501 
number of iterations: 1683 
    6900    30.386359      235          127          108 1.2331304e-13 1.0330928e-14          0.1 0.0090021278    4.2686275  0.029896452 
number of iterations: 1698 
    7000    30.570678      239          130          109 1.249472e-13 1.039333e-14          0.1 0.0090021434    4.3629791  0.029896426 
number of iterations: 1713 
    7100     30.75692      240          131          109 1.2660303e-13 1.0456811e-14          0.1 0.0090021683    4.4585767  0.029896384 
number of iterations: 1719 
    7200    30.936018      243          133          110 1.282808e-13 1.0521381e-14          0.1 0.0090021971    4.5554368  0.029896337 
number of iterations: 1722 
    7300    31.119806      244          134          110 1.299808e-13 1.0587045e-14          0.1 0.0090022262    4.6535762  0.029896288 
number of iterations: 1598 
    7400    31.303207      247          136          111 1.3170333e-13 1.0653813e-14          0.1 0.0090022487     4.753012   0.02989625 
number of iterations: 1735 
    7500    31.499158      248          137          111 1.3344869e-13 1.0721693e-14          0.1 0.0090022747    4.8537615  0.029896207 
number of iterations: 1730 
    7600    31.705842      252          140          112 1.3521718e-13 1.0790692e-14          0.1 0.0090023107    4.9558423  0.029896147 
number of iterations: 1732 
    7700    31.904575      252          140          112 1.370091e-13 1.086082e-14          0.1 0.0090023413    5.0592723  0.029896096 
number of iterations: 1768 
    7800    32.101349      255          143          112 1.3882477e-13 1.0932085e-14          0.1 0.0090023775    5.1640692  0.029896036 
number of iterations: 1754 
    7900    32.285093      257          145          112 1.4066451e-13 1.1004496e-14          0.1 0.0090024074    5.2702515  0.029895986 
number of iterations: 1675 
    8000    32.464179      259          146          113 1.4252862e-13 1.1078061e-14          0.1 0.0090024416    5.3778377  0.029895929 
number of iterations: 1728 
    8100    32.843633      261          148          113 1.4441744e-13 1.1152791e-14          0.1 0.0090024798    5.4868467  0.029895865 
number of iterations: 1746 
    8200     33.01791      262          148          114 1.4633128e-13 1.1228695e-14          0.1 0.0090025126    5.5972974   0.02989581 
number of iterations: 1751 
    8300    33.208329      265          150          115 1.4827049e-13 1.1305781e-14          0.1 0.0090025436    5.7092088  0.029895759 
number of iterations: 1599 
    8400    33.386902      268          152          116 1.502354e-13 1.1384062e-14          0.1 0.0090025715    5.8226013  0.029895712 
number of iterations: 1645 
    8500    33.584583      271          154          117 1.5222635e-13 1.1463545e-14          0.1 0.0090025984    5.9374936  0.029895667 
number of iterations: 1751 
    8600    33.785385      275          156          119 1.5424368e-13 1.1544242e-14          0.1 0.0090026257    6.0539059  0.029895622 
number of iterations: 1756 
    8700    33.977163      275          156          119 1.5628775e-13 1.1626162e-14          0.1 0.0090026642    6.1718587  0.029895558 
number of iterations: 1782 
    8800    34.186113      278          157          121 1.5835891e-13 1.1709317e-14          0.1 0.0090026995    6.2913726  0.029895499 
number of iterations: 1770 
    8900    34.436842      283          160          123 1.6045751e-13 1.1793716e-14          0.1 0.0090027304    6.4124682  0.029895447 
number of iterations: 1765 
    9000    34.623717      284          161          123 1.6258392e-13 1.1879372e-14          0.1  0.009002764    6.5351667  0.029895391 
number of iterations: 1775 
    9100    34.852692      287          163          124 1.6473852e-13 1.1966294e-14          0.1 0.0090028034    6.6594896  0.029895325 
number of iterations: 1747 
    9200    35.040603      290          165          125 1.6692166e-13 1.2054495e-14          0.1  0.009002834    6.7854584  0.029895274 
number of iterations: 1772 
    9300      35.2351      293          167          126 1.6913374e-13 1.2143987e-14          0.1 0.0090028725     6.913095   0.02989521 
number of iterations: 1758 
    9400    35.434744      297          169          128 1.7137513e-13 1.223478e-14          0.1 0.0090029068     7.042422  0.029895153 
number of iterations: 1813 
    9500    35.620711      301          172          129 1.7364623e-13 1.2326888e-14          0.1 0.0090029421    7.1734613  0.029895094 
number of iterations: 1762 
    9600     35.82859      301          172          129 1.7594742e-13 1.242032e-14          0.1 0.0090029858     7.306236  0.029895021 
number of iterations: 1835 
    9700    36.096539      302          173          129 1.7827911e-13 1.251509e-14          0.1 0.0090030299    7.4407692  0.029894948 
number of iterations: 1635 
    9800    36.289647      302          173          129 1.806417e-13 1.2611211e-14          0.1 0.0090030598    7.5770843  0.029894898 
number of iterations: 1758 
    9900    36.486054      306          175          131 1.8303559e-13 1.2708695e-14          0.1 0.0090030941    7.7152049  0.029894841 
number of iterations: 1743 
   10000    36.697894      311          179          132 1.8546122e-13 1.2807557e-14          0.1  0.009003134    7.8551554  0.029894774 
number of iterations: 1768 
   10100    36.940545      315          180          135 1.8791898e-13 1.290781e-14          0.1 0.0090031733    7.9969599  0.029894709 
number of iterations: 1797 
   10200    37.119327      318          182          136 1.9040932e-13 1.3009465e-14          0.1 0.0090032153    8.1406432  0.029894638 
number of iterations: 1818 
   10300    37.312626      320          182          138 1.9293266e-13 1.3112537e-14          0.1 0.0090032579      8.28623  0.029894567 
number of iterations: 1895 
   10400    37.528644      324          186          138 1.9548944e-13 1.321704e-14          0.1 0.0090033094    8.4337458  0.029894482 
number of iterations: 1730 
   10500    37.712701      331          189          142 1.980801e-13 1.3322988e-14          0.1 0.0090033358    8.5832163  0.029894437 
number of iterations: 1820 
   10600    37.920475      335          193          142 2.0070509e-13 1.3430394e-14          0.1 0.0090033808    8.7346672  0.029894363 
number of iterations: 1799 
   10700    38.102897      341          196          145 2.0336488e-13 1.3539276e-14          0.1 0.0090034265    8.8881252  0.029894286 
number of iterations: 1735 
   10800     38.32767      342          196          146 2.060599e-13 1.3649647e-14          0.1 0.0090034668    9.0436165  0.029894219 
number of iterations: 1841 
   10900    38.527596      349          200          149 2.0879065e-13 1.3761522e-14          0.1 0.0090035174    9.2011692  0.029894135 
number of iterations: 1810 
   11000    38.710137      352          203          149 2.1155758e-13 1.3874915e-14          0.1  0.009003564    9.3608103  0.029894057 
number of iterations: 1670 
   11100    38.925331      356          207          149 2.1436118e-13 1.3989843e-14          0.1 0.0090036034    9.5225673  0.029893991 
number of iterations: 1820 
   11200    39.123813      360          211          149 2.1720193e-13 1.410632e-14          0.1 0.0090036492    9.6864679  0.029893915 
number of iterations: 1864 
   11300    39.336658      364          213          151 2.2008033e-13 1.4224363e-14          0.1 0.0090036999    9.8525411   0.02989383 
number of iterations: 1701 
   11400    39.584779      370          218          152 2.2299688e-13 1.4343987e-14          0.1 0.0090037417    10.020816  0.029893761 
number of iterations: 1849 
   11500    39.789536      373          221          152 2.2595207e-13 1.4465209e-14          0.1 0.0090037941    10.191321  0.029893673 
number of iterations: 1834 
   11600    39.987808      375          223          152 2.2894643e-13 1.4588046e-14          0.1 0.0090038444    10.364087  0.029893589 
number of iterations: 1842 
   11700    40.207015      379          225          154 2.3198047e-13 1.4712513e-14          0.1 0.0090039015    10.539143  0.029893494 
number of iterations: 1846 
   11800     40.42179      386          231          155 2.3505472e-13 1.4838629e-14          0.1 0.0090039402    10.716521   0.02989343 
number of iterations: 1846 
   11900    40.615515      391          235          156 2.3816971e-13 1.496641e-14          0.1 0.0090039924     10.89625  0.029893343 
number of iterations: 1841 
   12000    40.800575      393          237          156 2.4132597e-13 1.5095874e-14          0.1 0.0090040453    11.078363  0.029893254 
number of iterations: 1873 
   12100    41.043289      398          240          158 2.4452407e-13 1.5227038e-14          0.1 0.0090040955    11.262891  0.029893171 
number of iterations: 1861 
   12200    41.252979      401          241          160 2.4776455e-13 1.535992e-14          0.1 0.0090041509    11.449866  0.029893078 
number of iterations: 1835 
   12300    41.448793      408          244          164 2.5104797e-13 1.5494538e-14          0.1 0.0090042083    11.639321  0.029892983 
number of iterations: 1844 
   12400    41.649868      413          248          165 2.543749e-13 1.5630911e-14          0.1 0.0090042565    11.831288  0.029892902 
number of iterations: 1915 
   12500    41.842739      425          258          167 2.5774592e-13 1.5769057e-14          0.1 0.0090043151    12.025801  0.029892805 
number of iterations: 1855 
   12600    42.030678      430          263          167 2.6116161e-13 1.5908995e-14          0.1 0.0090043817    12.222894  0.029892694 
number of iterations: 1914 
   12700    42.246441      435          266          169 2.6462257e-13 1.6050745e-14          0.1 0.0090044475    12.422601  0.029892584 
number of iterations: 1915 
   12800    42.452456      443          270          173 2.681294e-13 1.6194326e-14          0.1 0.0090045054    12.624957  0.029892487 
number of iterations: 1892 
   12900    42.666615      452          279          173 2.716827e-13 1.6339757e-14          0.1 0.0090045767    12.829998  0.029892369 
number of iterations: 1845 
   13000    42.889304      459          282          177 2.7528308e-13 1.648706e-14          0.1 0.0090046318    13.037757  0.029892277 
number of iterations: 1877 
   13100    43.168412      462          284          178 2.7893118e-13 1.6636254e-14          0.1 0.0090046932    13.248272  0.029892174 
number of iterations: 1900 
   13200    43.385678      466          286          180 2.8262763e-13 1.6787358e-14          0.1 0.0090047601     13.46158  0.029892063 
number of iterations: 1873 
   13300    43.580721      472          288          184 2.8637306e-13 1.6940395e-14          0.1 0.0090048193    13.677717  0.029891964 
number of iterations: 1927 
   13400    43.775981      478          290          188 2.9016812e-13 1.7095385e-14          0.1 0.0090048987    13.896721  0.029891832 
number of iterations: 1920 
   13500    43.986262      483          291          192 2.9401348e-13 1.7252349e-14          0.1 0.0090049652     14.11863  0.029891721 
number of iterations: 1917 
   13600    44.188967      492          298          194 2.979098e-13 1.7411308e-14          0.1 0.0090050338    14.343483  0.029891607 
number of iterations: 1896 
   13700    44.409992      499          304          195 3.0185775e-13 1.7572285e-14          0.1 0.0090050972    14.571319  0.029891501 
number of iterations: 1872 
   13800    44.621571      507          311          196 3.0585802e-13 1.7735301e-14          0.1 0.0090051543    14.802178  0.029891406 
number of iterations: 1914 
   13900     44.84559      512          314          198 3.099113e-13 1.7900379e-14          0.1 0.0090052281      15.0361  0.029891283 
number of iterations: 1920 
   14000    45.062773      516          316          200 3.140183e-13 1.8067541e-14          0.1 0.0090052948    15.273125  0.029891171 
number of iterations: 1964 
   14100    45.292056      521          319          202 3.1817972e-13 1.8236811e-14          0.1 0.0090053688    15.513296  0.029891048 
number of iterations: 1911 
   14200    45.495849      524          321          203 3.223963e-13 1.8408212e-14          0.1   0.00900544    15.756653  0.029890929 
number of iterations: 1944 
   14300    45.696105      529          324          205 3.2666874e-13 1.8581768e-14          0.1 0.0090055145    16.003239  0.029890805 
number of iterations: 1915 
   14400    45.913167      536          329          207 3.3099781e-13 1.8757502e-14          0.1 0.0090055891    16.253097  0.029890681 
number of iterations: 1895 
   14500    46.135619      539          331          208 3.3538425e-13 1.8935439e-14          0.1  0.009005655     16.50627  0.029890571 
number of iterations: 1925 
   14600    46.352856      542          334          208 3.3982882e-13 1.9115602e-14          0.1   0.00900573    16.762802  0.029890446 
number of iterations: 1925 
   14700     46.54172      542          334          208 3.4433229e-13 1.9298017e-14          0.1 0.0090058059    17.022739  0.029890319 
number of iterations: 1894 
   14800    46.755714      547          337          210 3.4889543e-13 1.9482709e-14          0.1 0.0090058776    17.286125    0.0298902 
number of iterations: 1971 
   14900     46.97568      551          340          211 3.5351905e-13 1.9669704e-14          0.1 0.0090059623    17.553006  0.029890058 
number of iterations: 1921 
   15000    47.186835      557          346          211 3.5820394e-13 1.9859026e-14          0.1 0.0090060449    17.823428  0.029889921 
number of iterations: 1947 
   15100     47.42431      566          353          213 3.6295092e-13 2.0050703e-14          0.1  0.009006124    18.097439  0.029889789 
number of iterations: 1917 
   15200    47.643646      572          359          213 3.677608e-13 2.0244761e-14          0.1 0.0090062012    18.375086   0.02988966 
number of iterations: 1950 
   15300    47.856699      577          361          216 3.7263443e-13 2.0441227e-14          0.1 0.0090062839    18.656417  0.029889522 
number of iterations: 1888 
   15400     48.05872      585          365          220 3.7757264e-13 2.0640126e-14          0.1 0.0090063579    18.941482  0.029889399 
number of iterations: 1910 
   15500    48.262457      589          368          221 3.8257629e-13 2.0841488e-14          0.1 0.0090064375     19.23033  0.029889266 
number of iterations: 1855 
   15600    48.442928      601          378          223 3.8764625e-13 2.1045339e-14          0.1  0.009006517    19.523011  0.029889134 
number of iterations: 1925 
   15700    48.668677      606          383          223 3.927834e-13 2.1251707e-14          0.1 0.0090065966    19.819577  0.029889001 
number of iterations: 1941 
   15800    48.868704      612          387          225 3.9798863e-13 2.1460621e-14          0.1 0.0090066747    20.120079  0.029888871 
number of iterations: 1972 
   15900    49.066704      617          392          225 4.0326284e-13 2.167211e-14          0.1 0.0090067816    20.424569  0.029888693 
number of iterations: 1944 
   16000    49.293263      621          396          225 4.0860694e-13 2.1886204e-14          0.1 0.0090068632    20.733099  0.029888557 
number of iterations: 1959 
   16100    49.508744      627          398          229 4.1402186e-13 2.210293e-14          0.1 0.0090069528    21.045724  0.029888407 
number of iterations: 1915 
   16200    49.735278      636          402          234 4.1950854e-13 2.232232e-14          0.1 0.0090070418    21.362498  0.029888259 
number of iterations: 1967 
   16300    49.949661      650          413          237 4.2506794e-13 2.2544403e-14          0.1 0.0090071393    21.683477  0.029888096 
number of iterations: 1964 
   16400    50.172596      661          421          240  4.30701e-13 2.276921e-14          0.1 0.0090072281    22.008717  0.029887948 
number of iterations: 1967 
   16500    50.375583      671          431          240 4.3640872e-13 2.2996773e-14          0.1 0.0090073297    22.338273  0.029887779 
number of iterations: 1939 
   16600    50.581797      680          437          243 4.4219207e-13 2.3227124e-14          0.1 0.0090074191    22.672203   0.02988763 
number of iterations: 1998 
   16700    50.824781      687          442          245 4.4805207e-13 2.3460292e-14          0.1 0.0090075295    23.010566  0.029887446 
number of iterations: 1923 
   16800    51.011561      693          445          248 4.5398972e-13 2.369631e-14          0.1 0.0090076191     23.35342  0.029887296 
number of iterations: 2013 
   16900    51.238586      702          453          249 4.6000606e-13 2.3935212e-14          0.1 0.0090077296    23.700825  0.029887112 
number of iterations: 1968 
   17000    51.469812      708          458          250 4.6610212e-13 2.4177028e-14          0.1  0.009007827    24.052841   0.02988695 
number of iterations: 1982 
   17100    51.680118      720          469          251 4.7227898e-13 2.4421794e-14          0.1 0.0090079476    24.409529  0.029886749 
number of iterations: 2035 
   17200    51.905935      732          476          256 4.7853769e-13 2.4669544e-14          0.1 0.0090080507     24.77095  0.029886577 
number of iterations: 1989 
   17300    52.107946      741          479          262 4.8487934e-13 2.4920311e-14          0.1  0.009008151    25.137168   0.02988641 
number of iterations: 2001 
   17400    52.322784      755          491          264 4.9130503e-13 2.517413e-14          0.1 0.0090082514    25.508247  0.029886242 
number of iterations: 1945 
   17500    52.523262      769          500          269 4.9781587e-13 2.5431037e-14          0.1 0.0090083676    25.884251  0.029886048 
number of iterations: 1986 
   17600    52.779188      782          508          274  5.04413e-13 2.5691065e-14          0.1 0.0090084777    26.265247  0.029885865 
number of iterations: 2034 
   17700    53.007551      792          514          278 5.1109755e-13 2.5954251e-14          0.1 0.0090085916    26.651298  0.029885675 
number of iterations: 2004 
   17800    53.229937      799          519          280 5.1787069e-13 2.6220631e-14          0.1 0.0090087065    27.042474  0.029885484 
number of iterations: 2000 
   17900    53.434112      805          523          282 5.2473358e-13 2.6490243e-14          0.1 0.0090088221    27.438842  0.029885291 
number of iterations: 2032 
   18000    53.654082      817          533          284 5.3168742e-13 2.6763122e-14          0.1 0.0090089325    27.840472  0.029885107 
number of iterations: 2052 
   18100    53.871555      823          537          286 5.3873342e-13 2.7039308e-14          0.1 0.0090090678    28.247433  0.029884881 
number of iterations: 2019 
   18200    54.080845      836          546          290 5.4587279e-13 2.7318837e-14          0.1 0.0090092056    28.659796  0.029884651 
number of iterations: 2015 
   18300    54.288434      842          551          291 5.5310677e-13 2.7601748e-14          0.1 0.0090093304    29.077633  0.029884444 
number of iterations: 2017 
   18400    54.535529      853          560          293 5.6043661e-13 2.788808e-14          0.1 0.0090094327    29.501015  0.029884273 
number of iterations: 2046 
   18500    54.752616      863          565          298 5.6786359e-13 2.8177872e-14          0.1 0.0090095639    29.930018  0.029884054 
number of iterations: 2018 
   18600    54.954689      876          575          301  5.75389e-13 2.8471166e-14          0.1 0.0090096955    30.364716  0.029883835 
number of iterations: 2006 
   18700    55.176656      889          583          306 5.8301413e-13 2.8767999e-14          0.1 0.0090098154    30.805184  0.029883635 
number of iterations: 2009 
   18800    55.390399      899          591          308 5.907403e-13 2.9068413e-14          0.1 0.0090099403    31.251499  0.029883427 
number of iterations: 2061 
   18900    55.641284      903          594          309 5.9856887e-13 2.937245e-14          0.1 0.0090100745    31.703739  0.029883203 
number of iterations: 2043 
   19000    55.887724      911          599          312 6.0650118e-13 2.9680153e-14          0.1 0.0090101997    32.161981  0.029882994 
number of iterations: 2044 
   19100    56.141106      923          606          317 6.1453861e-13 2.9991562e-14          0.1 0.0090103254    32.626306  0.029882785 
number of iterations: 2037 
   19200    56.373375      935          614          321 6.2268255e-13 3.0306722e-14          0.1 0.0090104673    33.096795  0.029882548 
number of iterations: 2039 
   19300    56.601575      951          621          330 6.3093442e-13 3.0625674e-14          0.1 0.0090106184    33.573529  0.029882296 
number of iterations: 2085 
   19400    56.840836      962          628          334 6.3929564e-13 3.0948462e-14          0.1 0.0090107726    34.056591  0.029882039 
number of iterations: 2074 
   19500    57.070777      971          634          337 6.4776767e-13 3.1275133e-14          0.1 0.0090109136    34.546066  0.029881804 
number of iterations: 2007 
   19600    57.277465      986          644          342 6.5635196e-13 3.1605731e-14          0.1 0.0090110386    35.042038  0.029881596 
number of iterations: 2018 
   19700    57.481645     1001          657          344 6.6505002e-13 3.1940301e-14          0.1 0.0090111562    35.544594    0.0298814 
number of iterations: 2028 
   19800     57.74144     1012          666          346 6.7386334e-13 3.227889e-14          0.1 0.0090113077    36.053821  0.029881147 
number of iterations: 2041 
   19900    57.989431     1027          674          353 6.8279346e-13 3.2621542e-14          0.1 0.0090114519    36.569808  0.029880907 
number of iterations: 2044 
   20000    58.257806     1034          679          355 6.9184192e-13 3.2968307e-14          0.1 0.0090115866    37.092643  0.029880682 
number of iterations: 2081 
   20100    58.469465     1044          686          358 7.0101028e-13 3.3319231e-14          0.1 0.0090117482    37.622419  0.029880413 
number of iterations: 2067 
   20200    58.691242     1056          694          362 7.1030015e-13 3.3674363e-14          0.1 0.0090119011    38.159227  0.029880158 
number of iterations: 2058 
   20300    58.895229     1068          702          366 7.1971313e-13 3.4033752e-14          0.1 0.0090120532    38.703159  0.029879904 
number of iterations: 2057 
   20400    59.113799     1085          715          370 7.2925085e-13 3.4397447e-14          0.1 0.0090122169    39.254312  0.029879631 
number of iterations: 2073 
   20500    59.323418     1094          722          372 7.3891497e-13 3.4765498e-14          0.1 0.0090123767    39.812782  0.029879365 
number of iterations: 2081 
   20600    59.554324     1109          730          379 7.4870715e-13 3.5137955e-14          0.1 0.0090125296    40.378666   0.02987911 
number of iterations: 2113 
   20700    59.785844     1123          741          382 7.586291e-13 3.5514872e-14          0.1   0.00901271     40.95206   0.02987881 
number of iterations: 2065 
   20800    60.029579     1136          751          385 7.6868253e-13 3.5896298e-14          0.1 0.0090128696    41.533066  0.029878543 
number of iterations: 2048 
   20900    60.261185     1145          759          386 7.788692e-13 3.6282288e-14          0.1 0.0090130623    42.121786  0.029878222 
number of iterations: 2045 
   21000    60.472044     1157          770          387 7.8919085e-13 3.6672892e-14          0.1 0.0090132174    42.718322  0.029877964 
number of iterations: 2136 
   21100    60.698319     1175          780          395 7.9964929e-13 3.7068167e-14          0.1 0.0090133927    43.322775  0.029877671 
number of iterations: 2102 
   21200    60.940256     1197          796          401 8.1024633e-13 3.7468165e-14          0.1 0.0090135829    43.935252  0.029877354 
number of iterations: 2097 
   21300    61.157767     1212          805          407 8.2098379e-13 3.7872942e-14          0.1 0.0090137533    44.555859   0.02987707 
number of iterations: 2057 
   21400    61.381846     1232          817          415 8.3186356e-13 3.8282554e-14          0.1 0.0090139075    45.184704  0.029876813 
number of iterations: 2105 
   21500    61.603522     1246          827          419 8.4288749e-13 3.8697056e-14          0.1 0.0090140914    45.821897  0.029876507 
number of iterations: 2085 
   21600     61.83363     1261          840          421 8.5405752e-13 3.9116505e-14          0.1 0.0090142695    46.467549   0.02987621 
number of iterations: 2080 
   21700    62.047003     1272          850          422 8.6537558e-13 3.9540959e-14          0.1 0.0090144496    47.121771  0.029875909 
number of iterations: 2134 
   21800    62.271411     1289          864          425 8.7684361e-13 3.9970478e-14          0.1 0.0090146424    47.784678  0.029875588 
number of iterations: 2112 
   21900    62.491521     1300          874          426 8.8846363e-13 4.0405119e-14          0.1  0.009014842    48.456383  0.029875255 
number of iterations: 2146 
   22000    62.762773     1313          884          429 9.0023763e-13 4.0844942e-14          0.1 0.0090150239    49.137004  0.029874952 
number of iterations: 2115 
   22100    62.983001     1325          894          431 9.1216766e-13 4.1290009e-14          0.1 0.0090152155    49.826661  0.029874633 
number of iterations: 2121 
   22200    63.201814     1346          911          435 9.2425579e-13 4.1740379e-14          0.1 0.0090154027    50.525473   0.02987432 
number of iterations: 2095 
   22300    63.437304     1365          925          440 9.3650411e-13 4.2196115e-14          0.1 0.0090156018     51.23356  0.029873988 
number of iterations: 2147 
   22400    63.652312     1391          944          447 9.4891474e-13 4.2657279e-14          0.1 0.0090158273     51.95105  0.029873613 
number of iterations: 2139 
   22500    63.872078     1412          953          459 9.6148984e-13 4.3123934e-14          0.1 0.0090160267    52.678064   0.02987328 
number of iterations: 2117 
   22600    64.110257     1427          963          464 9.7423158e-13 4.3596145e-14          0.1 0.0090162188     53.41473   0.02987296 
number of iterations: 2098 
   22700    64.348419     1441          974          467 9.8714218e-13 4.4073977e-14          0.1 0.0090164102    54.161174  0.029872641 
number of iterations: 2153 
   22800    64.585753     1464          993          471 1.0002239e-12 4.4557495e-14          0.1 0.0090166321    54.917526  0.029872271 
number of iterations: 2063 
   22900     64.79924     1481         1005          476 1.0134789e-12 4.5046766e-14          0.1  0.009016835    55.683916  0.029871933 
number of iterations: 2141 
   23000    65.047813     1498         1018          480 1.0269096e-12 4.5541857e-14          0.1 0.0090170277     56.46048  0.029871611 
number of iterations: 2175 
   23100    65.290214     1523         1036          487 1.0405183e-12 4.6042836e-14          0.1 0.0090172651    57.247352  0.029871216 
number of iterations: 2170 
   23200    65.512814     1545         1052          493 1.0543073e-12 4.6549771e-14          0.1 0.0090175235    58.044668  0.029870785 
number of iterations: 2182 
   23300    65.742827     1565         1068          497 1.0682791e-12 4.7062733e-14          0.1 0.0090177675     58.85257  0.029870378 
number of iterations: 2165 
   23400    66.018482     1584         1082          502 1.082436e-12 4.7581792e-14          0.1 0.0090179911    59.671196  0.029870006 
number of iterations: 2130 
   23500    66.293153     1598         1094          504 1.0967805e-12 4.8107019e-14          0.1 0.0090182362    60.500688  0.029869597 
number of iterations: 2155 
   23600      66.5122     1619         1111          508 1.1113151e-12 4.8638486e-14          0.1 0.0090184484     61.34119  0.029869243 
number of iterations: 2165 
   23700    66.732222     1635         1122          513 1.1260424e-12 4.9176265e-14          0.1 0.0090186773    62.192851  0.029868862 
number of iterations: 2172 
   23800    66.961732     1656         1134          522 1.1409647e-12 4.9720431e-14          0.1 0.0090189086    63.055818  0.029868476 
number of iterations: 2183 
   23900    67.199104     1670         1141          529 1.1560849e-12 5.027106e-14          0.1 0.0090191689    63.930241  0.029868042 
number of iterations: 2154 
   24000    67.451746     1703         1165          538 1.1714054e-12 5.0828228e-14          0.1 0.0090194177    64.816271  0.029867627 
number of iterations: 2151 
   24100    67.680357     1721         1178          543 1.1869289e-12 5.1392009e-14          0.1 0.0090196642    65.714062  0.029867216 
number of iterations: 2172 
   24200     67.89903     1750         1193          557 1.2026582e-12 5.1962481e-14          0.1 0.0090199173    66.623771  0.029866795 
number of iterations: 2183 
   24300    68.143106     1777         1214          563 1.2185959e-12 5.2539723e-14          0.1 0.0090202181    67.545557  0.029866293 
number of iterations: 2159 
   24400    68.461655     1797         1226          571 1.2347448e-12 5.3123814e-14          0.1 0.0090204767    68.479578  0.029865862 
number of iterations: 2200 
   24500    68.691518     1817         1243          574 1.2511077e-12 5.3714834e-14          0.1 0.0090207574    69.425998  0.029865394 
number of iterations: 2174 
   24600    68.924293     1843         1259          584 1.2676874e-12 5.4312865e-14          0.1 0.0090210303    70.384982  0.029864939 
number of iterations: 2215 
   24700     69.14961     1855         1266          589 1.2844869e-12 5.4917988e-14          0.1 0.0090213129    71.356696  0.029864468 
number of iterations: 2190 
   24800    69.388319     1876         1279          597 1.3015089e-12 5.5530286e-14          0.1 0.0090216009     72.34131  0.029863988 
number of iterations: 2212 
   24900    69.619677     1903         1296          607 1.3187566e-12 5.6149844e-14          0.1 0.0090219052    73.338992  0.029863481 
number of iterations: 2196 
   25000    69.851753     1930         1313          617 1.3362328e-12 5.6776746e-14          0.1 0.0090221911    74.349917  0.029863004 
number of iterations: 2191 
   25100    70.089303     1942         1323          619 1.3539406e-12 5.7411078e-14          0.1 0.0090224645    75.374261  0.029862549 
number of iterations: 2150 
   25200    70.342948     1969         1341          628 1.3718831e-12 5.8052928e-14          0.1 0.0090227489    76.412203  0.029862075 
number of iterations: 2227 
   25300    70.632515     1990         1357          633 1.3900633e-12 5.8702384e-14          0.1 0.0090230434    77.463924  0.029861584 
number of iterations: 2238 
   25400    70.878441     2011         1371          640 1.4084845e-12 5.9359535e-14          0.1 0.0090233559    78.529605  0.029861063 
number of iterations: 2190 
   25500    71.128472     2041         1392          649 1.4271498e-12 6.0024471e-14          0.1 0.0090236671    79.609433  0.029860544 
number of iterations: 2232 
   25600    71.377708     2066         1415          651 1.4460624e-12 6.0697284e-14          0.1 0.0090239758    80.703594  0.029860029 
number of iterations: 2233 
   25700     71.60559     2091         1433          658 1.4652257e-12 6.1378064e-14          0.1 0.0090243098     81.81228  0.029859473 
number of iterations: 2215 
   25800    71.835874     2114         1450          664 1.4846429e-12 6.2066906e-14          0.1 0.0090246126    82.935681  0.029858968 
number of iterations: 2262 
   25900    72.076494     2142         1472          670 1.5043174e-12 6.2763905e-14          0.1 0.0090249906    84.073995  0.029858338 
number of iterations: 2152 
   26000    72.330817     2164         1489          675 1.5242527e-12 6.3469155e-14          0.1 0.0090253121    85.227419  0.029857802 
number of iterations: 2247 
   26100    72.589035     2195         1512          683 1.5444521e-12 6.4182755e-14          0.1 0.0090256625    86.396152  0.029857218 
number of iterations: 2228 
   26200    72.922113     2223         1529          694 1.5649192e-12  6.49048e-14          0.1 0.0090260002    87.580397  0.029856655 
number of iterations: 2187 
   26300    73.186944     2258         1557          701 1.5856575e-12 6.5635391e-14          0.1 0.0090263074    88.780363  0.029856143 
number of iterations: 2235 
   26400     73.42709     2288         1581          707 1.6066707e-12 6.6374628e-14          0.1 0.0090266675    89.996256  0.029855543 
number of iterations: 2177 
   26500    73.669117     2314         1599          715 1.6279623e-12 6.712261e-14          0.1 0.0090269791    91.228289  0.029855023 
number of iterations: 2220 
   26600    73.903815     2342         1621          721 1.6495361e-12 6.7879441e-14          0.1 0.0090273077    92.476677  0.029854476 
number of iterations: 2246 
   26700    74.167686     2367         1639          728 1.6713957e-12 6.8645226e-14          0.1 0.0090276897    93.741633  0.029853839 
number of iterations: 2232 
   26800    74.408334     2390         1652          738 1.6935451e-12 6.942007e-14          0.1 0.0090280406    95.023383  0.029853254 
number of iterations: 2252 
   26900    74.658049     2421         1673          748 1.7159879e-12 7.0204079e-14          0.1 0.0090284051    96.322146  0.029852646 
number of iterations: 2260 
   27000    74.940658     2447         1692          755 1.7387282e-12 7.0997362e-14          0.1  0.009028781    97.638148   0.02985202 
number of iterations: 2256 
   27100    75.231648     2485         1720          765 1.7617698e-12 7.1800025e-14          0.1  0.009029144    98.971618  0.029851415 
number of iterations: 2272 
   27200    75.490844     2526         1754          772 1.7851168e-12 7.261218e-14          0.1 0.0090295421    100.32279  0.029850751 
number of iterations: 2236 
   27300    75.720947     2568         1787          781 1.8077627e-12 7.3433936e-14          0.1 0.0090298943    101.69113  0.029850164 
number of iterations: 2234 
   27400    76.001111     2608         1819          789 1.8304306e-12 7.4265407e-14          0.1  0.009030288    103.07664  0.029849508 
number of iterations: 2337 
   27500    76.254802     2634         1840          794 1.8546874e-12 7.5106707e-14          0.1 0.0090307395    104.48054  0.029848755 
number of iterations: 2248 
   27600    76.498864     2666         1864          802 1.877989e-12 7.5957951e-14          0.1 0.0090311492    105.90211  0.029848072 
number of iterations: 2292 
   27700    76.749421     2696         1886          810 1.902876e-12 7.6819255e-14          0.1 0.0090315652    107.34254  0.029847379 
number of iterations: 2272 
   27800    77.029755     2743         1916          827 1.9280929e-12 7.7690738e-14          0.1 0.0090319748    108.80209  0.029846696 
number of iterations: 2264 
   27900    77.284922     2779         1942          837 1.9536439e-12 7.857252e-14          0.1  0.009032405    110.28102  0.029845979 
number of iterations: 2251 
   28000    77.520427     2813         1965          848 1.9795336e-12 7.9464721e-14          0.1 0.0090327944    111.77958   0.02984533 
number of iterations: 2281 
   28100    77.787973     2852         1995          857 2.0057663e-12 8.0367463e-14          0.1 0.0090332236    113.29803  0.029844615 
number of iterations: 2280 
   28200    78.029874     2881         2015          866 2.0323467e-12 8.1280871e-14          0.1 0.0090336596    114.83664  0.029843888 
number of iterations: 2268 
   28300    78.277831     2910         2036          874 2.0592793e-12 8.2205068e-14          0.1 0.0090340894    116.39566  0.029843171 
number of iterations: 2285 
   28400    78.529578     2952         2063          889 2.0865687e-12 8.3140181e-14          0.1 0.0090345106    117.97538  0.029842469 
number of iterations: 2267 
   28500    78.772555     2988         2088          900 2.1142199e-12 8.408634e-14          0.1 0.0090349472    119.57607  0.029841742 
number of iterations: 2290 
   28600    79.061657     3027         2118          909 2.1422374e-12 8.5043673e-14          0.1 0.0090353786    121.19801  0.029841022 
number of iterations: 2283 
   28700    79.314277     3065         2145          920 2.1692392e-12 8.6012311e-14          0.1 0.0090358281    122.84041  0.029840273 
number of iterations: 2213 
   28800    79.562256     3097         2173          924 2.1960295e-12 8.6992388e-14          0.1 0.0090362719    124.50312  0.029839534 
number of iterations: 2289 
   28900    79.826131     3134         2199          935 2.2251312e-12 8.798404e-14          0.1 0.0090367548    126.18789  0.029838729 
number of iterations: 2267 
   29000    80.097626     3172         2229          943 2.253564e-12  8.89874e-14          0.1  0.009037227    127.89423  0.029837942 
number of iterations: 2292 
   29100    80.359728     3204         2256          948 2.2834281e-12 9.0002607e-14          0.1 0.0090377079    129.62322   0.02983714 
number of iterations: 2325 
   29200    80.601001     3252         2289          963 2.313688e-12 9.1029799e-14          0.1 0.0090382003    131.37515  0.029836319 
number of iterations: 2295 
   29300    80.857511     3297         2315          982 2.3443489e-12 9.2069115e-14          0.1 0.0090386923    133.15034  0.029835499 
number of iterations: 2295 
   29400    81.153309     3339         2346          993 2.375416e-12 9.3120701e-14          0.1 0.0090391627    134.94909  0.029834715 
number of iterations: 2320 
   29500    81.402656     3387         2384         1003 2.4068949e-12  9.41847e-14          0.1 0.0090396926    136.77171  0.029833832 
number of iterations: 2290 
   29600    81.665025     3426         2413         1013 2.4387909e-12 9.5261259e-14          0.1 0.0090401963    138.61852  0.029832992 
number of iterations: 2338 
   29700    81.923656     3464         2439         1025 2.4711096e-12 9.6350526e-14          0.1 0.0090407038    140.48985  0.029832146 
number of iterations: 2328 
   29800    82.160653     3495         2457         1038 2.5038565e-12 9.7452648e-14          0.1 0.0090412948    142.38602  0.029831161 
number of iterations: 2313 
   29900     82.40481     3532         2488         1044 2.5370375e-12 9.8567778e-14          0.1 0.0090418057    144.30736  0.029830309 
number of iterations: 2342 
   30000    82.672478     3577         2519         1058 2.5706581e-12 9.9696067e-14          0.1 0.0090423861    146.25419  0.029829342 
number of iterations: 2266 
   30100    82.939498     3614         2545         1069 2.6012298e-12 1.0083767e-13          0.1 0.0090428372     148.2242   0.02982859 
number of iterations: 2335 
   30200    83.227356     3653         2574         1079 2.6357011e-12 1.0199274e-13          0.1 0.0090433844    150.22036  0.029827678 
number of iterations: 2321 
   30300    83.483699     3710         2615         1095 2.6686582e-12 1.0316144e-13          0.1 0.0090439146     152.2415  0.029826794 
number of iterations: 2359 
   30400    83.750695     3754         2647         1107 2.704023e-12 1.0434393e-13          0.1 0.0090445118    154.28948  0.029825799 
number of iterations: 2344 
   30500    84.024166     3804         2692         1112 2.7398564e-12 1.0554037e-13          0.1 0.0090450764    156.36464  0.029824857 
number of iterations: 2325 
   30600    84.286033     3862         2728         1134 2.7749924e-12 1.0664777e-13          0.1 0.0090456775    158.46647  0.029823856 
number of iterations: 2336 
   30700    84.546656     3903         2760         1143 2.8117663e-12 1.0787142e-13          0.1 0.0090462792    160.59619  0.029822853 
number of iterations: 2310 
   30800    84.807737     3949         2795         1154 2.8476714e-12 1.0910951e-13          0.1 0.0090468516    162.75315  0.029821899 
number of iterations: 2361 
   30900    85.106599     4006         2839         1167 2.8854084e-12 1.103622e-13          0.1 0.0090474446    164.93874   0.02982091 
number of iterations: 2361 
   31000    85.404309     4054         2872         1182 2.9236455e-12 1.1162966e-13          0.1 0.0090480538    167.15334  0.029819895 
number of iterations: 2352 
   31100    85.648375     4112         2916         1196 2.9613131e-12 1.1291208e-13          0.1 0.0090486835    169.39651  0.029818845 
number of iterations: 2363 
   31200    85.932929     4160         2950         1210 3.0005561e-12 1.1420962e-13          0.1 0.0090492791    171.66944  0.029817852 
number of iterations: 2347 
   31300    86.198848     4228         2998         1230 3.0403191e-12 1.1552246e-13          0.1 0.0090499249    173.97255  0.029816776 
number of iterations: 2382 
   31400    86.483578     4289         3040         1249 3.080609e-12 1.1685079e-13          0.1 0.0090506102    176.30622  0.029815634 
number of iterations: 2351 
   31500    86.749961     4345         3075         1270 3.1200464e-12 1.1819479e-13          0.1 0.0090512116    178.66981  0.029814631 
number of iterations: 2383 
   31600     87.00901     4389         3106         1283 3.1613929e-12 1.1955463e-13          0.1 0.0090518984    181.06476  0.029813486 
number of iterations: 2354 
   31700    87.300882     4441         3142         1299 3.2032872e-12 1.2093051e-13          0.1 0.0090525788    183.49152  0.029812352 
number of iterations: 2378 
   31800     87.57695     4487         3174         1313 3.2457367e-12 1.2232261e-13          0.1 0.0090532734    185.95048  0.029811195 
number of iterations: 2305 
   31900    87.845003     4547         3221         1326 3.2862288e-12 1.2373113e-13          0.1 0.0090538653    188.44015  0.029810208 
number of iterations: 2395 
   32000    88.134989     4601         3262         1339 3.3279238e-12 1.2515626e-13          0.1 0.0090545373    190.96145  0.029809088 
number of iterations: 2347 
   32100    88.404731     4654         3306         1348 3.3710108e-12 1.2659819e-13          0.1 0.0090552463    193.51543  0.029807906 
number of iterations: 2371 
   32200    88.692146     4705         3347         1358 3.415683e-12 1.2805712e-13          0.1 0.0090559464    196.10333  0.029806739 
number of iterations: 2381 
   32300    88.971394     4781         3404         1377 3.4609471e-12 1.2953325e-13          0.1 0.0090566551    198.72558  0.029805558 
number of iterations: 2374 
   32400    89.272843     4851         3459         1392 3.5055137e-12 1.3102679e-13          0.1 0.0090573116    201.38163  0.029804463 
number of iterations: 2415 
   32500    89.547287     4910         3508         1402 3.5519682e-12 1.3244264e-13          0.1 0.0090580745    204.07297  0.029803192 
number of iterations: 2394 
   32600    89.820787     4994         3569         1425 3.5990383e-12 1.339705e-13          0.1 0.0090588907    206.80003  0.029801831 
number of iterations: 2393 
   32700    90.095111     5049         3610         1439 3.6467322e-12 1.3551637e-13          0.1 0.0090596379    209.56329  0.029800586 
number of iterations: 2365 
   32800    90.398569     5115         3652         1463 3.6939827e-12 1.3708047e-13          0.1 0.0090603542    212.36239  0.029799392 
number of iterations: 2410 
   32900    90.696853     5195         3712         1483 3.7429347e-12  1.38663e-13          0.1 0.0090611929    215.19864  0.029797994 
number of iterations: 2404 
   33000    90.973247     5258         3750         1508 3.791303e-12 1.4026419e-13          0.1 0.0090619971    218.07159  0.029796654 
number of iterations: 2432 
   33100    91.269976     5318         3799         1519 3.8415447e-12 1.4188425e-13          0.1 0.0090628024     220.9827  0.029795312 
number of iterations: 2408 
   33200    91.560033     5391         3852         1539 3.8915637e-12 1.435234e-13          0.1 0.0090635837    223.93176  0.029794009 
number of iterations: 2431 
   33300    91.850031     5457         3902         1555 3.9420825e-12 1.4518188e-13          0.1 0.0090644116    226.91918  0.029792629 
number of iterations: 2417 
   33400    92.136583     5512         3946         1566 3.9943222e-12 1.4685991e-13          0.1 0.0090652907    229.94623  0.029791164 
number of iterations: 2454 
   33500    92.414527     5581         4001         1580 4.0472541e-12 1.4855773e-13          0.1 0.0090662159    233.01347  0.029789622 
number of iterations: 2409 
   33600     92.69757     5643         4054         1589 4.0984815e-12 1.5027555e-13          0.1 0.0090669957    236.11957  0.029788322 
number of iterations: 2386 
   33700    93.000204     5703         4096         1607 4.1514687e-12 1.5201362e-13          0.1 0.0090677677    239.26589  0.029787035 
number of iterations: 2427 
   33800    93.271458     5774         4147         1627 4.206483e-12 1.5377218e-13          0.1 0.0090686609    242.45397  0.029785547 
number of iterations: 2385 
   33900    93.548351     5858         4213         1645 4.2599336e-12 1.5555146e-13          0.1 0.0090694706    245.68259  0.029784197 
number of iterations: 2436 
   34000    93.836574     5928         4260         1668 4.3152957e-12 1.5735172e-13          0.1 0.0090703756    248.95323  0.029782688 
number of iterations: 2394 
   34100    94.127259     5997         4313         1684 4.3690491e-12 1.5907237e-13          0.1  0.009071179    252.26467  0.029781349 
number of iterations: 2451 
   34200    94.435016     6066         4360         1706 4.4269467e-12 1.6091414e-13          0.1 0.0090721088    255.62007  0.029779799 
number of iterations: 2406 
   34300    94.738434     6137         4412         1725 4.482341e-12 1.6277761e-13          0.1 0.0090729839     259.0175  0.029778341 
number of iterations: 2416 
   34400    95.039314     6209         4470         1739 4.5402615e-12 1.6466305e-13          0.1 0.0090739027     262.4589  0.029776809 
number of iterations: 2450 
   34500    95.344669     6291         4538         1753 4.6004279e-12 1.6657071e-13          0.1 0.0090749215    265.94597  0.029775111 
number of iterations: 2440 
   34600    95.638498     6361         4587         1774 4.6599739e-12 1.6850085e-13          0.1 0.0090758542    269.47824  0.029773557 
number of iterations: 2453 
   34700    95.974995     6442         4648         1794 4.7199628e-12 1.7045374e-13          0.1  0.009076797    273.05603  0.029771985 
number of iterations: 2453 
   34800    96.309709     6536         4718         1818 4.7825105e-12 1.7242964e-13          0.1 0.0090778065    276.68132  0.029770303 
number of iterations: 2429 
   34900    96.594614     6647         4795         1852 4.844736e-12 1.7442882e-13          0.1 0.0090787692    280.35385  0.029768698 
number of iterations: 2447 
   35000    96.930982     6721         4846         1875 4.9061817e-12 1.7645157e-13          0.1 0.0090798368    284.07302  0.029766919 
Loop time of 96.931 on 32 procs for 35000 steps with 6721 atoms

Performance: 311974400.954 tau/day, 361.081 timesteps/s
92.0% CPU use with 32 MPI tasks x no OpenMP threads

MPI task timing breakdown:
Section |  min time  |  avg time  |  max time  |%varavg| %total
---------------------------------------------------------------
Pair    | 0.0078796  | 0.098215   | 0.2899     |  20.5 |  0.10
Neigh   | 0.0042829  | 0.031376   | 0.077658   |   9.9 |  0.03
Comm    | 0.077912   | 0.1813     | 0.29024    |  13.6 |  0.19
Output  | 23.664     | 23.665     | 23.673     |   0.0 | 24.41
Modify  | 72.362     | 72.427     | 72.504     |   0.4 | 74.72
Other   |            | 0.5286     |            |       |  0.55

Nlocal:    210.031 ave 473 max 21 min
Histogram: 3 3 5 4 7 3 3 2 1 1
Nghost:    114.625 ave 241 max 16 min
Histogram: 1 6 3 4 5 4 4 3 1 1
Neighs:    835 ave 2056 max 77 min
Histogram: 3 4 6 6 5 3 1 2 1 1

Total # of neighbors = 26720
Ave neighs/atom = 3.9756
Neighbor list builds = 732
Dangerous builds = 0
Total wall time: 0:01:37
