LAMMPS (20 Nov 2019)
Reading data file ...
  orthogonal box = (0 0 0) to (0.0001 0.0001 0.0001)
  2 by 4 by 4 MPI processor grid
  reading atoms ...
  100 atoms
  4 nutrients
Lattice spacing in x,y,z = 100 100 100
100 atoms in group CYANO
0 atoms in group ECW
Model is defined as a closed system. 
Neighbor list info ...
  update every 1 steps, delay 0 steps, check yes
  max neighbors/atom: 5000, page size: 100000
  master list distance cutoff = 2.44e-06
  ghost atom cutoff = 2.44e-06
  binsize = 1.22e-06, bins = 82 82 82
  1 neighbor lists, perpetual/occasional/extra = 1 0 0
  (1) pair gran/hooke/history, perpetual
      attributes: half, newton off, size, history
      pair build: half/size/bin/newtoff
      stencil: half/bin/3d/newtoff
      bin: standard
Setting up Verlet run ...
  Unit style    : lj
  Current step  : 0
  Time step     : 10
Per MPI rank memory allocation (min/avg/max) = 5.856 | 9.28 | 10.91 Mbytes
Step CPU Atoms c_myNtypes[1] c_myNtypes[2] c_myMass[1] c_myMass[2] c_myCon[1] c_myCon[2] c_myCon[3] c_myCon[4] 
       0            0      100          100            0 9.0947075e-14            0          0.1        0.009     3.42e-20       0.0299 
number of iterations: 122388 
     100    1.3690452      100          100            0 9.2530099e-14            0          0.1  0.009001263 1.7070899e-05  0.029897897 
number of iterations: 106253 
     200    2.5271127      100          100            0 9.4140676e-14            0          0.1  0.009001285 4.5415774e-05   0.02989786 
number of iterations: 95060 
     300     3.571927      101          101            0 9.5779288e-14            0          0.1 0.0090013074 8.8762875e-05  0.029897823 
number of iterations: 84877 
     400    4.5106097      101          101            0 9.7446421e-14            0          0.1 0.0090013301 0.00015497592  0.029897785 
number of iterations: 75247 
     500    5.3580484      106          106            0 9.9142572e-14            0          0.1 0.0090013533 0.00025615845  0.029897747 
number of iterations: 65909 
     600    6.1379674      108          108            0 1.0086825e-13            0          0.1 0.0090013768 0.00041116032  0.029897707 
number of iterations: 56686 
     700    6.7964262      111          111            0 1.0262396e-13            0          0.1 0.0090014008 0.00064986216  0.029897668 
number of iterations: 47409 
     800    7.3619981      113          113            0 1.0441023e-13            0          0.1 0.0090014252 0.0010213449  0.029897627 
number of iterations: 37841 
     900    7.8312253      115          115            0 1.0622759e-13            0          0.1 0.0090014566 0.0016133924  0.029897575 
number of iterations: 27349 
    1000     8.224379      116          116            0 1.0807659e-13            0          0.1  0.009001482 0.0026105113  0.029897532 
number of iterations: 18683 
    1100    8.5006747      119          119            0 1.0995777e-13            0          0.1 0.0090015078 0.0041843173   0.02989749 
number of iterations: 17084 
    1200    8.7561807      120          120            0 1.1187169e-13            0          0.1  0.009001534 0.0061471078  0.029897446 
number of iterations: 17140 
    1300     9.005581      120          120            0 1.1381893e-13            0          0.1 0.0090015607 0.0084941407  0.029897401 
number of iterations: 17196 
    1400    9.2501007      126          126            0 1.1580006e-13            0          0.1 0.0090015879  0.011218393  0.029897356 
number of iterations: 17252 
    1500    9.4915338      127          127            0 1.1781567e-13            0          0.1 0.0090016155    0.0143111   0.02989731 
number of iterations: 17307 
    1600    9.7312684      128          128            0 1.1986637e-13            0          0.1 0.0090016436  0.017764024  0.029897263 
number of iterations: 17363 
    1700    9.9688673      130          130            0 1.2195276e-13            0          0.1 0.0090016722  0.021571142  0.029897216 
number of iterations: 17419 
    1800    10.205467      130          130            0 1.2407547e-13            0          0.1 0.0090017013  0.025729577  0.029897167 
number of iterations: 17475 
    1900    10.441521      132          132            0 1.2623512e-13            0          0.1  0.009001731  0.030239529  0.029897118 
number of iterations: 17531 
    2000     10.67719      133          133            0 1.2843237e-13            0          0.1 0.0090017611  0.035095296  0.029897068 
number of iterations: 17587 
    2100    10.911484      133          133            0 1.3066786e-13            0          0.1 0.0090017917  0.040239538  0.029897017 
number of iterations: 17677 
    2200    11.145709      134          134            0 1.3294226e-13            0          0.1 0.0090018236  0.045692382  0.029896964 
number of iterations: 17699 
    2300    11.376557      138          138            0 1.3525626e-13            0          0.1 0.0090018554  0.051435582  0.029896911 
number of iterations: 17755 
    2400    11.609963      140          140            0 1.3761052e-13            0          0.1 0.0090018877  0.057471258  0.029896857 
number of iterations: 17810 
    2500     11.84687      142          142            0 1.4000577e-13            0          0.1 0.0090019205  0.063802851  0.029896802 
number of iterations: 17866 
    2600     12.07944      143          143            0 1.4244271e-13            0          0.1 0.0090019539  0.070434504  0.029896747 
number of iterations: 17922 
    2700    12.310745      144          144            0 1.4492206e-13            0          0.1 0.0090019879   0.07732922   0.02989669 
number of iterations: 17978 
    2800    12.544023      146          146            0 1.4744457e-13            0          0.1 0.0090020226  0.084469874  0.029896632 
number of iterations: 18034 
    2900    12.778471      146          146            0 1.5001099e-13            0          0.1 0.0090020578  0.091857498  0.029896574 
number of iterations: 18090 
    3000     13.01225      150          150            0 1.5262208e-13            0          0.1 0.0090020936  0.099495091  0.029896514 
number of iterations: 18145 
    3100    13.246644      152          152            0 1.5527862e-13            0          0.1   0.00900213   0.10738399  0.029896453 
number of iterations: 18201 
    3200    13.482439      152          152            0 1.5798139e-13            0          0.1 0.0090021671   0.11552797  0.029896392 
number of iterations: 18257 
    3300     13.71876      152          152            0 1.6073121e-13            0          0.1 0.0090022048   0.12393038  0.029896329 
number of iterations: 18313 
    3400    13.957075      153          153            0 1.635289e-13            0          0.1 0.0090022432   0.13259288  0.029896265 
number of iterations: 18369 
    3500    14.193271      154          154            0 1.6637528e-13            0          0.1 0.0090022822   0.14152024    0.0298962 
number of iterations: 18425 
    3600    14.432689      154          154            0 1.692712e-13            0          0.1  0.009002322   0.15070272  0.029896134 
number of iterations: 18320 
    3700    14.668331      156          156            0 1.7221753e-13            0          0.1 0.0090023617   0.16013402  0.029896068 
number of iterations: 18534 
    3800    14.906243      158          158            0 1.7521515e-13            0          0.1 0.0090024028   0.16981622  0.029895999 
number of iterations: 18589 
    3900    15.144551      165          165            0 1.7826494e-13            0          0.1 0.0090024446   0.17975398   0.02989593 
number of iterations: 18645 
    4000    15.386818      170          170            0 1.8136782e-13            0          0.1 0.0090024872   0.18994889  0.029895859 
number of iterations: 18701 
    4100    15.653131      173          173            0 1.845247e-13            0          0.1 0.0090025305   0.20040525  0.029895787 
number of iterations: 20290 
    4200    15.913054      180          180            0 1.8773653e-13            0          0.1 0.0090025862   0.21124569  0.029895694 
number of iterations: 18846 
    4300    16.160629      186          186            0 1.9100427e-13            0          0.1 0.0090026311   0.22236272  0.029895619 
number of iterations: 18902 
    4400    16.405052      189          189            0 1.9432889e-13            0          0.1 0.0090026769   0.23376067  0.029895543 
number of iterations: 18958 
    4500    16.649464      194          194            0 1.9771137e-13            0          0.1 0.0090027235   0.24544378  0.029895465 
number of iterations: 19014 
    4600    16.889647      199          199            0 2.0115273e-13            0          0.1 0.0090027709   0.25741616  0.029895386 
number of iterations: 19070 
    4700    17.133645      204          204            0 2.0465399e-13            0          0.1 0.0090028192   0.26968181  0.029895306 
number of iterations: 19126 
    4800    17.378144      208          208            0 2.0821619e-13            0          0.1 0.0090028682   0.28219389  0.029895224 
number of iterations: 19181 
    4900    17.621979      210          210            0 2.118404e-13            0          0.1 0.0090029182   0.29492375  0.029895141 
number of iterations: 19144 
    5000    17.868246      212          212            0 2.1552769e-13            0          0.1 0.0090029691    0.3078752  0.029895056 
number of iterations: 19292 
    5100    18.143383      213          213            0 2.1927916e-13            0          0.1 0.0090030208   0.32105207   0.02989497 
number of iterations: 19347 
    5200    18.421267      220          220            0 2.2309592e-13            0          0.1 0.0090030734   0.33445831  0.029894883 
number of iterations: 19403 
    5300    18.670196      226          226            0 2.2697912e-13            0          0.1 0.0090031269   0.34809789  0.029894794 
number of iterations: 19459 
    5400    18.918966      232          232            0 2.3092992e-13            0          0.1 0.0090031813   0.36197488  0.029894703 
number of iterations: 19515 
    5500    19.181351      235          235            0 2.3494948e-13            0          0.1 0.0090032367   0.37609342  0.029894611 
number of iterations: 19634 
    5600    19.438941      243          243            0  2.39039e-13            0          0.1 0.0090032975    0.3904577  0.029894509 
number of iterations: 19628 
    5700    19.689115      243          243            0 2.4319971e-13            0          0.1 0.0090033549   0.40507201  0.029894414 
number of iterations: 19683 
    5800    19.940015      247          247            0 2.4743283e-13            0          0.1 0.0090034133    0.4199407  0.029894317 
number of iterations: 19739 
    5900    20.193158      255          255            0 2.5173964e-13            0          0.1 0.0090034727   0.43506819  0.029894218 
number of iterations: 19795 
    6000    20.444911      258          258            0 2.5612142e-13            0          0.1 0.0090035331   0.45045899  0.029894117 
number of iterations: 19851 
    6100    20.698379      261          261            0 2.6057946e-13            0          0.1 0.0090035946   0.46611768  0.029894015 
number of iterations: 19907 
    6200    20.953011      269          269            0 2.651151e-13            0          0.1 0.0090036572   0.48204892   0.02989391 
number of iterations: 19651 
    6300    21.202959      277          277            0 2.6972968e-13            0          0.1 0.0090037205   0.49825747  0.029893805 
number of iterations: 20013 
    6400    21.458875      279          279            0 2.7442459e-13            0          0.1 0.0090037852   0.51474814  0.029893697 
number of iterations: 20069 
    6500    21.713558      281          281            0 2.7920121e-13            0          0.1 0.0090038511   0.53152845  0.029893588 
number of iterations: 20125 
    6600    21.973099      283          283            0 2.8406098e-13            0          0.1 0.0090039182   0.54860084  0.029893476 
number of iterations: 20181 
    6700     22.23907      287          287            0 2.8900534e-13            0          0.1 0.0090039854    0.5659704  0.029893364 
number of iterations: 19451 
    6800    22.501625      288          288            0 2.9403576e-13            0          0.1  0.009004055   0.58364229  0.029893248 
number of iterations: 20281 
    6900    22.762316      292          292            0 2.9915373e-13            0          0.1 0.0090041256   0.60162178  0.029893131 
number of iterations: 20664 
    7000    23.026057      295          295            0 3.0436079e-13            0          0.1 0.0090041973   0.61991422  0.029893011 
number of iterations: 20398 
    7100    23.287462      296          296            0 3.0965849e-13            0          0.1 0.0090042704   0.63852505  0.029892889 
number of iterations: 20454 
    7200    23.545896      300          300            0 3.1504839e-13            0          0.1 0.0090043447   0.65745982  0.029892766 
number of iterations: 20510 
    7300    23.805774      307          307            0 3.2053211e-13            0          0.1 0.0090044203   0.67672417   0.02989264 
number of iterations: 20566 
    7400    24.065721      311          311            0 3.2611128e-13            0          0.1 0.0090044973   0.69632384  0.029892512 
number of iterations: 20621 
    7500    24.339015      316          316            0 3.3178756e-13            0          0.1 0.0090045756   0.71626465  0.029892381 
number of iterations: 20677 
    7600    24.607179      323          323            0 3.3756265e-13            0          0.1 0.0090046552   0.73655255  0.029892249 
number of iterations: 20733 
    7700    24.872646      327          327            0 3.4343825e-13            0          0.1 0.0090047368   0.75719358  0.029892113 
number of iterations: 20789 
    7800    25.155084      332          332            0 3.4941612e-13            0          0.1 0.0090048192   0.77819389  0.029891976 
number of iterations: 20845 
    7900    25.417981      337          337            0 3.5549804e-13            0          0.1 0.0090049031   0.79955973  0.029891836 
number of iterations: 20901 
    8000    25.723086      341          341            0 3.6168583e-13            0          0.1 0.0090049885   0.82129746  0.029891694 
number of iterations: 20718 
    8100     25.99006      351          351            0 3.6798132e-13            0          0.1 0.0090050749   0.84341356   0.02989155 
number of iterations: 21041 
    8200    26.254334      358          358            0 3.7438639e-13            0          0.1 0.0090051633   0.86591462  0.029891403 
number of iterations: 21065 
    8300     26.52102      366          366            0 3.8090294e-13            0          0.1 0.0090052532   0.88880734  0.029891253 
number of iterations: 21121 
    8400    26.789114      371          371            0 3.8753292e-13            0          0.1 0.0090053446   0.91209852  0.029891101 
number of iterations: 21836 
    8500    27.078912      380          380            0 3.942783e-13            0          0.1 0.0090054432    0.9357951  0.029890937 
number of iterations: 21245 
    8600    27.345583      392          392            0 4.011411e-13            0          0.1 0.0090055375   0.95990415   0.02989078 
number of iterations: 21301 
    8700    27.616254      397          397            0 4.0812334e-13            0          0.1 0.0090056339   0.98443284  0.029890619 
Loop time of 27.6163 on 32 procs for 8700 steps with 397 atoms

Performance: 272187333.337 tau/day, 315.032 timesteps/s
98.6% CPU use with 32 MPI tasks x no OpenMP threads

MPI task timing breakdown:
Section |  min time  |  avg time  |  max time  |%varavg| %total
---------------------------------------------------------------
Pair    | 0.00041513 | 0.0021717  | 0.0067047  |   3.0 |  0.01
Neigh   | 0.0011264  | 0.0020156  | 0.0050367  |   2.0 |  0.01
Comm    | 0.007721   | 0.022625   | 0.047733   |   6.9 |  0.08
Output  | 0.8989     | 0.89942    | 0.8997     |   0.0 |  3.26
Modify  | 26.624     | 26.627     | 26.632     |   0.0 | 96.42
Other   |            | 0.06286    |            |       |  0.23

Nlocal:    12.4062 ave 55 max 0 min
Histogram: 11 7 4 5 3 1 0 0 0 1
Nghost:    3.15625 ave 13 max 0 min
Histogram: 13 4 4 4 2 2 1 0 1 1
Neighs:    12.2812 ave 52 max 0 min
Histogram: 9 9 4 3 3 3 0 0 0 1

Total # of neighbors = 393
Ave neighs/atom = 0.989924
Neighbor list builds = 103
Dangerous builds = 0
Total wall time: 0:00:27
