LAMMPS (20 Nov 2019)
Reading data file ...
  orthogonal box = (0 0 0) to (0.0001 0.0001 1e-05)
  8 by 4 by 1 MPI processor grid
  reading atoms ...
  100 atoms
  4 nutrients
Lattice spacing in x,y,z = 100 100 100
50 atoms in group CYANO
50 atoms in group ECW
Model is defined as a closed system. 
Neighbor list info ...
  update every 1 steps, delay 0 steps, check yes
  max neighbors/atom: 5000, page size: 100000
  master list distance cutoff = 2.43e-06
  ghost atom cutoff = 2.43e-06
  binsize = 1.215e-06, bins = 83 83 9
  1 neighbor lists, perpetual/occasional/extra = 1 0 0
  (1) pair gran/hooke/history, perpetual
      attributes: half, newton off, size, history
      pair build: half/size/bin/newtoff
      stencil: half/bin/3d/newtoff
      bin: standard
Setting up Verlet run ...
  Unit style    : lj
  Current step  : 0
  Time step     : 10
Per MPI rank memory allocation (min/avg/max) = 5.795 | 10.49 | 12.11 Mbytes
Step CPU Atoms c_myNtypes[1] c_myNtypes[2] c_myMass[1] c_myMass[2] c_myCon[1] c_myCon[2] c_myCon[3] c_myCon[4] 
       0            0      100           50           50 4.566277e-14 8.9819682e-15          0.1        0.009     3.42e-20       0.0299 
number of iterations: 322980 
     100    15.633912      133           50           83 4.6267903e-14 8.975267e-15          0.1 0.0090007916  0.036683134  0.029898681 
number of iterations: 3122 
     200    15.928165      148           50           98 4.6881056e-14 8.9695158e-15          0.1  0.009000802  0.072682449  0.029898664 
number of iterations: 2212 
     300    16.188784      148           50           98 4.7502333e-14 8.964699e-15          0.1 0.0090008126   0.10913466  0.029898646 
number of iterations: 1764 
     400    16.414828      148           50           98 4.8131845e-14 8.9608084e-15          0.1 0.0090008233   0.14604761  0.029898628 
number of iterations: 1557 
     500     16.61011      149           51           98 4.8769698e-14 8.957837e-15          0.1 0.0090008296    0.1834286  0.029898618 
number of iterations: 1554 
     600    16.824472      151           53           98 4.9416005e-14 8.9557763e-15          0.1 0.0090008443   0.22128444  0.029898593 
number of iterations: 1513 
     700    17.024028      154           56           98 5.0070876e-14 8.9546203e-15          0.1 0.0090008494   0.25962196  0.029898585 
number of iterations: 1362 
     800     17.21421      154           56           98 5.0734426e-14 8.9543619e-15          0.1 0.0090008606   0.29844804  0.029898566 
number of iterations: 1365 
     900    17.401681      154           56           98 5.140677e-14 8.9549946e-15          0.1  0.009000872   0.33776963  0.029898547 
number of iterations: 1478 
    1000    17.613231      155           57           98 5.2088024e-14 8.956512e-15          0.1 0.0090008848   0.37759375  0.029898526 
number of iterations: 1384 
    1100    17.788417      156           58           98 5.2778305e-14 8.9589077e-15          0.1 0.0090008964    0.4179275  0.029898506 
number of iterations: 1419 
    1200    17.990634      158           60           98 5.3477735e-14 8.9621766e-15          0.1 0.0090009083   0.45877805  0.029898486 
number of iterations: 1393 
    1300    18.221667      159           61           98 5.4186433e-14 8.9663117e-15          0.1 0.0090009203   0.50015266  0.029898466 
number of iterations: 1379 
    1400     18.43539      159           61           98 5.4904524e-14 8.9713084e-15          0.1 0.0090009324   0.54205869  0.029898446 
number of iterations: 1382 
    1500    18.618719      159           61           98 5.563213e-14 8.9771616e-15          0.1 0.0090009448   0.58450355  0.029898426 
number of iterations: 1579 
    1600    18.814351      160           62           98 5.6369379e-14 8.9838665e-15          0.1 0.0090009598   0.62749478  0.029898401 
number of iterations: 1500 
    1700    18.996892      160           62           98 5.7116398e-14 8.9914171e-15          0.1 0.0090009739   0.67104011  0.029898377 
number of iterations: 1391 
    1800    19.159396      160           62           98 5.7873317e-14 8.9998104e-15          0.1 0.0090009868   0.71514711  0.029898355 
number of iterations: 1394 
    1900    19.337579      160           62           98 5.8640267e-14 9.0090422e-15          0.1 0.0090009998   0.75982359  0.029898334 
number of iterations: 1540 
    2000    19.542117      162           64           98 5.941738e-14 9.0191085e-15          0.1 0.0090010143   0.80507742  0.029898309 
number of iterations: 1388 
    2100    19.717873      162           64           98 6.0204792e-14 9.0300057e-15          0.1 0.0090010242   0.85091661  0.029898293 
number of iterations: 1401 
    2200    19.892819      162           64           98 6.1002639e-14 9.0417302e-15          0.1 0.0090010378   0.89734922   0.02989827 
number of iterations: 1403 
    2300    20.083432      163           65           98 6.1811059e-14 9.0542788e-15          0.1 0.0090010515   0.94438346  0.029898247 
number of iterations: 1406 
    2400     20.36231      163           65           98 6.2630192e-14 9.0676482e-15          0.1 0.0090010654   0.99202761  0.029898224 
number of iterations: 1409 
    2500    20.538125      163           65           98 6.3460181e-14 9.0818357e-15          0.1 0.0090010795    1.0402901  0.029898201 
number of iterations: 1412 
    2600    20.727324      163           65           98 6.4301169e-14 9.0968385e-15          0.1 0.0090010938    1.0891793  0.029898177 
number of iterations: 1637 
    2700    20.921237      165           67           98 6.5153301e-14 9.1126545e-15          0.1 0.0090011133    1.1387039  0.029898144 
number of iterations: 1418 
    2800    21.112262      165           67           98 6.6016727e-14 9.1292811e-15          0.1  0.009001128    1.1888726   0.02989812 
number of iterations: 1433 
    2900    21.290401      166           68           98 6.6891594e-14 9.1467152e-15          0.1 0.0090011429    1.2396942  0.029898095 
number of iterations: 1514 
    3000    21.536882      167           69           98 6.7778056e-14 9.1649583e-15          0.1 0.0090011606    1.2911778  0.029898065 
number of iterations: 1495 
    3100     21.73063      171           71          100 6.8676265e-14 9.1840055e-15          0.1 0.0090011767    1.3433322  0.029898039 
number of iterations: 1430 
    3200     21.89718      171           71          100 6.9586378e-14 9.203856e-15          0.1 0.0090011923    1.3961668  0.029898013 
number of iterations: 1565 
    3300    22.067694      172           72          100 7.0508551e-14 9.2245078e-15          0.1 0.0090012107    1.4496908  0.029897982 
number of iterations: 1454 
    3400    22.245591      174           74          100 7.1442945e-14 9.2459619e-15          0.1 0.0090012221    1.5039136  0.029897963 
number of iterations: 1443 
    3500    22.412019      176           75          101 7.2389722e-14 9.2682142e-15          0.1 0.0090012383    1.5588447  0.029897936 
number of iterations: 1441 
    3600     22.59716      178           75          103 7.3349046e-14 9.2912647e-15          0.1 0.0090012547    1.6144938  0.029897908 
number of iterations: 1444 
    3700    22.772281      178           75          103 7.4321083e-14 9.3151135e-15          0.1 0.0090012713    1.6708706  0.029897881 
number of iterations: 1446 
    3800    22.935437      178           75          103 7.5306002e-14 9.3397601e-15          0.1 0.0090012881     1.727985  0.029897853 
number of iterations: 1426 
    3900    23.108196      178           75          103 7.6303973e-14 9.3652039e-15          0.1 0.0090012966    1.7858471  0.029897838 
number of iterations: 1450 
    4000    23.327447      178           75          103 7.7315169e-14 9.391445e-15          0.1 0.0090013138     1.844467   0.02989781 
number of iterations: 1486 
    4100    23.487499      180           77          103 7.8339766e-14 9.418483e-15          0.1 0.0090013287    1.9038549  0.029897785 
number of iterations: 1533 
    4200    23.691733      181           78          103 7.9377941e-14 9.4463186e-15          0.1 0.0090013488    1.9640214  0.029897751 
number of iterations: 1460 
    4300     23.88572      181           78          103 8.0429874e-14 9.4749518e-15          0.1 0.0090013667    2.0249768  0.029897722 
number of iterations: 1462 
    4400    24.063785      182           78          104 8.1495748e-14 9.504383e-15          0.1 0.0090013848     2.086732  0.029897691 
number of iterations: 1518 
    4500    24.228689      184           79          105 8.2575746e-14 9.5346138e-15          0.1 0.0090014044    2.1492978  0.029897659 
number of iterations: 1469 
    4600    24.420178      186           79          107 8.3670057e-14 9.5656443e-15          0.1  0.009001423     2.212685  0.029897628 
number of iterations: 1472 
    4700    24.590424      186           79          107 8.477887e-14 9.597475e-15          0.1 0.0090014419    2.2769049  0.029897596 
number of iterations: 1474 
    4800    24.759027      187           79          108 8.5902377e-14 9.6301069e-15          0.1  0.009001461    2.3419687  0.029897564 
number of iterations: 1502 
    4900    24.931703      188           80          108 8.7040774e-14 9.6635409e-15          0.1 0.0090014803    2.4078877  0.029897532 
number of iterations: 1480 
    5000    25.119627      188           80          108 8.8194256e-14 9.6977787e-15          0.1 0.0090014999    2.4746735  0.029897499 
number of iterations: 1634 
    5100    25.357018      191           83          108 8.9363024e-14 9.7328229e-15          0.1 0.0090015236    2.5423374   0.02989746 
number of iterations: 1625 
    5200    25.549147      195           86          109 9.0547282e-14 9.7686756e-15          0.1 0.0090015463    2.6108917  0.029897422 
number of iterations: 1480 
    5300    25.723271      198           89          109 9.1747233e-14 9.8053367e-15          0.1 0.0090015598    2.6803485  0.029897399 
number of iterations: 1491 
    5400    25.920913      199           89          110 9.2963086e-14 9.842808e-15          0.1 0.0090015805    2.7507197  0.029897365 
number of iterations: 1493 
    5500    26.109511      200           89          111 9.4195052e-14 9.8810912e-15          0.1 0.0090016014    2.8220178   0.02989733 
number of iterations: 1656 
    5600     26.29242      201           90          111 9.5443345e-14 9.9201884e-15          0.1 0.0090016274    2.8942552  0.029897287 
number of iterations: 1556 
    5700    26.459391      202           91          111 9.670818e-14 9.9601022e-15          0.1 0.0090016513    2.9674445  0.029897247 
number of iterations: 1514 
    5800    26.638098      206           94          112 9.7989776e-14 1.0000836e-14          0.1 0.0090016732    3.0415989   0.02989721 
number of iterations: 1606 
    5900    26.831359      207           95          112 9.9288357e-14 1.0042391e-14          0.1 0.0090017002     3.116731  0.029897165 
number of iterations: 1630 
    6000    27.027178      208           95          113 1.0060415e-13 1.0084772e-14          0.1 0.0090017128     3.192854  0.029897144 
number of iterations: 1505 
    6100    27.244398      211           98          113 1.0193737e-13 1.012798e-14          0.1 0.0090017329    3.2699811  0.029897111 
number of iterations: 1513 
    6200    27.426971      213           99          114 1.0328827e-13 1.0172018e-14          0.1 0.0090017559    3.3481257  0.029897072 
number of iterations: 1516 
    6300    27.604233      213           99          114 1.0465707e-13 1.0216888e-14          0.1 0.0090017791    3.4273015  0.029897034 
number of iterations: 1519 
    6400    27.783699      213           99          114  1.06044e-13 1.0262595e-14          0.1 0.0090018027    3.5075226  0.029896994 
number of iterations: 1522 
    6500    27.963859      214          100          114 1.0744932e-13 1.0309141e-14          0.1 0.0090018266    3.5888029  0.029896954 
number of iterations: 1513 
    6600    28.160324      220          106          114 1.0887326e-13 1.0356529e-14          0.1  0.009001842    3.6711564  0.029896929 
number of iterations: 1708 
    6700    28.354463      223          109          114 1.1031607e-13 1.0404762e-14          0.1 0.0090018733    3.7545977  0.029896877 
number of iterations: 1531 
    6800    28.553033      224          110          114  1.11778e-13 1.0453845e-14          0.1 0.0090018981    3.8391414  0.029896835 
number of iterations: 1684 
    6900    28.742069      229          114          115 1.1325931e-13 1.0503783e-14          0.1  0.009001928    3.9248023  0.029896785 
number of iterations: 1587 
    7000    28.915003      233          117          116 1.1476024e-13 1.0554577e-14          0.1 0.0090019485    4.0115951  0.029896751 
number of iterations: 1561 
    7100     29.11229      234          118          116 1.1628107e-13 1.0606235e-14          0.1 0.0090019755    4.0995352  0.029896706 
number of iterations: 1543 
    7200    29.287911      234          118          116 1.1782205e-13 1.0658757e-14          0.1 0.0090020016     4.188638  0.029896663 
number of iterations: 1546 
    7300    29.481351      235          119          116 1.1938345e-13 1.0712151e-14          0.1 0.0090020282    4.2789194  0.029896618 
number of iterations: 1646 
    7400    29.662494      236          120          116 1.2096554e-13 1.0766418e-14          0.1 0.0090020596    4.3703948  0.029896566 
number of iterations: 1630 
    7500    29.832277      239          122          117 1.225686e-13 1.0821563e-14          0.1 0.0090020846    4.4630804  0.029896524 
number of iterations: 1582 
    7600    30.002606      243          126          117 1.2419291e-13 1.0877591e-14          0.1 0.0090021096    4.5569918  0.029896482 
number of iterations: 1653 
    7700    30.175529      247          130          117 1.2583874e-13 1.0934506e-14          0.1 0.0090021363    4.6521456  0.029896438 
number of iterations: 1554 
    7800    30.410278      250          132          118 1.2750638e-13 1.0992315e-14          0.1 0.0090021631    4.7485583  0.029896393 
number of iterations: 1567 
    7900    30.622459      251          132          119 1.2919612e-13 1.1051023e-14          0.1 0.0090021918    4.8462475  0.029896346 
number of iterations: 1571 
    8000    30.792819      255          136          119 1.3090825e-13 1.1110633e-14          0.1 0.0090022192    4.9452299    0.0298963 
number of iterations: 1634 
    8100    30.997296      258          138          120 1.3264307e-13 1.1171151e-14          0.1 0.0090022486    5.0455227  0.029896251 
number of iterations: 1570 
    8200    31.187521      258          138          120 1.3440088e-13 1.1232583e-14          0.1 0.0090022784    5.1471436  0.029896201 
number of iterations: 1580 
    8300    31.365917      259          139          120 1.3618199e-13 1.1294933e-14          0.1 0.0090023086    5.2501103  0.029896151 
number of iterations: 1705 
    8400    31.576873      263          142          121 1.379867e-13 1.1358209e-14          0.1 0.0090023383    5.3544407  0.029896101 
number of iterations: 1685 
    8500    31.760927      264          143          121 1.3981533e-13 1.1422416e-14          0.1 0.0090023733    5.4601532  0.029896043 
number of iterations: 1583 
    8600    31.944484      264          143          121 1.4166819e-13 1.1487559e-14          0.1 0.0090024047     5.567266   0.02989599 
number of iterations: 1587 
    8700    32.123258      266          145          121 1.4354561e-13 1.1553644e-14          0.1 0.0090024366    5.6757981  0.029895937 
number of iterations: 1588 
    8800     32.32152      267          146          121 1.454479e-13 1.1620676e-14          0.1 0.0090024689    5.7857682  0.029895883 
number of iterations: 1570 
    8900    32.493582      269          147          122 1.473754e-13 1.1688662e-14          0.1 0.0090024977    5.8971956  0.029895835 
number of iterations: 1602 
    9000    32.696791      270          148          122 1.4932845e-13 1.1757609e-14          0.1 0.0090025308    6.0100998   0.02989578 
number of iterations: 1605 
    9100    32.896911      275          151          124 1.5130738e-13 1.1827521e-14          0.1 0.0090025596    6.1245005  0.029895732 
number of iterations: 1609 
    9200    33.072995      277          152          125 1.5331254e-13 1.1898406e-14          0.1 0.0090025935    6.2404178  0.029895676 
number of iterations: 1602 
    9300    33.275486      279          153          126 1.5534427e-13 1.197027e-14          0.1 0.0090026279    6.3578718  0.029895618 
number of iterations: 1639 
    9400    33.457031      284          156          128 1.5740292e-13 1.2043121e-14          0.1 0.0090026657     6.476883  0.029895555 
number of iterations: 1770 
    9500    33.641586      284          156          128 1.5948885e-13 1.2116964e-14          0.1 0.0090027008    6.5974727  0.029895497 
number of iterations: 1619 
    9600    33.828277      286          158          128 1.6160243e-13 1.2191808e-14          0.1 0.0090027366    6.7196615  0.029895437 
number of iterations: 1719 
    9700    34.016344      286          158          128 1.6374402e-13 1.2267659e-14          0.1 0.0090027783    6.8434707  0.029895368 
number of iterations: 1619 
    9800    34.187778      288          159          129 1.6591398e-13 1.2344524e-14          0.1 0.0090028151    6.9689219  0.029895306 
number of iterations: 1618 
    9900    34.368556      289          160          129 1.6811271e-13 1.2422411e-14          0.1 0.0090028481    7.0960371  0.029895251 
number of iterations: 1646 
   10000    34.544505      292          161          131 1.7034057e-13 1.2501327e-14          0.1 0.0090028886    7.2248383  0.029895184 
number of iterations: 1622 
   10100     34.73437      302          167          135 1.7259796e-13 1.2581279e-14          0.1 0.0090029177    7.3553491  0.029895135 
number of iterations: 1746 
   10200    34.927122      307          172          135 1.7488526e-13 1.2662274e-14          0.1 0.0090029666    7.4875913  0.029895054 
number of iterations: 1638 
   10300    35.109612      309          172          137 1.7720287e-13 1.2744321e-14          0.1  0.009003006    7.6215879  0.029894988 
number of iterations: 1655 
   10400    35.318804      314          174          140 1.795512e-13 1.2827427e-14          0.1 0.0090030458    7.7573617  0.029894922 
number of iterations: 1668 
   10500    35.512284      316          175          141 1.8193064e-13 1.2911602e-14          0.1 0.0090030876    7.8949375  0.029894852 
number of iterations: 1642 
   10600    35.687584      318          176          142 1.8434162e-13 1.2996852e-14          0.1 0.0090031285     8.034339  0.029894784 
number of iterations: 1645 
   10700    35.867565      319          176          143 1.8678455e-13 1.3083187e-14          0.1   0.00900317    8.1755903  0.029894715 
number of iterations: 1760 
   10800    36.061008      322          179          143 1.8925986e-13 1.3170613e-14          0.1   0.00900322    8.3187162  0.029894631 
number of iterations: 1658 
   10900    36.256741      326          182          144 1.9176797e-13 1.325914e-14          0.1 0.0090032627    8.4637421   0.02989456 
number of iterations: 1654 
   11000    36.437181      330          185          145 1.9430931e-13 1.3348776e-14          0.1 0.0090033048    8.6106929   0.02989449 
number of iterations: 1750 
   11100    36.643618      336          190          146 1.9688434e-13 1.3439529e-14          0.1  0.009003351    8.7595943  0.029894413 
number of iterations: 1701 
   11200    36.851654      340          194          146 1.9949348e-13 1.353141e-14          0.1 0.0090033981    8.9104729  0.029894334 
number of iterations: 1716 
   11300    37.043474      343          196          147 2.0213721e-13 1.3624427e-14          0.1 0.0090034448    9.0633543  0.029894256 
number of iterations: 1740 
   11400    37.236405      347          200          147 2.0481597e-13 1.371859e-14          0.1 0.0090034893    9.2182659  0.029894182 
number of iterations: 1797 
   11500    37.422043      349          202          147 2.0753023e-13 1.3813907e-14          0.1 0.0090035453    9.3752342  0.029894089 
number of iterations: 1679 
   11600    37.605713      351          203          148 2.1028046e-13 1.3910388e-14          0.1 0.0090035936    9.5342864  0.029894008 
number of iterations: 1699 
   11700    37.800545      356          208          148 2.1306714e-13 1.4008043e-14          0.1 0.0090036426    9.6954503  0.029893927 
number of iterations: 1773 
   11800    37.993781      361          211          150 2.1589074e-13 1.4106881e-14          0.1 0.0090036917    9.8587549  0.029893845 
number of iterations: 1661 
   11900    38.181459      365          215          150 2.1875177e-13 1.4206912e-14          0.1  0.009003731    10.024227   0.02989378 
number of iterations: 1784 
   12000    38.391459      367          216          151 2.2165071e-13 1.4308146e-14          0.1 0.0090037902    10.191897  0.029893681 
number of iterations: 1663 
   12100    38.614323      372          220          152 2.2458806e-13 1.4410593e-14          0.1 0.0090038285    10.361793  0.029893617 
number of iterations: 1736 
   12200    38.800122      378          226          152 2.2756434e-13 1.4514262e-14          0.1 0.0090038761    10.533944  0.029893538 
number of iterations: 1746 
   12300    38.997236      385          232          153 2.3058007e-13 1.4619162e-14          0.1 0.0090039263    10.708382  0.029893454 
number of iterations: 1740 
   12400    39.206334      391          235          156 2.3363576e-13 1.4725306e-14          0.1 0.0090039845    10.885136  0.029893357 
number of iterations: 1753 
   12500    39.404988      399          242          157 2.3673194e-13 1.4832702e-14          0.1 0.0090040467    11.064238  0.029893253 
number of iterations: 1689 
   12600    39.605324      405          247          158 2.3986916e-13 1.4941361e-14          0.1 0.0090040964    11.245718   0.02989317 
number of iterations: 1698 
   12700    39.789632      410          250          160 2.4304795e-13 1.5051296e-14          0.1 0.0090041482    11.429607  0.029893084 
number of iterations: 1693 
   12800    39.970751      413          251          162 2.4626887e-13 1.5162516e-14          0.1 0.0090042015     11.61594  0.029892995 
number of iterations: 1708 
   12900    40.147212      414          251          163 2.4953247e-13 1.5275034e-14          0.1 0.0090042572    11.804747  0.029892902 
number of iterations: 1716 
   13000     40.34853      418          254          164 2.5283932e-13 1.5388859e-14          0.1 0.0090043137    11.996062  0.029892808 
number of iterations: 1695 
   13100    40.570047      422          257          165 2.5618999e-13 1.5504003e-14          0.1 0.0090043609    12.189918  0.029892729 
number of iterations: 1760 
   13200    40.756493      426          259          167 2.5958506e-13 1.5620478e-14          0.1 0.0090044085     12.38635   0.02989265 
number of iterations: 1711 
   13300    40.937465      429          262          167 2.6302513e-13 1.5738296e-14          0.1 0.0090044604    12.585391  0.029892564 
number of iterations: 1781 
   13400    41.133846      438          269          169 2.6651079e-13 1.5857467e-14          0.1 0.0090045109    12.787076  0.029892479 
number of iterations: 1705 
   13500    41.313394      450          276          174 2.7004264e-13 1.5978005e-14          0.1 0.0090045599     12.99144  0.029892398 
number of iterations: 1765 
   13600    41.555318      451          277          174 2.7362129e-13 1.6099921e-14          0.1 0.0090046296     13.19852  0.029892282 
number of iterations: 1746 
   13700     41.75486      453          278          175 2.7724737e-13 1.6223226e-14          0.1 0.0090046896     13.40835  0.029892182 
number of iterations: 1738 
   13800    41.972764      456          281          175 2.809215e-13 1.6347934e-14          0.1 0.0090047435    13.620968  0.029892092 
number of iterations: 1735 
   13900    42.159502      458          283          175 2.8464433e-13 1.6474057e-14          0.1 0.0090048064    13.836411  0.029891987 
number of iterations: 1758 
   14000    42.336156      461          286          175 2.8841648e-13 1.6601608e-14          0.1  0.009004872    14.054716  0.029891878 
number of iterations: 1810 
   14100    42.557914      464          288          176 2.9223863e-13 1.6730598e-14          0.1 0.0090049437    14.275921  0.029891758 
number of iterations: 1739 
   14200    42.754469      468          292          176 2.9611143e-13 1.6861042e-14          0.1 0.0090050026    14.500065   0.02989166 
number of iterations: 1797 
   14300    42.934402      474          296          178 3.0003555e-13 1.6992951e-14          0.1 0.0090050651    14.727187  0.029891556 
number of iterations: 1785 
   14400    43.132902      479          300          179 3.0401167e-13 1.712634e-14          0.1 0.0090051309    14.957326  0.029891446 
number of iterations: 1706 
   14500    43.320076      484          302          182 3.0804049e-13 1.7261222e-14          0.1  0.009005181    15.190524  0.029891363 
number of iterations: 1817 
   14600    43.510441      488          306          182 3.121227e-13 1.739761e-14          0.1 0.0090052581     15.42682  0.029891234 
number of iterations: 1824 
   14700    43.699193      491          308          183  3.16259e-13 1.7535518e-14          0.1 0.0090053308    15.666255  0.029891113 
number of iterations: 1797 
   14800    43.888843      498          314          184 3.2045012e-13 1.7674959e-14          0.1 0.0090054097    15.908872  0.029890981 
number of iterations: 1755 
   14900    44.086242      503          317          186 3.2469678e-13 1.7815948e-14          0.1 0.0090054785    16.154713  0.029890867 
number of iterations: 1790 
   15000    44.271124      508          321          187 3.2899972e-13 1.7958498e-14          0.1 0.0090055542     16.40382   0.02989074 
number of iterations: 1833 
   15100    44.484323      515          326          189 3.3335968e-13 1.8102624e-14          0.1 0.0090056349    16.656237  0.029890606 
number of iterations: 1784 
   15200    44.668656      520          329          191 3.3777742e-13 1.8248341e-14          0.1 0.0090057136    16.912009  0.029890475 
number of iterations: 1758 
   15300    44.877453      524          332          192 3.4225371e-13 1.8395663e-14          0.1 0.0090057814    17.171179  0.029890362 
number of iterations: 1821 
   15400     45.07011      533          336          197 3.4678931e-13 1.8544604e-14          0.1 0.0090058671    17.433794  0.029890219 
number of iterations: 1873 
   15500    45.263519      538          340          198 3.5138502e-13 1.869518e-14          0.1 0.0090059501    17.699899  0.029890081 
number of iterations: 1786 
   15600     45.47448      545          344          201 3.5604164e-13 1.8847405e-14          0.1 0.0090060198     17.96954  0.029889965 
number of iterations: 1837 
   15700     45.66999      550          348          202 3.6075996e-13 1.9001295e-14          0.1 0.0090061088    18.242763  0.029889816 
number of iterations: 1804 
   15800    45.870474      556          352          204 3.6554081e-13 1.9156865e-14          0.1 0.0090061887    18.519617  0.029889683 
number of iterations: 1825 
   15900    46.061968      566          359          207 3.7038502e-13 1.931413e-14          0.1 0.0090062745     18.80015   0.02988954 
number of iterations: 1858 
   16000    46.270374      572          364          208 3.7529343e-13 1.9473108e-14          0.1 0.0090063726    19.084412  0.029889377 
number of iterations: 1791 
   16100    46.482196      582          370          212 3.8026688e-13 1.9633813e-14          0.1 0.0090064473    19.372451  0.029889252 
number of iterations: 1861 
   16200    46.671338      590          375          215 3.8530624e-13 1.9796261e-14          0.1 0.0090065313    19.664319  0.029889112 
number of iterations: 1797 
   16300    46.860471      600          381          219 3.9041238e-13 1.996047e-14          0.1 0.0090066089    19.960065  0.029888983 
number of iterations: 1854 
   16400    47.053213      605          384          221 3.9558619e-13 2.0126453e-14          0.1 0.0090067091     20.25974  0.029888816 
number of iterations: 1817 
   16500    47.240472      606          385          221 4.0082856e-13 2.0294228e-14          0.1 0.0090067989    20.563399  0.029888666 
number of iterations: 1812 
   16600    47.436423      613          390          223 4.0614041e-13 2.0463813e-14          0.1 0.0090068843    20.871093  0.029888524 
number of iterations: 1833 
   16700    47.634197      622          398          224 4.1152265e-13 2.0635224e-14          0.1   0.00900698    21.182876  0.029888364 
number of iterations: 1806 
   16800    47.821721      631          406          225 4.1697621e-13 2.0808478e-14          0.1 0.0090070569    21.498804  0.029888236 
number of iterations: 1864 
   16900    48.024589      644          419          225 4.2250205e-13 2.0983592e-14          0.1  0.009007156     21.81893  0.029888071 
number of iterations: 1819 
   17000    48.281011      654          426          228 4.2810111e-13 2.1160584e-14          0.1 0.0090072466    22.143311   0.02988792 
number of iterations: 1835 
   17100    48.510577      661          433          228 4.3377438e-13 2.1339472e-14          0.1 0.0090073377    22.472003  0.029887768 
number of iterations: 1880 
   17200     48.71573      670          440          230 4.3952282e-13 2.1520274e-14          0.1 0.0090074362    22.805064  0.029887604 
number of iterations: 1861 
   17300    48.906725      680          446          234 4.4534745e-13 2.1703009e-14          0.1 0.0090075385    23.142551  0.029887433 
number of iterations: 1804 
   17400    49.118515      684          450          234 4.5124927e-13 2.1887694e-14          0.1 0.0090076187    23.484522    0.0298873 
number of iterations: 1855 
   17500    49.315027      697          460          237 4.5722929e-13 2.2074348e-14          0.1 0.0090077179    23.831039  0.029887134 
number of iterations: 1866 
   17600    49.509865      699          462          237 4.6328857e-13 2.2262989e-14          0.1 0.0090078238    24.182161  0.029886958 
number of iterations: 1840 
   17700    49.701673      710          471          239 4.6942814e-13 2.2453637e-14          0.1 0.0090079222     24.53795  0.029886794 
number of iterations: 1864 
   17800    49.904049      720          479          241 4.7564907e-13 2.264631e-14          0.1 0.0090080316    24.898468  0.029886612 
number of iterations: 1899 
   17900    50.108984      727          483          244 4.8195245e-13 2.2841028e-14          0.1 0.0090081498    25.263776  0.029886415 
number of iterations: 1860 
   18000    50.333854      737          490          247 4.8833936e-13 2.303781e-14          0.1 0.0090082528    25.633939  0.029886243 
number of iterations: 1886 
   18100    50.552533      745          494          251 4.9481091e-13 2.3236676e-14          0.1  0.009008371    26.009021  0.029886046 
number of iterations: 1841 
   18200    50.752028      751          499          252 5.0136822e-13 2.3437646e-14          0.1   0.00900847    26.389087  0.029885881 
number of iterations: 1902 
   18300    50.978015      757          505          252 5.0801242e-13 2.364074e-14          0.1 0.0090085808    26.774205  0.029885696 
number of iterations: 1910 
   18400    51.183252      763          510          253 5.1474468e-13 2.3845977e-14          0.1 0.0090087108    27.164441   0.02988548 
number of iterations: 1907 
   18500    51.412246      772          516          256 5.2156616e-13 2.4053379e-14          0.1 0.0090088335    27.559863  0.029885275 
number of iterations: 1886 
   18600    51.661794      782          522          260 5.2847803e-13 2.4262967e-14          0.1  0.009008953    27.960541  0.029885076 
number of iterations: 1862 
   18700    51.930846      791          530          261 5.354815e-13 2.4474762e-14          0.1 0.0090090634    28.366544  0.029884892 
number of iterations: 1922 
   18800    52.132683      797          535          262 5.4257778e-13 2.4688784e-14          0.1 0.0090091933    28.777942  0.029884676 
number of iterations: 1872 
   18900    52.315599      808          541          267 5.497681e-13 2.4905056e-14          0.1 0.0090093014    29.194807  0.029884496 
number of iterations: 1905 
   19000    52.526849      815          546          269 5.570537e-13 2.5123598e-14          0.1 0.0090094318    29.617213  0.029884278 
number of iterations: 1890 
   19100    52.739206      823          552          271 5.6443586e-13 2.5344433e-14          0.1 0.0090095575    30.045233  0.029884069 
number of iterations: 1899 
   19200    52.941221      834          561          273 5.7191585e-13 2.5567582e-14          0.1  0.009009686    30.478941  0.029883855 
number of iterations: 1883 
   19300    53.157755      846          570          276 5.7949496e-13 2.5793067e-14          0.1 0.0090098013    30.918414  0.029883662 
number of iterations: 1897 
   19400    53.358298      855          578          277 5.8717451e-13 2.6020911e-14          0.1 0.0090099319    31.363727  0.029883445 
number of iterations: 1903 
   19500    53.553989      863          585          278 5.9495583e-13 2.6251137e-14          0.1 0.0090100577    31.814959  0.029883235 
number of iterations: 1898 
   19600    53.749857      871          589          282 6.0284027e-13 2.6483767e-14          0.1  0.009010185    32.272187  0.029883023 
number of iterations: 1874 
   19700    53.941478      885          599          286 6.1082919e-13 2.6718825e-14          0.1 0.0090103004    32.735492  0.029882831 
number of iterations: 1931 
   19800    54.174588      895          606          289 6.1892399e-13 2.6956335e-14          0.1  0.009010426    33.204956  0.029882621 
number of iterations: 1889 
   19900    54.397702      904          612          292 6.2712605e-13 2.719632e-14          0.1 0.0090105466    33.680657   0.02988242 
number of iterations: 1910 
   20000    54.603337      911          618          293 6.3543682e-13 2.7438804e-14          0.1 0.0090106776    34.162679  0.029882202 
number of iterations: 1867 
   20100    54.795886      926          632          294 6.4385771e-13 2.7683811e-14          0.1 0.0090107806    34.651108   0.02988203 
number of iterations: 1916 
   20200    54.988824      934          639          295 6.523902e-13 2.7931365e-14          0.1 0.0090109214    35.146027  0.029881796 
number of iterations: 1940 
   20300    55.200588      941          645          296 6.6103577e-13 2.8181493e-14          0.1 0.0090110728    35.647523  0.029881544 
number of iterations: 1929 
   20400    55.445668      951          652          299 6.697959e-13 2.8434217e-14          0.1 0.0090112229    36.155684  0.029881293 
number of iterations: 1942 
   20500    55.654474      958          657          301 6.7867213e-13 2.8689565e-14          0.1 0.0090113828    36.670598  0.029881027 
number of iterations: 1966 
   20600     55.86999      970          666          304 6.8766598e-13 2.8947559e-14          0.1 0.0090115283    37.192353  0.029880784 
number of iterations: 1948 
   20700    56.125269      980          674          306 6.9677902e-13 2.9208228e-14          0.1 0.0090116695    37.721042  0.029880549 
number of iterations: 1924 
   20800    56.324606      997          688          309 7.0601283e-13 2.9471597e-14          0.1 0.0090118064    38.256757  0.029880321 
number of iterations: 1958 
   20900    56.551776     1012          701          311  7.15369e-13 2.9737692e-14          0.1 0.0090119649    38.799592  0.029880057 
number of iterations: 1951 
   21000    56.749064     1024          710          314 7.2484916e-13 3.0006539e-14          0.1 0.0090121103     39.34964  0.029879815 
number of iterations: 1970 
   21100    56.954032     1038          719          319 7.3445496e-13 3.0278166e-14          0.1 0.0090122672    39.906997  0.029879553 
number of iterations: 1954 
   21200    57.169181     1049          727          322 7.4418805e-13 3.0552599e-14          0.1 0.0090124055    40.471761  0.029879323 
number of iterations: 2016 
   21300    57.393413     1064          739          325 7.5405012e-13 3.0829865e-14          0.1 0.0090125811     41.04403   0.02987903 
number of iterations: 1946 
   21400    57.599317     1074          746          328 7.6404289e-13 3.1109993e-14          0.1 0.0090127458    41.623905  0.029878755 
number of iterations: 1951 
   21500    57.820617     1085          756          329 7.7416808e-13 3.1393009e-14          0.1 0.0090129093    42.211485  0.029878483 
number of iterations: 1965 
   21600    58.044542     1095          764          331 7.8442745e-13 3.1678942e-14          0.1 0.0090130744    42.806874  0.029878208 
number of iterations: 1975 
   21700    58.343127     1111          778          333 7.9482277e-13 3.1967822e-14          0.1 0.0090132371    43.410174  0.029877937 
number of iterations: 1925 
   21800    58.563487     1127          789          338 8.0535586e-13 3.2259676e-14          0.1 0.0090133835    44.021492  0.029877693 
number of iterations: 1994 
   21900    58.772284     1144          803          341 8.1602853e-13 3.2554533e-14          0.1  0.009013582    44.640933  0.029877362 
number of iterations: 1965 
   22000    58.996628     1164          817          347 8.2684264e-13 3.2852423e-14          0.1  0.009013742    45.268604  0.029877095 
number of iterations: 1975 
   22100    59.225759     1176          826          350 8.3780005e-13 3.3153376e-14          0.1 0.0090139243    45.904617  0.029876792 
number of iterations: 2009 
   22200    59.442488     1195          839          356 8.4890268e-13 3.345742e-14          0.1 0.0090141093    46.549081  0.029876483 
number of iterations: 1970 
   22300    59.667308     1210          850          360 8.6015243e-13 3.3764587e-14          0.1  0.009014283    47.202109  0.029876194 
number of iterations: 2025 
   22400    59.880015     1231          863          368 8.7155127e-13 3.4074906e-14          0.1 0.0090144934    47.863817  0.029875843 
number of iterations: 2004 
   22500    60.084199     1243          871          372 8.8310117e-13 3.438841e-14          0.1  0.009014702    48.534319  0.029875496 
number of iterations: 1985 
   22600    60.289172     1258          883          375 8.9480412e-13 3.4705129e-14          0.1 0.0090148936    49.213729  0.029875177 
number of iterations: 1970 
   22700    60.532991     1273          894          379 9.0666216e-13 3.5025094e-14          0.1 0.0090150791    49.902168  0.029874867 
number of iterations: 1978 
   22800    60.777299     1290          909          381 9.1867735e-13 3.5348338e-14          0.1 0.0090152548    50.599755  0.029874575 
number of iterations: 2002 
   22900    61.006775     1301          917          384 9.3085176e-13 3.5674893e-14          0.1 0.0090154499    51.306612   0.02987425 
number of iterations: 1995 
   23000    61.216548     1319          929          390 9.4216663e-13 3.6004789e-14          0.1 0.0090156498    52.022083  0.029873916 
number of iterations: 1973 
   23100    61.455815     1335          939          396 9.538613e-13 3.6338059e-14          0.1 0.0090158342    52.746456  0.029873609 
number of iterations: 2001 
   23200    61.684649     1348          948          400 9.6650197e-13 3.6674737e-14          0.1 0.0090160426    53.480453  0.029873262 
number of iterations: 2022 
   23300    61.921587     1368          966          402 9.7931016e-13 3.7014857e-14          0.1 0.0090162471    54.224204  0.029872921 
number of iterations: 2010 
   23400    62.141733     1382          978          404 9.9228808e-13 3.7358452e-14          0.1 0.0090164635    54.977837   0.02987256 
number of iterations: 2041 
   23500     62.36448     1397          991          406 1.005438e-12 3.7705556e-14          0.1 0.0090166884    55.741483  0.029872186 
number of iterations: 2049 
   23600     62.56901     1414         1004          410 1.0187621e-12 3.8056205e-14          0.1 0.0090169159    56.515275  0.029871807 
number of iterations: 1963 
   23700    62.779747     1425         1013          412 1.0311461e-12 3.8410431e-14          0.1 0.0090170974    57.298495  0.029871504 
number of iterations: 2030 
   23800    63.009995     1445         1032          413 1.044811e-12 3.8768272e-14          0.1 0.0090173306    58.092124  0.029871116 
number of iterations: 2079 
   23900    63.231123     1468         1050          418 1.0586569e-12 3.9129761e-14          0.1 0.0090175971    58.896297  0.029870671 
number of iterations: 2048 
   24000    63.442935     1481         1060          421 1.0726863e-12 3.9494936e-14          0.1 0.0090178341    59.711156  0.029870277 
number of iterations: 2025 
   24100    63.653859     1502         1076          426 1.0869017e-12 3.9863832e-14          0.1 0.0090180672    60.536842  0.029869888 
number of iterations: 2041 
   24200    63.870022     1514         1084          430 1.1013054e-12 4.0236487e-14          0.1 0.0090183143    61.373503  0.029869476 
number of iterations: 2052 
   24300    64.079738     1535         1098          437   1.1159e-12 4.0612936e-14          0.1 0.0090185744     62.22128  0.029869043 
number of iterations: 2037 
   24400    64.320812     1552         1113          439 1.130688e-12 4.0993218e-14          0.1 0.0090187991    63.080321  0.029868669 
number of iterations: 2020 
   24500    64.560225     1576         1135          441 1.145672e-12 4.1377371e-14          0.1 0.0090190273    63.950776  0.029868288 
number of iterations: 2066 
   24600    64.795383     1589         1145          444 1.1608545e-12 4.1765431e-14          0.1 0.0090193007    64.832794  0.029867833 
number of iterations: 2048 
   24700    65.014305     1605         1157          448 1.1762382e-12 4.2157438e-14          0.1 0.0090195453    65.726533  0.029867425 
number of iterations: 2029 
   24800    65.230973     1634         1181          453 1.1918258e-12 4.2553431e-14          0.1 0.0090197778    66.632144  0.029867038 
number of iterations: 2085 
   24900    65.463007     1650         1195          455  1.20762e-12 4.2953449e-14          0.1  0.009020052    67.549786  0.029866581 
number of iterations: 2016 
   25000    65.691654     1664         1206          458 1.2236235e-12 4.3357532e-14          0.1 0.0090202792     68.47962  0.029866202 
number of iterations: 2063 
   25100    65.924227     1684         1220          464 1.239839e-12 4.3765718e-14          0.1 0.0090205576     69.42181  0.029865738 
number of iterations: 2052 
   25200    66.175079     1705         1236          469 1.2562695e-12 4.417805e-14          0.1 0.0090208112    70.376518  0.029865316 
number of iterations: 2120 
   25300     66.40555     1730         1255          475 1.2729177e-12 4.4594568e-14          0.1 0.0090211014    71.343911  0.029864832 
number of iterations: 2061 
   25400    66.657055     1752         1271          481 1.2897865e-12 4.5015313e-14          0.1 0.0090213848    72.324157   0.02986436 
number of iterations: 2070 
   25500    66.881919     1775         1286          489 1.3068788e-12 4.5440327e-14          0.1 0.0090216658    73.317428  0.029863892 
number of iterations: 2075 
   25600    67.094962     1794         1299          495 1.3241976e-12 4.5869652e-14          0.1 0.0090219469    74.323897  0.029863424 
number of iterations: 2037 
   25700    67.310595     1812         1312          500 1.341746e-12 4.6303329e-14          0.1 0.0090222098    75.343739  0.029862985 
number of iterations: 2119 
   25800    67.522701     1831         1325          506 1.3595269e-12 4.6741403e-14          0.1 0.0090225084     76.37713  0.029862488 
number of iterations: 2124 
   25900    67.743775     1853         1344          509 1.3775434e-12 4.7183917e-14          0.1 0.0090228535    77.424252  0.029861913 
number of iterations: 2102 
   26000    67.956503     1867         1356          511 1.3957987e-12 4.7630914e-14          0.1 0.0090231482    78.485287  0.029861422 
number of iterations: 2155 
   26100       68.251     1890         1377          513 1.4142959e-12 4.808244e-14          0.1 0.0090234745    79.560416  0.029860878 
number of iterations: 2098 
   26200    68.475033     1920         1400          520 1.4330383e-12 4.8538538e-14          0.1 0.0090237912    80.649827  0.029860351 
number of iterations: 2111 
   26300    68.714227     1939         1413          526 1.452029e-12 4.8999254e-14          0.1 0.0090240876    81.753711  0.029859857 
number of iterations: 2143 
   26400    68.943793     1967         1435          532 1.4712713e-12 4.9464635e-14          0.1 0.0090244332    82.872261  0.029859281 
number of iterations: 2111 
   26500    69.184179     1994         1458          536 1.4907687e-12 4.9934726e-14          0.1 0.0090247729    84.005671  0.029858715 
number of iterations: 2101 
   26600    69.406315     2013         1474          539 1.5105245e-12 5.0409573e-14          0.1 0.0090251125    85.154139  0.029858149 
number of iterations: 2122 
   26700     69.63504     2055         1508          547 1.530542e-12 5.0889224e-14          0.1 0.0090254389    86.317864  0.029857605 
number of iterations: 2149 
   26800    69.869674     2081         1528          553 1.5508248e-12 5.1373726e-14          0.1 0.0090258021    87.497053     0.029857 
number of iterations: 2108 
   26900     70.11603     2112         1550          562 1.5713764e-12 5.1863126e-14          0.1  0.009026134    88.691906  0.029856447 
number of iterations: 2107 
   27000    70.349471     2132         1567          565 1.5909124e-12 5.2357472e-14          0.1 0.0090264704    89.901646  0.029855887 
number of iterations: 2098 
   27100    70.594291     2157         1591          566 1.6119952e-12 5.2856813e-14          0.1 0.0090268073    91.127457  0.029855325 
number of iterations: 2128 
   27200    70.857662     2184         1612          572 1.6333574e-12 5.3361199e-14          0.1 0.0090271669    92.369552  0.029854726 
number of iterations: 2140 
   27300    71.131856     2210         1634          576 1.6550027e-12 5.3870681e-14          0.1 0.0090275257    93.628151  0.029854128 
number of iterations: 2105 
   27400    71.379116     2236         1655          581 1.6756515e-12 5.4385308e-14          0.1 0.0090278573    94.902487  0.029853576 
number of iterations: 2177 
   27500    71.739152     2258         1675          583 1.6978572e-12 5.4905132e-14          0.1 0.0090282619    96.193752  0.029852902 
number of iterations: 2144 
   27600    71.969685     2278         1691          587 1.7203573e-12 5.5430204e-14          0.1 0.0090286368    97.502169  0.029852277 
number of iterations: 2146 
   27700    72.196235     2306         1716          590 1.7431555e-12 5.5960576e-14          0.1 0.0090290285    98.827967  0.029851624 
number of iterations: 2134 
   27800    72.436202     2334         1736          598 1.7662559e-12 5.6496301e-14          0.1 0.0090294257    100.17137  0.029850963 
number of iterations: 2156 
   27900    72.658566     2376         1772          604 1.7896623e-12 5.703743e-14          0.1 0.0090297887    101.53263  0.029850358 
number of iterations: 2125 
   28000     72.94565     2403         1794          609 1.813379e-12 5.7584018e-14          0.1 0.0090301516    102.91197  0.029849753 
number of iterations: 2155 
   28100    73.181761     2434         1820          614 1.8374099e-12 5.8136118e-14          0.1 0.0090305458    104.30963  0.029849096 
number of iterations: 2163 
   28200    73.419931     2468         1846          622 1.8617593e-12 5.8693787e-14          0.1 0.0090309501    105.72585  0.029848423 
number of iterations: 2153 
   28300    73.649277     2489         1864          625 1.8864314e-12 5.9257078e-14          0.1 0.0090313509     107.1609  0.029847755 
number of iterations: 2143 
   28400     73.88247     2516         1882          634 1.9103468e-12 5.9826048e-14          0.1 0.0090317435    108.61417  0.029847101 
number of iterations: 2164 
   28500    74.137667     2549         1908          641 1.9356627e-12 6.0400753e-14          0.1 0.0090321678    110.08675  0.029846394 
number of iterations: 2146 
   28600    74.363479     2574         1929          645 1.9613142e-12 6.098125e-14          0.1 0.0090325889    111.57889  0.029845692 
number of iterations: 2178 
   28700    74.594786     2614         1957          657 1.9873055e-12 6.1567594e-14          0.1 0.0090330325    113.09085  0.029844953 
number of iterations: 2118 
   28800    74.893265     2653         1989          664 2.0136413e-12 6.2159844e-14          0.1 0.0090334009    114.62289  0.029844339 
number of iterations: 2185 
   28900    75.135915     2691         2020          671 2.0403261e-12 6.2758061e-14          0.1 0.0090338529    116.17529  0.029843586 
number of iterations: 2205 
   29000    75.428844     2722         2043          679 2.0673645e-12 6.3362301e-14          0.1 0.0090343017    117.74831  0.029842838 
number of iterations: 2193 
   29100    75.672989     2759         2068          691 2.0947612e-12 6.3972625e-14          0.1 0.0090347812    119.34222  0.029842039 
number of iterations: 2164 
   29200    75.899504     2799         2104          695 2.122521e-12 6.4589094e-14          0.1 0.0090352494    120.95731  0.029841259 
number of iterations: 2188 
   29300    76.156027     2833         2132          701 2.1506486e-12 6.5211767e-14          0.1 0.0090357011    122.59385  0.029840507 
number of iterations: 2193 
   29400    76.403831     2868         2162          706 2.179149e-12 6.5840708e-14          0.1  0.009036195    124.25213  0.029839684 
number of iterations: 2202 
   29500    76.631796     2906         2193          713 2.2071989e-12 6.6475978e-14          0.1 0.0090366381     125.9318  0.029838946 
number of iterations: 2198 
   29600    76.899994     2939         2215          724 2.2364487e-12 6.711764e-14          0.1 0.0090371317    127.63377  0.029838123 
number of iterations: 2185 
   29700    77.132404     2964         2237          727 2.2647366e-12 6.7765757e-14          0.1 0.0090375862    129.35732  0.029837366 
number of iterations: 2191 
   29800    77.374892     3000         2268          732 2.2947488e-12 6.8420394e-14          0.1 0.0090380953    131.10376  0.029836518 
number of iterations: 2184 
   29900    77.606726     3032         2294          738 2.3251588e-12 6.9081615e-14          0.1 0.0090385773     132.8734  0.029835715 
number of iterations: 2196 
   30000    77.865179     3063         2318          745 2.3551653e-12 6.9749485e-14          0.1 0.0090390885    134.66593  0.029834863 
number of iterations: 2193 
   30100      78.1517     3101         2351          750 2.3863758e-12 7.0424068e-14          0.1 0.0090395664    136.48226  0.029834067 
number of iterations: 2206 
   30200     78.40085     3141         2378          763    2.418e-12 7.1105434e-14          0.1 0.0090400775    138.32272  0.029833215 
number of iterations: 2192 
   30300    78.640645     3175         2406          769 2.4500433e-12 7.179365e-14          0.1 0.0090405977    140.18763  0.029832349 
number of iterations: 2207 
   30400    78.926108     3220         2445          775 2.4825112e-12 7.2488784e-14          0.1 0.0090411288     142.0773  0.029831464 
number of iterations: 2247 
   30500    79.155905     3261         2482          779 2.5154093e-12 7.3190904e-14          0.1  0.009041699    143.99208  0.029830514 
number of iterations: 2194 
   30600    79.415971     3292         2506          786 2.5464134e-12 7.3900078e-14          0.1 0.0090421701    145.93049  0.029829729 
number of iterations: 2202 
   30700    79.655052     3333         2541          792 2.5801584e-12 7.4616378e-14          0.1 0.0090427042    147.89466  0.029828839 
number of iterations: 2267 
   30800    79.894032     3376         2570          806 2.612052e-12 7.5339874e-14          0.1 0.0090432483    149.88315  0.029827932 
number of iterations: 2207 
   30900    80.143568     3414         2599          815 2.6458052e-12 7.6070636e-14          0.1 0.0090437933     151.8974  0.029827024 
number of iterations: 2224 
   31000    80.451147     3448         2628          820 2.6796929e-12 7.6808738e-14          0.1  0.009044392     153.9375  0.029826027 
number of iterations: 2227 
   31100    80.852238     3492         2665          827 2.715204e-12 7.7554253e-14          0.1 0.0090449265    156.00469  0.029825136 
number of iterations: 2221 
   31200    81.135118     3535         2702          833 2.7511858e-12 7.8307252e-14          0.1 0.0090454916    158.09934  0.029824195 
number of iterations: 2236 
   31300    81.418537     3578         2733          845 2.7876443e-12 7.9067812e-14          0.1 0.0090461117     160.2218  0.029823162 
number of iterations: 2260 
   31400    81.711301     3624         2772          852 2.824586e-12 7.9836008e-14          0.1 0.0090467324    162.37246  0.029822128 
number of iterations: 2239 
   31500    81.975054     3687         2828          859 2.8620172e-12 8.0611916e-14          0.1 0.0090473386    164.55167  0.029821118 
number of iterations: 2241 
   31600    82.233887     3728         2862          866 2.8999445e-12 8.1395611e-14          0.1 0.0090479576    166.75983  0.029820087 
number of iterations: 2268 
   31700    82.502031     3767         2889          878 2.9373104e-12 8.2187173e-14          0.1 0.0090486073     168.9965  0.029819004 
number of iterations: 2242 
   31800    82.789705     3811         2925          886 2.9762354e-12 8.2986678e-14          0.1 0.0090492232    171.26288  0.029817978 
number of iterations: 2238 
   31900    83.056554     3871         2977          894 3.0156762e-12 8.3794205e-14          0.1 0.0090498558    173.55936  0.029816924 
number of iterations: 2251 
   32000    83.344847     3931         3023          908 3.0546624e-12 8.4609835e-14          0.1 0.0090505147    175.88559  0.029815826 
number of iterations: 2281 
   32100    83.586452     3982         3062          920 3.0937316e-12 8.5433647e-14          0.1 0.0090511532    178.24163  0.029814762 
number of iterations: 2241 
   32200    83.853208     4026         3099          927 3.1347295e-12 8.6265723e-14          0.1 0.0090517877    180.62896  0.029813705 
number of iterations: 2288 
   32300    84.108806     4068         3132          936 3.1762707e-12 8.7106145e-14          0.1 0.0090525026      183.048  0.029812514 
number of iterations: 2307 
   32400    84.366223     4124         3176          948 3.2183623e-12 8.7954999e-14          0.1 0.0090532635    185.49915  0.029811247 
number of iterations: 2252 
   32500    84.625441     4169         3212          957 3.2610117e-12 8.8812363e-14          0.1 0.0090539208    187.98287  0.029810152 
number of iterations: 2309 
   32600    84.891569     4218         3255          963 3.3042263e-12 8.9678324e-14          0.1 0.0090546332    190.49956  0.029808965 
number of iterations: 2286 
   32700    85.205036     4270         3302          968 3.3480136e-12 9.0552968e-14          0.1 0.0090553782    193.04968  0.029807724 
number of iterations: 2277 
   32800    85.459104     4314         3337          977 3.3915827e-12 9.1436382e-14          0.1 0.0090561169    195.63306  0.029806493 
number of iterations: 2259 
   32900    85.698827     4365         3380          985 3.4352159e-12 9.2328652e-14          0.1 0.0090568209    198.24974   0.02980532 
number of iterations: 2265 
   33000    85.960265     4423         3427          996 3.480739e-12 9.3229866e-14          0.1 0.0090575343    200.90118  0.029804131 
number of iterations: 2290 
   33100    86.231706     4474         3472         1002 3.5261058e-12 9.4140115e-14          0.1  0.009058267    203.58725  0.029802911 
number of iterations: 2282 
   33200    86.486089     4518         3509         1009 3.5721428e-12 9.5059488e-14          0.1 0.0090589888    206.30847  0.029801708 
number of iterations: 2306 
   33300    86.765064     4589         3569         1020 3.6194804e-12 9.5988076e-14          0.1 0.0090597924    209.06582   0.02980037 
number of iterations: 2310 
   33400    87.053034     4651         3621         1030 3.6674452e-12 9.6925971e-14          0.1 0.0090605872    211.85981  0.029799045 
number of iterations: 2308 
   33500    87.303123     4710         3670         1040 3.714849e-12 9.7873266e-14          0.1 0.0090614047    214.68997  0.029797684 
number of iterations: 2303 
   33600    87.563371     4774         3724         1050 3.7640777e-12 9.8830053e-14          0.1 0.0090622151    217.55771  0.029796333 
number of iterations: 2284 
   33700    87.846278     4834         3776         1058 3.8121194e-12 9.9796428e-14          0.1 0.0090630006    220.46213  0.029795025 
number of iterations: 2313 
   33800    88.116207     4904         3836         1068 3.8614888e-12 1.0077248e-13          0.1 0.0090638017    223.40423   0.02979369 
number of iterations: 2288 
   33900     88.40899     4960         3881         1079 3.910553e-12 1.0175832e-13          0.1 0.0090645955     226.3838  0.029792368 
number of iterations: 2328 
   34000     88.69319     5023         3932         1091 3.9623751e-12 1.0275403e-13          0.1  0.009065461    229.40292  0.029790926 
number of iterations: 2301 
   34100    88.985866     5069         3971         1098 4.0148839e-12 1.0375971e-13          0.1 0.0090662455    232.46215  0.029789619 
number of iterations: 2309 
   34200     89.25963     5126         4018         1108 4.0671577e-12 1.0477546e-13          0.1 0.0090671031    235.56128   0.02978819 
number of iterations: 2323 
   34300    89.528711     5189         4071         1118 4.1210551e-12 1.058014e-13          0.1 0.0090679678    238.70155   0.02978675 
number of iterations: 2322 
   34400    89.830132     5244         4113         1131 4.1756666e-12 1.068376e-13          0.1 0.0090688535    241.88353  0.029785274 
number of iterations: 2328 
   34500    90.113229     5294         4154         1140 4.2300089e-12 1.0788419e-13          0.1  0.009069752    245.10699  0.029783777 
number of iterations: 2330 
   34600    90.390362     5367         4211         1156 4.285092e-12 1.0894125e-13          0.1 0.0090706755    248.37254  0.029782239 
number of iterations: 2298 
   34700    90.656839     5439         4269         1170 4.3410415e-12 1.100089e-13          0.1 0.0090715344    251.68082  0.029780808 
number of iterations: 2332 
   34800    90.968253     5509         4326         1183 4.3985682e-12 1.1108724e-13          0.1 0.0090724695    255.03302   0.02977925 
number of iterations: 2353 
   34900    91.265925     5570         4377         1193 4.4530302e-12 1.1217638e-13          0.1  0.009073379    258.42681  0.029777735 
number of iterations: 2345 
   35000    91.601958     5649         4443         1206 4.5120409e-12 1.1327643e-13          0.1 0.0090743468    261.86566  0.029776122 
Loop time of 91.602 on 32 procs for 35000 steps with 5649 atoms

Performance: 330123807.347 tau/day, 382.088 timesteps/s
92.1% CPU use with 32 MPI tasks x no OpenMP threads

MPI task timing breakdown:
Section |  min time  |  avg time  |  max time  |%varavg| %total
---------------------------------------------------------------
Pair    | 0.0063743  | 0.078398   | 0.15759    |  15.8 |  0.09
Neigh   | 0.0039118  | 0.025346   | 0.050758   |   8.3 |  0.03
Comm    | 0.044189   | 0.15962    | 0.26799    |  14.0 |  0.17
Output  | 22.066     | 22.066     | 22.073     |   0.0 | 24.09
Modify  | 68.827     | 68.886     | 68.943     |   0.4 | 75.20
Other   |            | 0.3864     |            |       |  0.42

Nlocal:    176.531 ave 352 max 11 min
Histogram: 3 3 4 1 4 7 4 1 2 3
Nghost:    94.3125 ave 185 max 8 min
Histogram: 2 3 5 1 5 6 3 2 4 1
Neighs:    649.906 ave 1388 max 40 min
Histogram: 3 4 3 3 6 4 3 1 3 2

Total # of neighbors = 20797
Ave neighs/atom = 3.68154
Neighbor list builds = 697
Dangerous builds = 0
Total wall time: 0:01:31
