LAMMPS (20 Nov 2019)
Reading data file ...
  orthogonal box = (0 0 0) to (0.0001 0.0001 1e-05)
  8 by 4 by 1 MPI processor grid
  reading atoms ...
  100 atoms
  4 nutrients
Lattice spacing in x,y,z = 100 100 100
50 atoms in group CYANO
50 atoms in group ECW
Model is defined as a closed system. 
Neighbor list info ...
  update every 1 steps, delay 0 steps, check yes
  max neighbors/atom: 5000, page size: 100000
  master list distance cutoff = 2.44e-06
  ghost atom cutoff = 2.44e-06
  binsize = 1.22e-06, bins = 82 82 9
  1 neighbor lists, perpetual/occasional/extra = 1 0 0
  (1) pair gran/hooke/history, perpetual
      attributes: half, newton off, size, history
      pair build: half/size/bin/newtoff
      stencil: half/bin/3d/newtoff
      bin: standard
Setting up Verlet run ...
  Unit style    : lj
  Current step  : 0
  Time step     : 10
Per MPI rank memory allocation (min/avg/max) = 5.794 | 10.73 | 12.11 Mbytes
Step CPU Atoms c_myNtypes[1] c_myNtypes[2] c_myMass[1] c_myMass[2] c_myCon[1] c_myCon[2] c_myCon[3] c_myCon[4] 
       0            0      100           50           50 4.8360386e-14 9.439693e-15          0.1        0.009     3.42e-20       0.0299 
number of iterations: 327351 
     100    15.977183      134           50           84 4.9001268e-14 9.4333463e-15          0.1 0.0090008144  0.038866168  0.029898643 
number of iterations: 5113 
     200    16.356438      151           50          101 4.9650643e-14 9.4287022e-15          0.1 0.0090008251  0.076980566  0.029898626 
number of iterations: 3279 
     300     16.64328      151           50          101 5.0308624e-14 9.4257064e-15          0.1 0.0090008359   0.11555553  0.029898607 
number of iterations: 2527 
     400    16.895444      153           52          101 5.0975325e-14 9.4243414e-15          0.1 0.0090008469   0.15460201  0.029898589 
number of iterations: 2047 
     500    17.200925      153           52          101 5.1650861e-14 9.4245915e-15          0.1  0.009000858   0.19412819   0.02989857 
number of iterations: 1735 
     600    17.420087      157           56          101 5.2335349e-14 9.4264384e-15          0.1  0.009000864   0.23414191   0.02989856 
number of iterations: 1509 
     700    17.620145      158           57          101 5.3028908e-14 9.4298708e-15          0.1 0.0090008754   0.27465075  0.029898541 
number of iterations: 1460 
     800    17.812813      158           57          101 5.3731659e-14 9.4348764e-15          0.1 0.0090008869   0.31566226  0.029898522 
number of iterations: 1508 
     900    18.016051      160           59          101 5.4443722e-14 9.4414416e-15          0.1 0.0090008953   0.35718399  0.029898508 
number of iterations: 1475 
    1000    18.221438      161           60          101 5.5165222e-14 9.4495564e-15          0.1 0.0090009082   0.39922356  0.029898486 
number of iterations: 1469 
    1100     18.40625      161           60          101 5.5896283e-14 9.459211e-15          0.1 0.0090009202   0.44178858  0.029898466 
number of iterations: 1445 
    1200    18.584527      162           61          101 5.6637033e-14 9.4703953e-15          0.1 0.0090009259   0.48488659  0.029898457 
number of iterations: 1511 
    1300    18.772488      163           62          101 5.7387599e-14 9.4831021e-15          0.1 0.0090009412   0.52852542  0.029898431 
number of iterations: 1476 
    1400    19.004703      163           62          101 5.8148112e-14 9.497324e-15          0.1 0.0090009536   0.57271288   0.02989841 
number of iterations: 1468 
    1500    19.210816      165           64          101 5.8918703e-14 9.5130555e-15          0.1 0.0090009662   0.61745678  0.029898389 
number of iterations: 1480 
    1600    19.401545      165           64          101 5.9699506e-14 9.5302894e-15          0.1 0.0090009789   0.66276516  0.029898368 
number of iterations: 1588 
    1700    19.600882      166           65          101 6.0490657e-14 9.5490197e-15          0.1 0.0090009949   0.70864613  0.029898341 
number of iterations: 1486 
    1800    19.824549      167           66          101 6.1292292e-14 9.5692429e-15          0.1 0.0090010081   0.75510785  0.029898319 
number of iterations: 1489 
    1900    20.055315      167           66          101 6.210455e-14 9.5909549e-15          0.1 0.0090010213   0.80215848  0.029898297 
number of iterations: 1464 
    2000    20.253852      168           67          101 6.2927573e-14 9.6141485e-15          0.1 0.0090010348   0.84980645  0.029898274 
number of iterations: 1580 
    2100    20.446171      171           69          102 6.3761502e-14 9.6388254e-15          0.1 0.0090010532   0.89806012  0.029898244 
number of iterations: 1497 
    2200    20.629111      171           69          102 6.4606483e-14 9.6649834e-15          0.1 0.0090010671   0.94692797   0.02989822 
number of iterations: 1518 
    2300    20.836373      172           70          102 6.5462662e-14 9.6926185e-15          0.1 0.0090010812   0.99641839  0.029898197 
number of iterations: 1501 
    2400    21.006274      172           70          102 6.6330187e-14 9.721733e-15          0.1 0.0090010954    1.0465403  0.029898173 
number of iterations: 1504 
    2500    21.227848      173           70          103 6.7209209e-14 9.7523288e-15          0.1 0.0090011099    1.0973025  0.029898149 
number of iterations: 1507 
    2600    21.403482      174           70          104 6.809988e-14 9.7844046e-15          0.1 0.0090011245    1.1487138  0.029898124 
number of iterations: 1510 
    2700    21.595381      176           71          105 6.9002354e-14 9.8179614e-15          0.1 0.0090011394    1.2007834  0.029898099 
number of iterations: 1512 
    2800    21.802938      176           71          105 6.9916787e-14 9.853001e-15          0.1 0.0090011544    1.2535203  0.029898074 
number of iterations: 1515 
    2900    21.997783      177           72          105 7.0843339e-14 9.8895258e-15          0.1 0.0090011697    1.3069337  0.029898049 
number of iterations: 1491 
    3000    22.184195      178           73          105 7.178217e-14 9.9275376e-15          0.1 0.0090011777    1.3610331  0.029898035 
number of iterations: 1518 
    3100    22.374165      178           73          105 7.2733443e-14 9.9670409e-15          0.1 0.0090011933    1.4158278  0.029898009 
number of iterations: 1507 
    3200    22.573829      179           73          106 7.3697321e-14 1.0008041e-14          0.1  0.009001209    1.4713274  0.029897983 
number of iterations: 1498 
    3300    22.758291      181           74          107 7.4673974e-14 1.0050541e-14          0.1 0.0090012238    1.5275416  0.029897958 
number of iterations: 1525 
    3400    22.953505      182           74          108 7.5663569e-14 1.0094546e-14          0.1 0.0090012399    1.5844803  0.029897931 
number of iterations: 1542 
    3500    23.144055      184           75          109 7.6666278e-14 1.0140058e-14          0.1 0.0090012563    1.6421534  0.029897904 
number of iterations: 1530 
    3600    23.326017      184           75          109 7.7682276e-14 1.0187088e-14          0.1 0.0090012729    1.7005708  0.029897876 
number of iterations: 1533 
    3700    23.514353      184           75          109 7.8711738e-14 1.0235642e-14          0.1 0.0090012897    1.7597428  0.029897848 
number of iterations: 1536 
    3800    23.719149      186           75          111 7.9754842e-14 1.0285727e-14          0.1 0.0090013068    1.8196796   0.02989782 
number of iterations: 1593 
    3900    23.925013      189           77          112 8.081177e-14 1.0337347e-14          0.1 0.0090013254    1.8803918  0.029897788 
number of iterations: 1541 
    4000    24.139838      189           77          112 8.1882704e-14 1.0390515e-14          0.1 0.0090013429    1.9418897  0.029897759 
number of iterations: 1544 
    4100    24.334675      190           78          112 8.2967831e-14 1.0445238e-14          0.1 0.0090013606    2.0041841  0.029897729 
number of iterations: 1547 
    4200    24.533884      192           79          113 8.4067338e-14 1.0501528e-14          0.1 0.0090013786    2.0672857  0.029897699 
number of iterations: 1550 
    4300    24.745165      192           79          113 8.5181416e-14 1.0559393e-14          0.1 0.0090013968    2.1312055  0.029897669 
number of iterations: 1533 
    4400    24.956941      193           80          113 8.6310257e-14 1.0618843e-14          0.1 0.0090014153    2.1959546  0.029897638 
number of iterations: 1559 
    4500    25.253231      198           84          114 8.7454059e-14 1.0679886e-14          0.1 0.0090014306     2.261544  0.029897613 
number of iterations: 1556 
    4600    25.445796      201           85          116 8.8613018e-14 1.0742538e-14          0.1 0.0090014431    2.3279851  0.029897592 
number of iterations: 1560 
    4700    25.617655      203           85          118 8.9787336e-14 1.0806809e-14          0.1 0.0090014621    2.3952897   0.02989756 
number of iterations: 1767 
    4800    25.830417      208           90          118 9.0977216e-14 1.0872714e-14          0.1 0.0090014914    2.4634693  0.029897511 
number of iterations: 1623 
    4900    26.033408      211           92          119 9.2182865e-14 1.0940264e-14          0.1 0.0090015187    2.5325357  0.029897465 
number of iterations: 1610 
    5000    26.241315      214           94          120 9.3404491e-14 1.1009473e-14          0.1 0.0090015398     2.602501   0.02989743 
number of iterations: 1563 
    5100    26.430085      215           95          120 9.4642307e-14 1.1080356e-14          0.1 0.0090015601    2.6733773  0.029897396 
number of iterations: 1576 
    5200    26.616869      216           95          121 9.5896526e-14 1.1152926e-14          0.1 0.0090015808    2.7451767  0.029897362 
number of iterations: 1578 
    5300     26.79265      217           95          122 9.7167367e-14 1.1227199e-14          0.1 0.0090016017    2.8179114  0.029897327 
number of iterations: 1641 
    5400    26.966283      220           97          123 9.8455049e-14 1.1303187e-14          0.1 0.0090016239    2.8915941   0.02989729 
number of iterations: 1621 
    5500    27.207054      223          100          123 9.9759795e-14 1.1380908e-14          0.1 0.0090016489    2.9662372  0.029897248 
number of iterations: 1521 
    5600    27.364453      225          101          124 1.0108183e-13 1.1460377e-14          0.1 0.0090016629    3.0418538  0.029897224 
number of iterations: 1584 
    5700    27.555579      227          102          125 1.0242139e-13 1.154161e-14          0.1  0.009001682    3.1184571  0.029897192 
number of iterations: 1622 
    5800    27.745198      230          105          125 1.037787e-13 1.1624626e-14          0.1 0.0090017058    3.1960601  0.029897153 
number of iterations: 1662 
    5900    27.920252      233          107          126  1.05154e-13 1.1709444e-14          0.1 0.0090017257    3.2746763  0.029897119 
number of iterations: 1725 
    6000    28.113668      235          108          127 1.0654752e-13 1.1796081e-14          0.1 0.0090017537    3.3543191  0.029897073 
number of iterations: 1748 
    6100    28.320242      240          112          128 1.0795951e-13 1.1884558e-14          0.1 0.0090017871    3.4350023  0.029897017 
number of iterations: 1605 
    6200    28.516584      240          112          128 1.0939021e-13 1.1974893e-14          0.1 0.0090018107    3.5167398  0.029896977 
number of iterations: 1608 
    6300    28.708939      240          112          128 1.1083987e-13 1.2067105e-14          0.1 0.0090018347    3.5995457  0.029896937 
number of iterations: 1583 
    6400    28.892698      242          113          129 1.1230874e-13 1.2161216e-14          0.1 0.0090018545    3.6834342  0.029896904 
number of iterations: 1613 
    6500    29.065698      244          113          131 1.1379708e-13 1.2257245e-14          0.1 0.0090018791    3.7684197  0.029896863 
number of iterations: 1616 
    6600    29.255013      245          114          131 1.1530514e-13 1.2355214e-14          0.1  0.009001904    3.8545169  0.029896822 
number of iterations: 1651 
    6700    29.450759      246          115          131 1.1683319e-13 1.2455147e-14          0.1 0.0090019305    3.9417408  0.029896777 
number of iterations: 1594 
    6800     29.64085      252          116          136 1.1838149e-13 1.2557065e-14          0.1 0.0090019524     4.030106  0.029896741 
number of iterations: 1646 
    6900    29.831936      254          118          136 1.199503e-13 1.266099e-14          0.1 0.0090019796    4.1196278  0.029896695 
number of iterations: 1627 
    7000     30.02341      257          119          138 1.2153991e-13 1.2766948e-14          0.1 0.0090020058    4.2103215  0.029896651 
number of iterations: 1630 
    7100    30.228093      257          119          138 1.2315058e-13 1.2874961e-14          0.1 0.0090020323    4.3022031  0.029896607 
number of iterations: 1607 
    7200    30.407406      263          124          139 1.247826e-13 1.2985054e-14          0.1 0.0090020504    4.3952877  0.029896577 
number of iterations: 1665 
    7300    30.615578      266          126          140 1.2643624e-13 1.3097253e-14          0.1 0.0090020842    4.4895915   0.02989652 
number of iterations: 1723 
    7400    30.820803      269          128          141 1.281118e-13 1.3211583e-14          0.1 0.0090021134    4.5851308  0.029896472 
number of iterations: 1641 
    7500    31.003777      271          129          142 1.2980956e-13 1.3328073e-14          0.1 0.0090021397    4.6819221  0.029896428 
number of iterations: 1627 
    7600    31.173349      274          130          144 1.3152982e-13 1.3446748e-14          0.1 0.0090021666    4.7799817  0.029896383 
number of iterations: 1690 
    7700    31.363902      278          133          145 1.3327288e-13 1.3567643e-14          0.1 0.0090022012    4.8793265  0.029896325 
number of iterations: 1633 
    7800    31.547636      282          135          147 1.3503904e-13 1.3690777e-14          0.1 0.0090022227    4.9799737  0.029896289 
number of iterations: 1665 
    7900    31.784613      283          135          148 1.3682861e-13 1.3816182e-14          0.1 0.0090022548    5.0819407  0.029896235 
number of iterations: 1656 
    8000    31.958449      287          138          149 1.3864189e-13 1.3943888e-14          0.1  0.009002284     5.185245  0.029896187 
number of iterations: 1679 
    8100    32.170833      291          141          150 1.404792e-13 1.4073925e-14          0.1 0.0090023128    5.2899042  0.029896138 
number of iterations: 1661 
    8200    32.376785      294          142          152 1.4234085e-13 1.4206323e-14          0.1 0.0090023398    5.3959363  0.029896093 
number of iterations: 1664 
    8300    32.588098      296          143          153 1.4422718e-13 1.4341115e-14          0.1 0.0090023731    5.5033595  0.029896038 
number of iterations: 1686 
    8400    32.780322      300          146          154 1.4613851e-13 1.4478331e-14          0.1 0.0090024058    5.6121923  0.029895983 
number of iterations: 1663 
    8500    32.975402      302          147          155 1.4807517e-13 1.4618002e-14          0.1 0.0090024377    5.7224532   0.02989593 
number of iterations: 1740 
    8600    33.169809      308          150          158 1.5003749e-13 1.4760164e-14          0.1 0.0090024756     5.834161  0.029895866 
number of iterations: 1685 
    8700    33.366937      311          152          159 1.5202581e-13 1.4904852e-14          0.1 0.0090025102    5.9473354  0.029895809 
number of iterations: 1610 
    8800    33.541803      317          157          160 1.5404049e-13 1.5052102e-14          0.1 0.0090025337    6.0619959  0.029895769 
number of iterations: 1682 
    8900    33.732824      318          157          161 1.5608187e-13 1.5201945e-14          0.1 0.0090025672    6.1781617  0.029895713 
number of iterations: 1763 
    9000    33.942367      320          159          161 1.5815029e-13 1.5354419e-14          0.1 0.0090026074    6.2958526  0.029895646 
number of iterations: 1688 
    9100    34.192146      327          163          164 1.6024613e-13 1.5509556e-14          0.1 0.0090026341    6.4150889  0.029895601 
number of iterations: 1689 
    9200    34.374158      329          164          165 1.6236974e-13 1.5667396e-14          0.1  0.009002669     6.535891  0.029895543 
number of iterations: 1691 
    9300    34.565252      331          164          167 1.645215e-13 1.5827977e-14          0.1 0.0090027043    6.6582795  0.029895484 
number of iterations: 1694 
    9400    34.772553      335          166          169 1.6670177e-13 1.5991338e-14          0.1 0.0090027385    6.7822754  0.029895427 
number of iterations: 1745 
    9500    35.007114      339          168          171 1.6891093e-13 1.6157517e-14          0.1 0.0090027811    6.9078999  0.029895356 
number of iterations: 1756 
    9600    35.197657      342          171          171 1.7114938e-13 1.6326555e-14          0.1 0.0090028193    7.0351748  0.029895292 
number of iterations: 1718 
    9700    35.401397      347          174          173 1.7341748e-13 1.6498492e-14          0.1 0.0090028582    7.1641216  0.029895227 
number of iterations: 1668 
    9800    35.602532      348          174          174 1.7571564e-13 1.6673372e-14          0.1 0.0090028876    7.2947624  0.029895178 
number of iterations: 1709 
    9900    35.787936      350          174          176 1.7804426e-13 1.6851236e-14          0.1 0.0090029258    7.4271197  0.029895114 
number of iterations: 1644 
   10000    35.965817      353          176          177 1.8040374e-13 1.7032126e-14          0.1  0.009002958    7.5612159   0.02989506 
number of iterations: 1713 
   10100    36.173788      357          178          179 1.8279448e-13 1.7216088e-14          0.1 0.0090029985    7.6970742  0.029894992 
number of iterations: 1716 
   10200    36.398099      359          179          180 1.8521691e-13 1.7403166e-14          0.1 0.0090030382    7.8347178  0.029894926 
number of iterations: 1716 
   10300    36.595224      364          181          183 1.8767144e-13 1.7593405e-14          0.1 0.0090030775    7.9741701  0.029894861 
number of iterations: 1691 
   10400    36.779464      367          181          186 1.901585e-13 1.7786852e-14          0.1 0.0090030992     8.115455  0.029894824 
number of iterations: 1695 
   10500    36.991646      370          183          187 1.9267851e-13 1.7983552e-14          0.1 0.0090031354    8.2585967  0.029894764 
number of iterations: 1710 
   10600    37.175953      379          184          195 1.9523192e-13 1.8183555e-14          0.1 0.0090031702    8.4036197  0.029894706 
number of iterations: 1731 
   10700    37.387959      382          186          196 1.9781917e-13 1.8386908e-14          0.1 0.0090032188    8.5505488  0.029894624 
number of iterations: 1798 
   10800    37.594232      385          188          197 2.0044071e-13 1.8593662e-14          0.1 0.0090032754     8.699409   0.02989453 
number of iterations: 1753 
   10900    37.784987      391          190          201 2.0309699e-13 1.8803869e-14          0.1 0.0090033176    8.8502259  0.029894459 
number of iterations: 1734 
   11000    37.988041      395          191          204 2.0578847e-13 1.9017579e-14          0.1 0.0090033616    9.0030253  0.029894386 
number of iterations: 1709 
   11100    38.215854      402          196          206 2.0851562e-13 1.9234844e-14          0.1 0.0090033998    9.1578334  0.029894322 
number of iterations: 1756 
   11200    38.404977      417          209          208 2.112789e-13 1.9455716e-14          0.1 0.0090034421    9.3146762  0.029894251 
number of iterations: 1759 
   11300    38.590565      423          213          210 2.1407881e-13 1.968025e-14          0.1  0.009003483    9.4735808  0.029894183 
number of iterations: 1729 
   11400    38.788911      426          213          213 2.1691582e-13 1.9908503e-14          0.1  0.009003525    9.6345744  0.029894113 
number of iterations: 1717 
   11500    38.971203      432          217          215 2.1979043e-13 2.0140529e-14          0.1 0.0090035623    9.7976844   0.02989405 
number of iterations: 1747 
   11600    39.308075      440          221          219 2.2270314e-13 2.0376388e-14          0.1 0.0090036037     9.962939  0.029893981 
number of iterations: 1712 
   11700    39.496253      446          225          221 2.2565444e-13 2.0616139e-14          0.1 0.0090036503    10.130366  0.029893903 
number of iterations: 1781 
   11800    39.722795      454          229          225 2.2864485e-13 2.0859836e-14          0.1 0.0090036921    10.299995  0.029893833 
number of iterations: 1804 
   11900    39.923306      457          230          227 2.316749e-13 2.1107542e-14          0.1 0.0090037423    10.471854  0.029893749 
number of iterations: 1849 
   12000     40.12344      463          234          229 2.347451e-13 2.1359315e-14          0.1 0.0090038028    10.645972  0.029893648 
number of iterations: 1838 
   12100     40.35313      470          239          231 2.3785598e-13 2.1615221e-14          0.1 0.0090038483    10.822379  0.029893572 
number of iterations: 1762 
   12200    40.540442      479          246          233 2.4100809e-13 2.1875321e-14          0.1 0.0090038866    11.001106  0.029893508 
number of iterations: 1771 
   12300    40.735538      482          247          235 2.4420197e-13 2.213968e-14          0.1 0.0090039369    11.182183  0.029893424 
number of iterations: 1836 
   12400    40.924052      488          250          238 2.4743818e-13 2.2408362e-14          0.1 0.0090039946     11.36564  0.029893327 
number of iterations: 1867 
   12500    41.120547      498          255          243 2.5071728e-13 2.2681433e-14          0.1 0.0090040541    11.551509  0.029893228 
number of iterations: 1830 
   12600    41.319435      502          258          244 2.5403983e-13 2.2958961e-14          0.1 0.0090041031    11.739821  0.029893146 
number of iterations: 1818 
   12700    41.499346      507          261          246 2.5740641e-13 2.3241017e-14          0.1 0.0090041621     11.93061  0.029893047 
number of iterations: 1786 
   12800    41.739391      511          263          248 2.6081761e-13 2.3527669e-14          0.1 0.0090042172    12.123907  0.029892955 
number of iterations: 1812 
   12900    41.964011      519          266          253 2.6427401e-13 2.3818991e-14          0.1 0.0090042742    12.319746   0.02989286 
number of iterations: 1833 
   13000    42.163843      528          269          259 2.6777622e-13 2.4115052e-14          0.1 0.0090043309     12.51816  0.029892765 
number of iterations: 1840 
   13100    42.372786      537          276          261 2.7132483e-13 2.4415928e-14          0.1 0.0090044001    12.719182   0.02989265 
number of iterations: 1853 
   13200    42.597545      546          280          266 2.7492048e-13 2.4721694e-14          0.1 0.0090044572    12.922848  0.029892554 
number of iterations: 1805 
   13300    42.791267      553          282          271 2.7856378e-13 2.5032426e-14          0.1 0.0090045107    13.129192  0.029892465 
number of iterations: 1858 
   13400    42.998788      557          283          274 2.8225535e-13 2.5348203e-14          0.1 0.0090045748    13.338249  0.029892358 
number of iterations: 1825 
   13500    43.189493      561          285          276 2.8599585e-13  2.56691e-14          0.1 0.0090046434    13.550055  0.029892243 
number of iterations: 1804 
   13600    43.389908      567          287          280 2.8978592e-13 2.5995197e-14          0.1 0.0090046985    13.764645  0.029892151 
number of iterations: 1786 
   13700    43.577866      575          293          282 2.9362621e-13 2.6326574e-14          0.1  0.009004759    13.982057   0.02989205 
number of iterations: 1882 
   13800    43.786714      578          295          283 2.975174e-13 2.6663315e-14          0.1 0.0090048239    14.202328  0.029891941 
number of iterations: 1781 
   13900    44.007256      586          298          288 3.0146015e-13 2.7005505e-14          0.1   0.00900488    14.425496  0.029891847 
number of iterations: 1860 
   14000    44.503399      597          303          294 3.0545515e-13 2.7353227e-14          0.1 0.0090049433    14.651598  0.029891741 
number of iterations: 1791 
   14100    44.698167      601          304          297 3.095031e-13 2.7706569e-14          0.1 0.0090050045    14.880673  0.029891639 
number of iterations: 1829 
   14200    44.898453      605          306          299 3.1360469e-13 2.8065618e-14          0.1 0.0090050719     15.11276  0.029891527 
number of iterations: 1918 
   14300    45.155095      614          311          303 3.1776063e-13 2.8430467e-14          0.1 0.0090051487    15.347898  0.029891398 
number of iterations: 1873 
   14400     45.37315      620          315          305 3.2197165e-13 2.8801205e-14          0.1 0.0090052242    15.586127  0.029891272 
number of iterations: 1800 
   14500    45.584811      627          317          310 3.2623847e-13 2.9177925e-14          0.1  0.009005288    15.827489  0.029891165 
number of iterations: 1834 
   14600      45.8267      637          320          317 3.3056184e-13 2.956072e-14          0.1 0.0090053647    16.072024  0.029891037 
number of iterations: 1829 
   14700    46.026439      647          327          320 3.349425e-13 2.9949688e-14          0.1 0.0090054308    16.319773  0.029890927 
number of iterations: 1910 
   14800     46.21917      656          333          323 3.3938121e-13 3.0344926e-14          0.1 0.0090054958     16.57078  0.029890818 
number of iterations: 1843 
   14900    46.413235      661          335          326 3.4387875e-13 3.0746532e-14          0.1 0.0090055643    16.825086  0.029890703 
number of iterations: 1811 
   15000    46.621079      667          340          327 3.4843589e-13 3.1154608e-14          0.1  0.009005622    17.082736  0.029890607 
number of iterations: 1895 
   15100    46.833784      677          346          331 3.5305342e-13 3.1569258e-14          0.1 0.0090057133    17.343773  0.029890454 
number of iterations: 1904 
   15200    47.025062      684          350          334 3.5773214e-13 3.1990584e-14          0.1 0.0090058024    17.608242  0.029890305 
number of iterations: 1869 
   15300    47.232485      699          358          341 3.6247287e-13 3.2418691e-14          0.1 0.0090058825    17.876188  0.029890172 
number of iterations: 1861 
   15400    47.439174      708          360          348 3.6727642e-13 3.2853687e-14          0.1 0.0090059512    18.147657  0.029890057 
number of iterations: 1868 
   15500    47.645126      719          364          355 3.7214363e-13 3.3295681e-14          0.1  0.009006036    18.422694  0.029889915 
number of iterations: 1857 
   15600    47.834258      724          366          358 3.7707534e-13 3.3744782e-14          0.1 0.0090061123    18.701346  0.029889787 
number of iterations: 1877 
   15700    48.031399      737          372          365 3.820724e-13 3.4201104e-14          0.1 0.0090061957    18.983661  0.029889648 
number of iterations: 1885 
   15800    48.239676      746          377          369 3.8713569e-13 3.4664763e-14          0.1 0.0090062836    19.269687  0.029889501 
number of iterations: 1875 
   15900    48.443293      754          378          376 3.9226607e-13 3.5135874e-14          0.1 0.0090063639    19.559472  0.029889367 
number of iterations: 1864 
   16000    48.707134      761          380          381 3.9746444e-13 3.5614555e-14          0.1 0.0090064481    19.853067  0.029889226 
number of iterations: 1885 
   16100    48.905916      774          388          386 4.0273171e-13 3.6100927e-14          0.1 0.0090065363    20.150521  0.029889078 
number of iterations: 1880 
   16200    49.133231      784          394          390 4.0806877e-13 3.6595115e-14          0.1 0.0090066273    20.451884  0.029888926 
number of iterations: 1911 
   16300    49.469552      796          400          396 4.1347656e-13 3.7097241e-14          0.1 0.0090067131    20.757208  0.029888783 
number of iterations: 1894 
   16400    49.666546      811          411          400 4.1895602e-13 3.7607434e-14          0.1 0.0090068012    21.066544  0.029888636 
number of iterations: 1922 
   16500    49.878639      819          417          402 4.2450809e-13 3.8125821e-14          0.1 0.0090068797    21.379946  0.029888504 
number of iterations: 1890 
   16600    50.100101      833          427          406 4.3013374e-13 3.8652532e-14          0.1 0.0090069717    21.697467   0.02988835 
number of iterations: 1933 
   16700    50.316043      847          432          415 4.3583394e-13  3.91877e-14          0.1 0.0090070589    22.019161  0.029888204 
number of iterations: 1896 
   16800    50.521703      856          438          418 4.4160968e-13 3.973146e-14          0.1 0.0090071527    22.345082  0.029888048 
number of iterations: 1910 
   16900    50.742214      865          442          423 4.4746196e-13 4.0283951e-14          0.1 0.0090072434    22.675287  0.029887896 
number of iterations: 1879 
   17000    50.938075      882          451          431 4.5339179e-13 4.0845311e-14          0.1 0.0090073378     23.00983  0.029887738 
number of iterations: 1952 
   17100    51.155142      893          455          438 4.5940021e-13 4.1415682e-14          0.1 0.0090074299     23.34877  0.029887584 
number of iterations: 1933 
   17200    51.393234      906          461          445 4.6548825e-13 4.1995208e-14          0.1 0.0090075243    23.692165  0.029887426 
number of iterations: 1913 
   17300    51.599424      917          466          451 4.7165697e-13 4.2584036e-14          0.1 0.0090076247    24.040071  0.029887258 
number of iterations: 1943 
   17400    51.828924      933          474          459 4.7790744e-13 4.3182314e-14          0.1 0.0090077264     24.39255  0.029887088 
number of iterations: 1880 
   17500    52.037421      947          482          465 4.8424074e-13 4.3790194e-14          0.1 0.0090078215    24.749659  0.029886929 
number of iterations: 1968 
   17600    52.284927      966          492          474 4.9065797e-13 4.4407828e-14          0.1 0.0090079364    25.111461  0.029886737 
number of iterations: 1931 
   17700    52.526873      977          497          480 4.9716024e-13 4.5035374e-14          0.1 0.0090080442    25.478015  0.029886557 
number of iterations: 1963 
   17800    52.733864      985          501          484 5.0374868e-13 4.5672987e-14          0.1 0.0090081481    25.849386  0.029886383 
number of iterations: 1919 
   17900    52.974552      996          504          492 5.1042443e-13 4.6320833e-14          0.1 0.0090082549    26.225636  0.029886204 
number of iterations: 1926 
   18000    53.189708     1008          510          498 5.1718865e-13 4.6979072e-14          0.1  0.009008361    26.606829  0.029886027 
number of iterations: 1936 
   18100    53.416484     1027          520          507 5.2404251e-13 4.7647876e-14          0.1 0.0090084639     26.99303  0.029885855 
number of iterations: 1905 
   18200    53.621993     1042          527          515 5.309872e-13 4.8327411e-14          0.1 0.0090085604    27.384305  0.029885693 
number of iterations: 1956 
   18300    53.829917     1054          537          517 5.3802391e-13 4.9017852e-14          0.1 0.0090086703     27.78072   0.02988551 
number of iterations: 1925 
   18400    54.038892     1068          542          526 5.4515388e-13 4.9719371e-14          0.1 0.0090087671    28.182343  0.029885347 
number of iterations: 1962 
   18500    54.435476     1083          550          533 5.5237834e-13 5.0432146e-14          0.1   0.00900889    28.589242  0.029885142 
number of iterations: 1921 
   18600     54.64258     1098          555          543 5.5969853e-13 5.1156359e-14          0.1 0.0090090003    29.001484  0.029884957 
number of iterations: 1950 
   18700    54.862057     1113          562          551 5.6711574e-13 5.1892194e-14          0.1 0.0090091193    29.419142  0.029884758 
number of iterations: 1917 
   18800    55.135283     1135          577          558 5.7463123e-13 5.2639839e-14          0.1 0.0090092204    29.842286  0.029884589 
number of iterations: 1961 
   18900    55.348156     1149          584          565 5.8224633e-13 5.3399482e-14          0.1  0.009009347    30.270986  0.029884378 
number of iterations: 1987 
   19000    55.567242     1163          587          576 5.8996233e-13 5.4171315e-14          0.1 0.0090094857    30.705318  0.029884146 
number of iterations: 1947 
   19100    55.794782     1178          593          585 5.977806e-13 5.4955538e-14          0.1 0.0090096087    31.145353   0.02988394 
number of iterations: 1924 
   19200    55.996386     1188          598          590 6.0570247e-13 5.5752348e-14          0.1  0.009009721    31.591169  0.029883752 
number of iterations: 1962 
   19300    56.212117     1207          607          600 6.1372932e-13 5.6561947e-14          0.1 0.0090098424    32.042839  0.029883549 
number of iterations: 1995 
   19400    56.431573     1222          614          608 6.2186254e-13 5.7384543e-14          0.1 0.0090099639     32.50044  0.029883346 
number of iterations: 1985 
   19500    56.667464     1242          622          620 6.3010354e-13 5.8220343e-14          0.1 0.0090100903     32.96405  0.029883134 
number of iterations: 1983 
   19600    56.883308     1258          629          629 6.3845376e-13 5.9069561e-14          0.1 0.0090102261    33.433747  0.029882907 
number of iterations: 1992 
   19700    57.119422     1276          635          641 6.4691463e-13 5.993241e-14          0.1 0.0090103827    33.909612  0.029882645 
number of iterations: 1972 
   19800    57.333879     1297          645          652 6.5548763e-13 6.0809112e-14          0.1 0.0090105007    34.391725  0.029882448 
number of iterations: 2007 
   19900    57.554472     1321          658          663 6.6417424e-13 6.169989e-14          0.1 0.0090106323    34.880168  0.029882227 
number of iterations: 1977 
   20000    57.805993     1342          666          676 6.7297596e-13 6.260497e-14          0.1 0.0090107679    35.375025  0.029882001 
number of iterations: 2007 
   20100    58.029771     1360          674          686 6.8189432e-13 6.3524581e-14          0.1 0.0090108916    35.876379  0.029881793 
number of iterations: 1977 
   20200    58.236573     1370          678          692 6.9093087e-13 6.4458962e-14          0.1 0.0090110395    36.384315  0.029881546 
number of iterations: 1977 
   20300    58.449791     1388          687          701 7.0008717e-13 6.5408349e-14          0.1 0.0090111692    36.898921  0.029881329 
number of iterations: 2009 
   20400    58.714319     1404          696          708 7.0936481e-13 6.6372984e-14          0.1 0.0090113262    37.420283  0.029881066 
number of iterations: 2009 
   20500    58.937237     1424          705          719 7.187654e-13 6.7353113e-14          0.1 0.0090114852    37.948489    0.0298808 
number of iterations: 2021 
   20600    59.160752     1439          711          728 7.2829057e-13 6.8348983e-14          0.1  0.009011642    38.483629  0.029880538 
number of iterations: 1981 
   20700      59.5294     1459          721          738 7.3794196e-13 6.9360851e-14          0.1 0.0090118009    39.025794  0.029880272 
number of iterations: 2025 
   20800    59.757069     1483          736          747 7.4772126e-13 7.0388972e-14          0.1 0.0090119567    39.575076  0.029880012 
number of iterations: 1985 
   20900    59.974573     1506          742          764 7.5763015e-13 7.1433611e-14          0.1 0.0090121169    40.131567  0.029879744 
number of iterations: 2001 
   21000    60.191681     1520          751          769 7.6767035e-13 7.2495034e-14          0.1 0.0090122631    40.695363  0.029879499 
number of iterations: 2018 
   21100    60.418872     1544          760          784 7.7784361e-13 7.3573512e-14          0.1 0.0090124253    41.266559  0.029879228 
number of iterations: 2026 
   21200    60.633402     1557          767          790 7.8815168e-13 7.4669321e-14          0.1 0.0090125918    41.845251  0.029878949 
number of iterations: 2051 
   21300    60.863442     1582          782          800 7.9859635e-13 7.5782744e-14          0.1 0.0090127697    42.431538  0.029878652 
number of iterations: 2033 
   21400    61.110223     1613          795          818 8.0917944e-13 7.6914062e-14          0.1 0.0090129382    43.025519   0.02987837 
number of iterations: 2048 
   21500     61.34054     1636          803          833 8.1990278e-13 7.8063564e-14          0.1 0.0090131432    43.627296  0.029878027 
number of iterations: 2030 
   21600    61.552022     1657          814          843 8.3076822e-13 7.9231544e-14          0.1 0.0090133077    44.236968  0.029877752 
number of iterations: 2081 
   21700    61.838123     1670          819          851 8.4177765e-13 8.0418298e-14          0.1 0.0090135162     44.85464  0.029877403 
number of iterations: 2032 
   21800     62.06982     1708          835          873 8.5293297e-13 8.1624133e-14          0.1 0.0090137028    45.480417  0.029877091 
number of iterations: 2046 
   21900    62.315418     1729          844          885 8.6423613e-13 8.2849358e-14          0.1 0.0090138893    46.114405  0.029876779 
number of iterations: 2026 
   22000    62.541414     1754          859          895 8.7568907e-13 8.4094284e-14          0.1  0.009014052    46.756711  0.029876506 
number of iterations: 2059 
   22100    62.761392     1771          866          905 8.8729379e-13 8.5359232e-14          0.1 0.0090142457    47.407444  0.029876182 
number of iterations: 2078 
   22200    62.987642     1801          883          918 8.990523e-13 8.6644526e-14          0.1 0.0090144446    48.066716  0.029875849 
number of iterations: 2032 
   22300    63.206796     1823          890          933 9.1096663e-13 8.7950491e-14          0.1 0.0090146237    48.734636   0.02987555 
number of iterations: 2067 
   22400    63.449587     1852          908          944 9.2303885e-13 8.9277464e-14          0.1 0.0090148162     49.41132  0.029875228 
number of iterations: 2051 
   22500    63.696995     1877          923          954 9.3527105e-13 9.0625784e-14          0.1 0.0090150323     50.09688  0.029874866 
number of iterations: 2081 
   22600    63.922782     1905          933          972 9.4766535e-13 9.1995796e-14          0.1 0.0090152392    50.791432   0.02987452 
number of iterations: 2066 
   22700    64.157221     1937          946          991 9.6022389e-13 9.3387851e-14          0.1 0.0090154332    51.495094  0.029874195 
number of iterations: 2075 
   22800    64.572852     1957          962          995 9.7294887e-13 9.4802303e-14          0.1 0.0090156616    52.207988  0.029873813 
number of iterations: 2055 
   22900    64.810239     1995          978         1017 9.8584247e-13 9.6239517e-14          0.1 0.0090158522    52.930233  0.029873494 
number of iterations: 2068 
   23000    65.081156     2026          992         1034 9.9890695e-13 9.7699861e-14          0.1 0.0090160662    53.661951  0.029873136 
number of iterations: 2120 
   23100    65.350024     2054         1006         1048 1.0121445e-12 9.9183711e-14          0.1  0.009016281    54.403266  0.029872777 
number of iterations: 2067 
   23200    65.582809     2091         1020         1071 1.0255576e-12 1.0069145e-13          0.1 0.0090164929    55.154302  0.029872422 
number of iterations: 2070 
   23300    65.837887     2113         1029         1084 1.0391483e-12 1.0222345e-13          0.1 0.0090167065    55.915188  0.029872064 
number of iterations: 2061 
   23400    66.067528     2145         1040         1105 1.0529192e-12 1.0378012e-13          0.1  0.009016912    56.686052   0.02987172 
number of iterations: 2088 
   23500    66.311055     2176         1059         1117 1.0668726e-12 1.0536185e-13          0.1  0.009017141    57.467023  0.029871337 
number of iterations: 2130 
   23600    66.537112     2213         1075         1138 1.0798842e-12 1.0696906e-13          0.1 0.0090173743    58.257372  0.029870947 
number of iterations: 2104 
   23700    66.779235     2244         1087         1157 1.0941949e-12 1.0860214e-13          0.1   0.00901761    59.058085  0.029870552 
number of iterations: 2089 
   23800    67.001664     2273         1103         1170 1.1086953e-12 1.1026152e-13          0.1 0.0090178332    59.869295  0.029870179 
number of iterations: 2098 
   23900     67.23472     2309         1117         1192 1.1233878e-12 1.1194763e-13          0.1 0.0090180854    60.691142  0.029869756 
number of iterations: 2101 
   24000    67.471223     2340         1131         1209 1.138275e-12 1.1366089e-13          0.1 0.0090183241    61.523765  0.029869357 
number of iterations: 2124 
   24100    67.746148     2366         1143         1223 1.1533595e-12 1.1540175e-13          0.1 0.0090185645    62.367305  0.029868955 
number of iterations: 2120 
   24200    67.976463     2396         1156         1240 1.1686439e-12 1.1717066e-13          0.1 0.0090188254    63.221902  0.029868518 
number of iterations: 2115 
   24300    68.238633     2428         1169         1259 1.1841309e-12 1.1896807e-13          0.1  0.009019088    64.087702  0.029868079 
number of iterations: 2128 
   24400    68.463555     2475         1193         1282 1.1986796e-12 1.2079444e-13          0.1 0.0090193102    64.963975  0.029867706 
number of iterations: 2085 
   24500    68.697313     2514         1209         1305 1.2145646e-12 1.2265023e-13          0.1   0.00901956    65.851735  0.029867288 
number of iterations: 2125 
   24600    68.950589     2549         1220         1329 1.2306601e-12 1.2453593e-13          0.1  0.009019843     66.75113  0.029866815 
number of iterations: 2125 
   24700    69.184097     2579         1234         1345 1.2469689e-12 1.2645202e-13          0.1 0.0090200963    67.662313  0.029866391 
number of iterations: 2092 
   24800    69.628498     2608         1244         1364 1.2624359e-12 1.2839899e-13          0.1 0.0090203347     68.58463  0.029865991 
number of iterations: 2143 
   24900    69.866378     2644         1257         1387 1.2791658e-12 1.3037735e-13          0.1 0.0090206217    69.519035  0.029865511 
number of iterations: 2084 
   25000    70.114901     2681         1273         1408 1.2949922e-12 1.3238759e-13          0.1 0.0090208569    70.464823  0.029865117 
number of iterations: 2148 
   25100    70.377657     2719         1288         1431 1.3121535e-12 1.3443024e-13          0.1 0.0090211329    71.423005  0.029864655 
number of iterations: 2094 
   25200    70.623995     2766         1304         1462 1.3295423e-12 1.3650582e-13          0.1 0.0090214022    72.393746  0.029864204 
number of iterations: 2139 
   25300    70.863071     2814         1326         1488 1.3471614e-12 1.3861487e-13          0.1   0.00902165    73.377206  0.029863789 
number of iterations: 2169 
   25400     71.12708     2843         1338         1505 1.3650141e-12 1.4075793e-13          0.1  0.009021977    74.373552  0.029863242 
number of iterations: 2163 
   25500    71.365357     2884         1360         1524 1.3831033e-12 1.4293555e-13          0.1  0.009022272    75.382953  0.029862748 
number of iterations: 2170 
   25600    71.608059     2920         1375         1545 1.4014323e-12 1.4514829e-13          0.1 0.0090225806    76.405578  0.029862232 
number of iterations: 2147 
   25700    71.906621     2957         1395         1562 1.4200041e-12 1.4739672e-13          0.1 0.0090228736    77.441601  0.029861741 
number of iterations: 2168 
   25800    72.184196     3002         1413         1589 1.4388221e-12 1.4968142e-13          0.1 0.0090231652    78.491198  0.029861253 
number of iterations: 2197 
   25900    72.444522     3056         1438         1618 1.4578894e-12 1.5200298e-13          0.1 0.0090234806    79.554546  0.029860725 
number of iterations: 2137 
   26000    72.710122     3104         1460         1644 1.4772094e-12 1.5436199e-13          0.1 0.0090237936    80.631824  0.029860201 
number of iterations: 2133 
   26100     72.96035     3151         1477         1674 1.4967854e-12 1.5675906e-13          0.1 0.0090241159    81.723216  0.029859661 
number of iterations: 2141 
   26200    73.195028     3187         1493         1694 1.5166209e-12 1.5919481e-13          0.1 0.0090244245    82.828903  0.029859145 
number of iterations: 2174 
   26300    73.462105     3228         1510         1718 1.5367192e-12 1.6166986e-13          0.1 0.0090247789    83.949074  0.029858551 
number of iterations: 2209 
   26400    73.693219     3275         1534         1741 1.5570839e-12 1.6418487e-13          0.1 0.0090251261    85.083917   0.02985797 
number of iterations: 2163 
   26500    73.949481     3322         1551         1771 1.5777184e-12 1.6674046e-13          0.1 0.0090254664    86.233624    0.0298574 
number of iterations: 2156 
   26600     74.23414     3369         1574         1795 1.5986264e-12 1.6933731e-13          0.1 0.0090257792    87.398387  0.029856876 
number of iterations: 2175 
   26700    74.642397     3417         1598         1819 1.6190828e-12 1.7197608e-13          0.1 0.0090260898    88.577848  0.029856356 
number of iterations: 2143 
   26800    74.878483     3469         1626         1843 1.6392078e-12 1.7465744e-13          0.1 0.0090263807    89.771732  0.029855868 
number of iterations: 2179 
   26900    75.150302     3515         1645         1870 1.6609306e-12 1.7738209e-13          0.1  0.009026748    90.981252  0.029855254 
number of iterations: 2198 
   27000    75.437631     3555         1665         1890 1.6829413e-12 1.8015073e-13          0.1  0.009027066    92.206609  0.029854721 
number of iterations: 2195 
   27100    75.686892     3597         1682         1915 1.7031963e-12 1.8296407e-13          0.1 0.0090274358    93.446444  0.029854101 
number of iterations: 2172 
   27200    75.939939     3657         1708         1949 1.7257671e-12 1.8582285e-13          0.1 0.0090277656     94.70251  0.029853548 
number of iterations: 2186 
   27300    76.245021     3710         1727         1983 1.7477897e-12 1.8872779e-13          0.1 0.0090281214    95.974374  0.029852953 
number of iterations: 2166 
   27400     76.49241     3775         1747         2028 1.7709514e-12 1.9167965e-13          0.1 0.0090284585    97.262889  0.029852388 
number of iterations: 2243 
   27500    76.740588     3831         1764         2067 1.7944201e-12 1.9467918e-13          0.1 0.0090288463    98.568271  0.029851738 
number of iterations: 2182 
   27600    77.003714     3878         1789         2089 1.8181998e-12 1.9772717e-13          0.1 0.0090292036    99.890744   0.02985114 
number of iterations: 2200 
   27700    77.269795     3928         1808         2120 1.8422946e-12 2.0082439e-13          0.1 0.0090295579    101.23053  0.029850546 
number of iterations: 2175 
   27800    77.548217     3986         1836         2150 1.8667087e-12 2.0397164e-13          0.1 0.0090299312    102.58785  0.029849921 
number of iterations: 2212 
   27900    77.808649     4035         1863         2172 1.8914463e-12 2.0716974e-13          0.1  0.009030327    103.96294  0.029849258 
number of iterations: 2181 
   28000    78.069295     4105         1887         2218 1.913926e-12 2.1041951e-13          0.1 0.0090306417    105.35404   0.02984873 
number of iterations: 2224 
   28100    78.351823     4171         1914         2257 1.9392893e-12 2.137218e-13          0.1 0.0090310557    106.76336  0.029848036 
number of iterations: 2219 
   28200    78.633087     4244         1945         2299 1.963545e-12 2.1707744e-13          0.1 0.0090314606    108.19001  0.029847358 
number of iterations: 2229 
   28300     78.87902     4302         1963         2339 1.9895659e-12 2.2048732e-13          0.1 0.0090318777    109.63532  0.029846659 
number of iterations: 2211 
   28400    79.134137     4362         1991         2371 2.0159316e-12 2.2395231e-13          0.1 0.0090322933    111.09955  0.029845963 
number of iterations: 2218 
   28500    79.516329     4424         2013         2411 2.0426467e-12 2.2747331e-13          0.1 0.0090327014    112.58294  0.029845279 
number of iterations: 2216 
   28600     79.79829     4493         2040         2453 2.0697158e-12 2.3105121e-13          0.1  0.009033091    114.08573  0.029844627 
number of iterations: 2246 
   28700    80.075814     4557         2061         2496 2.0949164e-12 2.3468695e-13          0.1 0.0090335162    115.60649  0.029843914 
number of iterations: 2247 
   28800    80.353343     4623         2094         2529 2.1212801e-12 2.3838147e-13          0.1 0.0090339289    117.14606  0.029843222 
number of iterations: 2225 
   28900    80.611116     4695         2127         2568 2.1493912e-12 2.4213572e-13          0.1 0.0090344054    118.70578  0.029842425 
number of iterations: 2259 
   29000     80.87339     4759         2146         2613 2.176613e-12 2.4595068e-13          0.1 0.0090348849    120.28494  0.029841621 
number of iterations: 2234 
   29100    81.138839     4831         2173         2658 2.2054574e-12 2.4982732e-13          0.1   0.00903534    121.88475  0.029840859 
number of iterations: 2266 
   29200    81.419911     4906         2201         2705 2.2346841e-12 2.5376665e-13          0.1 0.0090358248    123.50549  0.029840047 
number of iterations: 2245 
   29300    81.710528     4983         2229         2754 2.264298e-12 2.5776968e-13          0.1 0.0090363136    125.14743  0.029839228 
number of iterations: 2245 
   29400    81.993678     5051         2257         2794 2.2934831e-12 2.6183746e-13          0.1  0.009036802    126.81022   0.02983841 
number of iterations: 2222 
   29500    82.277492     5142         2290         2852 2.3217417e-12 2.6597102e-13          0.1 0.0090372058    128.49312  0.029837733 
number of iterations: 2244 
   29600    82.545409     5218         2315         2903 2.3525093e-12 2.7017144e-13          0.1 0.0090376816    130.19802  0.029836935 
number of iterations: 2264 
   29700    82.832456     5289         2349         2940 2.3836847e-12 2.744398e-13          0.1 0.0090381819    131.92522  0.029836097 
number of iterations: 2271 
   29800    83.087141     5374         2388         2986 2.4152732e-12 2.7877722e-13          0.1 0.0090387249    133.67501  0.029835188 
number of iterations: 2253 
   29900    83.359515     5442         2417         3025 2.4472802e-12 2.8318479e-13          0.1 0.0090392175    135.44767  0.029834362 
number of iterations: 2290 
   30000    83.622908     5528         2457         3071 2.4797115e-12 2.8766368e-13          0.1 0.0090397716    137.24352  0.029833434 
number of iterations: 2281 
   30100    83.894774     5595         2483         3112 2.5114007e-12 2.9221504e-13          0.1 0.0090402445    139.06195  0.029832641 
number of iterations: 2256 
   30200    84.182112     5681         2523         3158 2.5437307e-12 2.9684005e-13          0.1 0.0090407268    140.90343  0.029831833 
number of iterations: 2273 
   30300    84.570395     5750         2553         3197 2.5774401e-12 3.0153989e-13          0.1  0.009041262    142.76898  0.029830936 
number of iterations: 2323 
   30400    84.859994     5833         2588         3245 2.6115961e-12 3.063158e-13          0.1 0.0090418209    144.65891      0.02983 
number of iterations: 2285 
   30500    85.181789     5904         2618         3286 2.6462048e-12  3.11169e-13          0.1 0.0090423923    146.57355  0.029829042 
number of iterations: 2283 
   30600    85.491268     5982         2649         3333 2.6802348e-12 3.1610075e-13          0.1 0.0090429357    148.51242  0.029828131 
number of iterations: 2249 
   30700    85.793765     6072         2679         3393 2.7135644e-12 3.2111234e-13          0.1 0.0090434391    150.47497  0.029827287 
number of iterations: 2296 
   30800    86.137497     6151         2717         3434 2.7495244e-12 3.2620504e-13          0.1 0.0090439624    152.46317   0.02982641 
number of iterations: 2330 
   30900    86.411632     6240         2747         3493 2.7850421e-12 3.3138019e-13          0.1 0.0090445664    154.47665  0.029825398 
number of iterations: 2314 
   31000    86.694407     6319         2780         3539 2.8206695e-12 3.3663912e-13          0.1 0.0090451734    156.51546  0.029824381 
number of iterations: 2305 
   31100    86.976417     6406         2809         3597 2.8566688e-12 3.4198319e-13          0.1 0.0090457364    158.57985  0.029823437 
number of iterations: 2265 
   31200    87.284267     6518         2851         3667 2.8945251e-12 3.4741378e-13          0.1 0.0090463134    160.67122   0.02982247 
number of iterations: 2350 
   31300    87.596938     6599         2885         3714 2.9328831e-12 3.529323e-13          0.1 0.0090469629    162.78992  0.029821382 
number of iterations: 2294 
   31400    87.887504     6679         2906         3773 2.9694174e-12 3.5854018e-13          0.1 0.0090475459    164.93451  0.029820404 
number of iterations: 2310 
   31500    88.195942     6780         2944         3836 3.0062506e-12 3.6423886e-13          0.1 0.0090481551     167.1052  0.029819383 
number of iterations: 2266 
   31600    88.470412     6883         2979         3904 3.0423286e-12 3.7002982e-13          0.1 0.0090486822    169.30138  0.029818499 
number of iterations: 2299 
   31700    88.768408     6955         3011         3944 3.0806905e-12 3.7591457e-13          0.1 0.0090492965    171.52474  0.029817468 
number of iterations: 2255 
   31800    89.065612     7065         3055         4010 3.1180456e-12 3.8189464e-13          0.1 0.0090498831    173.77449  0.029816485 
number of iterations: 2285 
   31900    89.392951     7172         3096         4076 3.1593656e-12 3.8797155e-13          0.1 0.0090505401    176.05363  0.029815383 
number of iterations: 2309 
   32000    89.828956     7298         3154         4144 3.1991654e-12 3.941469e-13          0.1 0.0090511499    178.36095   0.02981436 
number of iterations: 2282 
   32100    90.125595     7412         3196         4216 3.2368935e-12 4.0042227e-13          0.1 0.0090518039    180.69484  0.029813264 
number of iterations: 2332 
   32200    90.452254     7533         3241         4292 3.2784666e-12 4.067993e-13          0.1 0.0090524202    183.05819   0.02981223 
number of iterations: 2325 
   32300    90.780485     7648         3287         4361 3.3206348e-12 4.1327964e-13          0.1 0.0090530699    185.45143  0.029811141 
number of iterations: 2280 
   32400    91.075625     7761         3324         4437 3.3624634e-12 4.1986493e-13          0.1 0.0090536683    187.87426  0.029810137 
number of iterations: 2347 
   32500    91.372162     7863         3362         4501 3.4054884e-12 4.2646459e-13          0.1  0.009054381    190.32758  0.029808942 
number of iterations: 2332 
   32600    91.665094     7988         3401         4587 3.4480854e-12 4.3316293e-13          0.1 0.0090550742    192.81103   0.02980778 
number of iterations: 2339 
   32700    92.010106     8121         3442         4679 3.490394e-12 4.4007043e-13          0.1 0.0090557487    195.32431  0.029806648 
number of iterations: 2314 
   32800    92.317503     8228         3484         4744 3.5341049e-12 4.4699396e-13          0.1 0.0090564667    197.86849  0.029805444 
number of iterations: 2358 
   32900     92.61862     8357         3531         4826 3.5809383e-12 4.5402621e-13          0.1 0.0090572741    200.44592  0.029804091 
number of iterations: 2319 
   33000    92.955828     8496         3576         4920 3.6283924e-12 4.6127185e-13          0.1 0.0090580024      203.057   0.02980287 
number of iterations: 2357 
   33100    93.245351     8618         3633         4985 3.6764753e-12 4.6863492e-13          0.1 0.0090587493    205.70217  0.029801617 
number of iterations: 2304 
   33200    93.577446     8752         3677         5075 3.7231685e-12 4.7611733e-13          0.1 0.0090594739    208.38031  0.029800402 
number of iterations: 2331 
   33300    93.885964     8885         3732         5153 3.7697524e-12 4.8372101e-13          0.1 0.0090601654     211.0913  0.029799241 
number of iterations: 2393 
   33400    94.181382     9007         3767         5240  3.81791e-12 4.913445e-13          0.1 0.0090610048    213.83633  0.029797834 
number of iterations: 2350 
   33500    94.577863     9130         3810         5320 3.8672573e-12 4.9919503e-13          0.1 0.0090617277    216.61622  0.029796621 
number of iterations: 2344 
   33600    94.900822     9270         3859         5411 3.9159748e-12  5.06935e-13          0.1 0.0090625392    219.43054  0.029795261 
number of iterations: 2340 
   33700    95.236173     9409         3924         5485 3.9643129e-12 5.1503831e-13          0.1 0.0090632885    222.27887  0.029794004 
number of iterations: 2366 
   33800    95.602913     9544         3976         5568 4.0144436e-12 5.2315362e-13          0.1 0.0090641432    225.16256  0.029792571 
number of iterations: 2321 
   33900    95.918981     9682         4020         5662 4.0638628e-12 5.3151989e-13          0.1 0.0090649366    228.08098   0.02979124 
number of iterations: 2377 
   34000    96.253243     9813         4064         5749 4.114502e-12 5.4002182e-13          0.1 0.0090657543    231.03502  0.029789868 
number of iterations: 2370 
   34100    96.581258     9961         4131         5830 4.1680368e-12 5.4853992e-13          0.1 0.0090666702    234.02687  0.029788332 
number of iterations: 2348 
   34200    96.899012    10100         4184         5916 4.2189351e-12  5.57189e-13          0.1 0.0090674396    237.05448  0.029787041 
number of iterations: 2339 
   34300    97.245986    10232         4238         5994 4.2728015e-12 5.6610724e-13          0.1 0.0090682636       240.12  0.029785658 
number of iterations: 2321 
   34400    97.567453    10348         4283         6065 4.3241049e-12 5.7502354e-13          0.1  0.009069093    243.22151  0.029784266 
number of iterations: 2402 
   34500    97.896034    10513         4341         6172 4.3814071e-12 5.8410477e-13          0.1 0.0090699788    246.36352   0.02978278 
number of iterations: 2389 
   34600    98.228791    10674         4391         6283 4.4352609e-12 5.9345956e-13          0.1 0.0090708163    249.54328  0.029781375 
number of iterations: 2399 
   34700    98.572094    10838         4446         6392 4.494036e-12 6.0277689e-13          0.1 0.0090717281    252.76458  0.029779845 
number of iterations: 2410 
   34800    98.899674    10994         4514         6480  4.55359e-12 6.1220144e-13          0.1 0.0090726389    256.02797  0.029778318 
number of iterations: 2357 
   34900    99.228291    11127         4562         6565 4.6087582e-12 6.2201204e-13          0.1 0.0090735094    259.32993  0.029776856 
number of iterations: 2378 
   35000    99.831837    11277         4606         6671 4.6657849e-12 6.3165656e-13          0.1 0.0090744436    262.67198   0.02977529 
Loop time of 99.8319 on 32 procs for 35000 steps with 11277 atoms

Performance: 302909258.059 tau/day, 350.589 timesteps/s
92.4% CPU use with 32 MPI tasks x no OpenMP threads

MPI task timing breakdown:
Section |  min time  |  avg time  |  max time  |%varavg| %total
---------------------------------------------------------------
Pair    | 0.021423   | 0.16436    | 0.51648    |  30.8 |  0.16
Neigh   | 0.0089507  | 0.064019   | 0.22272    |  20.3 |  0.06
Comm    | 0.1285     | 0.26345    | 0.42498    |  13.3 |  0.26
Output  | 26.019     | 26.019     | 26.027     |   0.0 | 26.06
Modify  | 72.299     | 72.385     | 72.534     |   0.7 | 72.51
Other   |            | 0.9357     |            |       |  0.94

Nlocal:    352.406 ave 1000 max 43 min
Histogram: 3 9 8 4 3 1 1 0 1 2
Nghost:    186.594 ave 381 max 14 min
Histogram: 2 3 3 5 5 4 5 3 1 1
Neighs:    1778.81 ave 5538 max 213 min
Histogram: 3 14 3 4 3 1 1 0 1 2

Total # of neighbors = 56922
Ave neighs/atom = 5.04762
Neighbor list builds = 722
Dangerous builds = 0
Total wall time: 0:01:40
