LAMMPS (20 Nov 2019)
# NUFEB simulation

atom_style	bio
atom_modify	map array sort 1000 5.0e-7
boundary	ff ff ff
newton		off
processors  * * *

comm_modify	vel yes
#variable reps loop 1
read_data_bio atom_50_50_100_1_2021-08-31.in
  orthogonal box = (0 0 0) to (0.0001 0.0001 1e-05)
  8 by 4 by 1 MPI processor grid
  reading atoms ...
  100 atoms
  4 nutrients
#shell mkdir Run_50_50_100_1
#shell cd Run_50_50_100_1
##############Define initial particle distribution##############

lattice sc 1e-6 origin 0 0 0
Lattice spacing in x,y,z = 100 100 100
region reg block 0 1000 0 1000 0 100

group CYANO type 1
50 atoms in group CYANO
group ECW type 2
50 atoms in group ECW

neighbor	5e-7 bin
neigh_modify	delay 0 one 5000

##############Define DEM Variables&Commands##############

pair_style  gran/hooke/history 1.e-4 NULL 1.e-5 NULL 0.0 1
pair_coeff  * *

timestep 10

fix 1 all nve/limit 1e-8
fix fv all viscous 1e-5

fix zw all wall/gran hooke/history 2000 NULL 500.0 NULL 1.5 0 zplane  0.0  1e-05

variable kanc equal 50

variable ke equal 5e+10


##############Define IBm Variables##############

#variables used in fix eps_extract
variable EPSdens equal 30
variable EPSratio equal 1.3

#variables used in fix division
variable divDia1 equal 1.96e-6
variable divDia2 equal 1.04e-6

#variables used in fix kinetics
variable diffT equal 1e-4
variable tol equal 1e-11
variable etaHET equal 0.6
variable layer equal -1

#variables used in fix death
#variable deadDia equal 9e-7


##############Define IBm Commands##############

fix k1 all kinetics 100 50 50 5 v_diffT v_layer niter 1000000
fix kgm all kinetics/growth/monod sucexp 1.0
fix g1 all kinetics/diffusion v_tol
fix d1 CYANO divide 100 v_EPSdens v_divDia1 544912
fix d2 ECW divide 100 v_EPSdens v_divDia2 64729
#fix d2 all death 1 v_deadDia demflag 0


##############Define IBm Computes##############

compute myNtypes all ntypes
compute myMass all biomass
compute myCon all avg_con

##############Simulation exit condition##############
variable co2 equal c_myCon[4]
fix 10 all halt 100 v_co2 <= 1e-19

variable light equal c_myCon[1]
fix 11 all halt 100 v_light <= 1e-19

##############Simulation Output##############
dump    id all custom 100 output.lammmps id type diameter x y z
dump    du1 all vtk 100 atom_*.vtu id type diameter x y z
dump    du2 all grid 100 grid_%_*.vti con
dump    du3 all bio 100 ntypes biomass avg_con
dump    traj all bio/hdf5 100 trajectory.h5 id type radius x y z con
thermo_style    custom step cpu atoms c_myNtypes[*] c_myMass[*] c_myCon[*]
thermo		100
thermo_modify	lost ignore


run 35000
Model is defined as a closed system. 
Neighbor list info ...
  update every 1 steps, delay 0 steps, check yes
  max neighbors/atom: 5000, page size: 100000
  master list distance cutoff = 2.44e-06
  ghost atom cutoff = 2.44e-06
  binsize = 1.22e-06, bins = 82 82 9
  1 neighbor lists, perpetual/occasional/extra = 1 0 0
  (1) pair gran/hooke/history, perpetual
      attributes: half, newton off, size, history
      pair build: half/size/bin/newtoff
      stencil: half/bin/3d/newtoff
      bin: standard
Per MPI rank memory allocation (min/avg/max) = 6.792 | 10.66 | 12.11 Mbytes
Step CPU Atoms c_myNtypes[1] c_myNtypes[2] c_myMass[1] c_myMass[2] c_myCon[1] c_myCon[2] c_myCon[3] c_myCon[4] 
       0            0      100           50           50 4.639192e-14 9.155565e-15          0.1        0.009     3.42e-20       0.0299 
number of iterations: 324131 
     100    15.582179      136           50           86 4.7006716e-14 9.1487501e-15          0.1 0.0090008016  0.037273035  0.029898665 
number of iterations: 3778 
     200    15.994159      145           50           95 4.7629659e-14 9.1428954e-15          0.1 0.0090008122  0.073849714  0.029898647 
number of iterations: 2615 
     300    16.247487      145           50           95 4.8260857e-14 9.138004e-15          0.1 0.0090008229    0.1108863  0.029898629 
number of iterations: 2058 
     400    16.509344      146           51           95 4.8900421e-14 9.134067e-15          0.1 0.0090008352   0.14839111  0.029898609 
number of iterations: 1723 
     500    16.736497      147           52           95 4.954846e-14 9.1310763e-15          0.1 0.0090008463   0.18637144   0.02989859 
number of iterations: 1505 
     600    16.956214      147           52           95 5.0205086e-14 9.1290241e-15          0.1 0.0090008574   0.22483423  0.029898571 
number of iterations: 1388 
     700    17.142197      147           52           95 5.0870415e-14 9.1279031e-15          0.1 0.0090008687   0.26378643  0.029898553 
number of iterations: 1391 
     800    17.319432      147           52           95 5.1544561e-14 9.1277061e-15          0.1 0.0090008802     0.303235  0.029898533 
number of iterations: 1396 
     900    17.516419      148           53           95 5.222764e-14 9.1284268e-15          0.1 0.0090008918    0.3431871  0.029898514 
number of iterations: 1432 
    1000    17.726822      150           55           95 5.2919772e-14 9.1300592e-15          0.1 0.0090009036   0.38364973  0.029898494 
number of iterations: 1469 
    1100    17.919564      151           56           95 5.3621076e-14 9.1325977e-15          0.1 0.0090009171   0.42463015  0.029898472 
number of iterations: 1463 
    1200    18.114903      153           58           95 5.4331674e-14 9.1360354e-15          0.1 0.0090009292   0.46613559  0.029898452 
number of iterations: 1406 
    1300    18.305487      153           58           95 5.5051689e-14 9.1403659e-15          0.1 0.0090009415   0.50817338  0.029898431 
number of iterations: 1437 
    1400    18.491632      153           58           95 5.5781246e-14 9.1455852e-15          0.1 0.0090009539     0.550751   0.02989841 
number of iterations: 1412 
    1500    18.712513      153           58           95 5.6520471e-14 9.1516864e-15          0.1 0.0090009665   0.59387596  0.029898389 
number of iterations: 1411 
    1600    18.929199      154           59           95 5.7269492e-14 9.1586663e-15          0.1 0.0090009793   0.63755592  0.029898368 
number of iterations: 1414 
    1700    19.134491      155           60           95 5.802844e-14 9.1665177e-15          0.1 0.0090009897   0.68179858  0.029898351 
number of iterations: 1437 
    1800    19.367309      157           62           95 5.8797445e-14 9.1752362e-15          0.1 0.0090010028   0.72661173  0.029898329 
number of iterations: 1423 
    1900    19.553776      157           62           95 5.9576642e-14 9.1848177e-15          0.1  0.009001016   0.77200332  0.029898307 
number of iterations: 1446 
    2000    19.752052      158           63           95 6.0366164e-14 9.1952581e-15          0.1 0.0090010294   0.81798144  0.029898284 
number of iterations: 1573 
    2100    19.957735      160           64           96 6.1166149e-14 9.2065531e-15          0.1 0.0090010492   0.86455412  0.029898251 
number of iterations: 1432 
    2200    20.151193      161           65           96 6.1976736e-14 9.2186989e-15          0.1 0.0090010597    0.9117296  0.029898234 
number of iterations: 1435 
    2300    20.352731      162           66           96 6.2798065e-14 9.2316924e-15          0.1 0.0090010738   0.95951619   0.02989821 
number of iterations: 1437 
    2400    20.544506      162           66           96 6.3630278e-14 9.2455304e-15          0.1  0.009001088    1.0079223  0.029898187 
number of iterations: 1440 
    2500    20.716686      164           68           96 6.447352e-14 9.2602102e-15          0.1 0.0090011023    1.0569565  0.029898163 
number of iterations: 1469 
    2600    20.896444      166           70           96 6.5327937e-14 9.2757286e-15          0.1 0.0090011169    1.1066275  0.029898138 
number of iterations: 1436 
    2700    21.087137      168           72           96 6.6193677e-14 9.2920841e-15          0.1  0.009001127    1.1569439  0.029898121 
number of iterations: 1446 
    2800    21.261754      168           72           96 6.7070889e-14 9.3092731e-15          0.1 0.0090011419    1.2079146  0.029898097 
number of iterations: 1449 
    2900    21.470287      168           72           96 6.7959727e-14 9.3272933e-15          0.1  0.009001157    1.2595486  0.029898071 
number of iterations: 1452 
    3000    21.690891      168           72           96 6.8860344e-14 9.3461427e-15          0.1 0.0090011723     1.311855  0.029898046 
number of iterations: 1455 
    3100    21.867595      168           72           96 6.9772895e-14 9.3658195e-15          0.1 0.0090011878    1.3648429   0.02989802 
number of iterations: 1458 
    3200     22.05515      168           72           96 7.069754e-14 9.386322e-15          0.1 0.0090012035    1.4185218  0.029897994 
number of iterations: 1479 
    3300    22.226039      171           75           96 7.1634439e-14 9.4076495e-15          0.1 0.0090012182     1.472901  0.029897969 
number of iterations: 1463 
    3400    22.393201      171           75           96 7.2583754e-14   9.4298e-15          0.1 0.0090012343      1.52799  0.029897942 
number of iterations: 1543 
    3500    22.567046      173           77           96 7.3545649e-14 9.452773e-15          0.1 0.0090012468    1.5837986  0.029897921 
number of iterations: 1469 
    3600    22.752067      173           77           96 7.4520291e-14 9.4765668e-15          0.1 0.0090012633    1.6403366  0.029897894 
number of iterations: 1472 
    3700     22.91896      173           77           96 7.550785e-14 9.5011806e-15          0.1 0.0090012801    1.6976138  0.029897866 
number of iterations: 1474 
    3800    23.098456      173           77           96 7.6508496e-14 9.5266139e-15          0.1  0.009001297    1.7556404  0.029897838 
number of iterations: 1477 
    3900    23.304156      173           77           96 7.7522402e-14 9.5528662e-15          0.1 0.0090013142    1.8144265  0.029897809 
number of iterations: 1480 
    4000     23.51657      174           77           97 7.8549745e-14 9.5799371e-15          0.1 0.0090013316    1.8739825   0.02989778 
number of iterations: 1510 
    4100    23.700948      175           78           97 7.9590703e-14 9.6078249e-15          0.1 0.0090013492    1.9343187  0.029897751 
number of iterations: 1605 
    4200     23.88269      177           79           98 8.0645456e-14 9.636532e-15          0.1 0.0090013707    1.9954458  0.029897715 
number of iterations: 1492 
    4300     24.04838      177           79           98 8.1714186e-14 9.6660572e-15          0.1 0.0090013889    2.0573744  0.029897684 
number of iterations: 1494 
    4400    24.227526      178           79           99 8.2797079e-14 9.6964018e-15          0.1 0.0090014072    2.1201155  0.029897654 
number of iterations: 1496 
    4500    24.434871      180           79          101 8.3894323e-14 9.7275659e-15          0.1 0.0090014259    2.1836801  0.029897623 
number of iterations: 1670 
    4600    24.619121      183           81          102 8.5006108e-14 9.7595497e-15          0.1 0.0090014492    2.2480792  0.029897584 
number of iterations: 1503 
    4700     24.78753      183           81          102 8.6132627e-14 9.7923548e-15          0.1 0.0090014683    2.3133242  0.029897552 
number of iterations: 1506 
    4800    24.975829      184           81          103 8.7274074e-14 9.8259811e-15          0.1 0.0090014878    2.3794266  0.029897519 
number of iterations: 1509 
    4900    25.150799      185           81          104 8.8430648e-14 9.860431e-15          0.1 0.0090015075    2.4463978  0.029897487 
number of iterations: 1519 
    5000    25.372049      188           82          106 8.9602549e-14 9.8957038e-15          0.1 0.0090015259    2.5142496  0.029897456 
number of iterations: 1528 
    5100    25.538797      191           85          106 9.0789981e-14 9.9318038e-15          0.1 0.0090015435    2.5829937  0.029897426 
number of iterations: 1520 
    5200    25.772156      193           87          106 9.1993148e-14 9.9687315e-15          0.1  0.009001564    2.6526422  0.029897392 
number of iterations: 1522 
    5300    25.952207      193           87          106 9.321226e-14 1.0006488e-14          0.1 0.0090015847    2.7232075  0.029897358 
number of iterations: 1513 
    5400    26.139767      198           90          108 9.4447528e-14 1.0045076e-14          0.1 0.0090016044    2.7947016  0.029897325 
number of iterations: 1525 
    5500    26.313319      202           91          111 9.5699166e-14 1.0084497e-14          0.1 0.0090016256    2.8671374   0.02989729 
number of iterations: 1604 
    5600     26.51651      206           93          113 9.6967391e-14 1.0124754e-14          0.1 0.0090016495    2.9405274   0.02989725 
number of iterations: 1519 
    5700      26.6924      209           94          115 9.8252423e-14 1.0165849e-14          0.1 0.0090016702    3.0148846  0.029897215 
number of iterations: 1741 
    5800    26.902658      212           97          115 9.9554484e-14 1.0207782e-14          0.1 0.0090016969    3.0902219  0.029897171 
number of iterations: 1539 
    5900    27.086527      212           97          115 1.008738e-13 1.0250558e-14          0.1 0.0090017194    3.1665525  0.029897133 
number of iterations: 1527 
    6000    27.268493      214           97          117 1.022106e-13 1.0294179e-14          0.1 0.0090017392    3.2438898    0.0298971 
number of iterations: 1618 
    6100    27.498167      214           97          117 1.0356512e-13 1.0338647e-14          0.1 0.0090017687    3.3222474  0.029897051 
number of iterations: 1625 
    6200     27.69387      218           99          119 1.0493758e-13 1.0383967e-14          0.1 0.0090017946    3.4016391  0.029897008 
number of iterations: 1547 
    6300      27.8644      220          101          119 1.0632824e-13 1.0430141e-14          0.1 0.0090018112    3.4820786   0.02989698 
number of iterations: 1598 
    6400    28.048918      224          105          119 1.0773732e-13 1.0477172e-14          0.1 0.0090018385      3.56358  0.029896934 
number of iterations: 1555 
    6500    28.266342      226          107          119 1.0916508e-13 1.0525064e-14          0.1 0.0090018629    3.6461573  0.029896894 
number of iterations: 1496 
    6600    28.437228      229          109          120 1.1061175e-13 1.057382e-14          0.1 0.0090018767    3.7298252  0.029896871 
number of iterations: 1551 
    6700     28.63657      232          111          121 1.120776e-13 1.0623445e-14          0.1 0.0090018952    3.8145983   0.02989684 
number of iterations: 1562 
    6800    28.817506      233          111          122 1.1356288e-13 1.0673941e-14          0.1 0.0090019204    3.9004915  0.029896798 
number of iterations: 1549 
    6900    29.044294      237          115          122 1.1506784e-13 1.0725313e-14          0.1 0.0090019398    3.9875199  0.029896766 
number of iterations: 1538 
    7000    29.251812      240          117          123 1.1659274e-13 1.0777564e-14          0.1 0.0090019529    4.0756987  0.029896744 
number of iterations: 1643 
    7100    29.471224      244          121          123 1.1813785e-13 1.0830699e-14          0.1 0.0090019841    4.1650431  0.029896692 
number of iterations: 1624 
    7200    29.654329      249          125          124 1.1970344e-13 1.0884719e-14          0.1 0.0090020169    4.2555688  0.029896637 
number of iterations: 1574 
    7300    29.838326      251          126          125 1.2128977e-13 1.0939632e-14          0.1 0.0090020319    4.3472916  0.029896612 
number of iterations: 1579 
    7400    30.013998      252          126          126 1.2289713e-13 1.0995441e-14          0.1 0.0090020588    4.4402276  0.029896567 
number of iterations: 1580 
    7500    30.210228      252          126          126 1.2452579e-13 1.1052151e-14          0.1 0.0090020861     4.534393  0.029896522 
number of iterations: 1583 
    7600    30.403798      253          127          126 1.2617603e-13 1.1109766e-14          0.1 0.0090021137    4.6298043  0.029896476 
number of iterations: 1623 
    7700     30.59405      254          128          126 1.2784814e-13 1.1168292e-14          0.1 0.0090021447    4.7264781  0.029896424 
number of iterations: 1587 
    7800    30.765624      257          131          126 1.2954241e-13 1.1227733e-14          0.1 0.0090021715    4.8244312  0.029896379 
number of iterations: 1613 
    7900    30.965647      259          133          126 1.3125913e-13 1.1288096e-14          0.1 0.0090021969    4.9236808  0.029896337 
number of iterations: 1729 
    8000    31.165457      264          137          127 1.329986e-13 1.1349385e-14          0.1 0.0090022296    5.0242445  0.029896282 
number of iterations: 1648 
    8100    31.368638      268          141          127 1.3476112e-13 1.1411606e-14          0.1  0.009002258      5.12614  0.029896235 
number of iterations: 1602 
    8200    31.551102      268          141          127 1.3654701e-13 1.1474764e-14          0.1  0.009002288    5.2293847  0.029896185 
number of iterations: 1614 
    8300    31.732883      269          142          127 1.3835655e-13 1.1538863e-14          0.1 0.0090023198    5.3339968  0.029896132 
number of iterations: 1608 
    8400    31.911459      269          142          127 1.4019008e-13 1.1603909e-14          0.1 0.0090023506    5.4399944  0.029896081 
number of iterations: 1603 
    8500    32.102511      273          144          129 1.4204791e-13 1.1669909e-14          0.1 0.0090023754    5.5473962  0.029896039 
number of iterations: 1655 
    8600    32.290545      276          146          130 1.4393036e-13 1.1736868e-14          0.1 0.0090024102    5.6562207  0.029895981 
number of iterations: 1616 
    8700    32.479217      276          146          130 1.4583775e-13 1.1804792e-14          0.1 0.0090024421    5.7664872  0.029895928 
number of iterations: 1620 
    8800    32.653522      277          146          131 1.4777042e-13 1.1873688e-14          0.1 0.0090024745    5.8782148  0.029895874 
number of iterations: 1622 
    8900    32.845258      278          146          132 1.497287e-13 1.194356e-14          0.1 0.0090025073     5.991423  0.029895819 
number of iterations: 1624 
    9000      33.0297      282          147          135 1.5171294e-13 1.2014418e-14          0.1 0.0090025327    6.1061316  0.029895777 
number of iterations: 1746 
    9100    33.219271      287          149          138 1.5372347e-13 1.2086267e-14          0.1 0.0090025692    6.2223606  0.029895716 
number of iterations: 1631 
    9200    33.403908      291          152          139 1.5576064e-13 1.2159112e-14          0.1 0.0090025985    6.3401305  0.029895667 
number of iterations: 1710 
    9300    33.584916      296          156          140 1.5782481e-13 1.2232962e-14          0.1   0.00900264    6.4594617  0.029895598 
number of iterations: 1639 
    9400    33.754328      298          158          140 1.5991634e-13 1.2307823e-14          0.1 0.0090026702     6.580375  0.029895548 
number of iterations: 1690 
    9500     33.95022      304          164          140 1.6203558e-13 1.2383702e-14          0.1 0.0090027156    6.7028918  0.029895472 
number of iterations: 1642 
    9600    34.142632      307          167          140 1.6418291e-13 1.2460605e-14          0.1 0.0090027516    6.8270331  0.029895412 
number of iterations: 1663 
    9700    34.349062      307          167          140 1.6635869e-13 1.253854e-14          0.1 0.0090027881    6.9528209  0.029895351 
number of iterations: 1680 
    9800    34.549607      309          169          140 1.6856331e-13 1.2617515e-14          0.1 0.0090028295     7.080277  0.029895282 
number of iterations: 1635 
    9900    34.727646      310          170          140 1.7079714e-13 1.2697537e-14          0.1  0.009002867    7.2094236   0.02989522 
number of iterations: 1653 
   10000    34.911275      311          170          141 1.7306058e-13 1.2778614e-14          0.1  0.009002905    7.3402835  0.029895156 
number of iterations: 1693 
   10100    35.135626      315          173          142 1.7535401e-13 1.2860754e-14          0.1 0.0090029476    7.4728792  0.029895085 
number of iterations: 1659 
   10200    35.335484      316          173          143 1.7767784e-13 1.2943964e-14          0.1 0.0090029867    7.6072341   0.02989502 
number of iterations: 1655 
   10300     35.55344      319          176          143 1.8003246e-13 1.3028252e-14          0.1 0.0090030235    7.7433716  0.029894959 
number of iterations: 1662 
   10400      35.7727      321          178          143 1.8241829e-13 1.3113627e-14          0.1 0.0090030636    7.8813153  0.029894892 
number of iterations: 1675 
   10500    35.943566      326          183          143 1.8483573e-13 1.3200096e-14          0.1 0.0090031061    8.0210894  0.029894821 
number of iterations: 1664 
   10600    36.131315      328          185          143 1.8728521e-13 1.3287666e-14          0.1 0.0090031439    8.1627184  0.029894758 
number of iterations: 1672 
   10700    36.318593      330          185          145 1.8976715e-13 1.3376347e-14          0.1 0.0090031856     8.306227  0.029894688 
number of iterations: 1674 
   10800      36.5072      332          187          145 1.9228198e-13 1.3466148e-14          0.1 0.0090032237    8.4516402  0.029894625 
number of iterations: 1736 
   10900    36.700366      337          191          146 1.9483013e-13 1.3557077e-14          0.1 0.0090032705    8.5989834  0.029894547 
number of iterations: 1725 
   11000    36.887107      341          193          148 1.9741206e-13 1.3649144e-14          0.1 0.0090033206    8.7482824  0.029894463 
number of iterations: 1669 
   11100    37.163725      345          196          149 2.000282e-13 1.3742355e-14          0.1  0.009003353    8.8995634  0.029894409 
number of iterations: 1852 
   11200     37.37982      347          198          149 2.0267901e-13 1.3836722e-14          0.1 0.0090034069    9.0528527   0.02989432 
number of iterations: 1767 
   11300    37.578352      350          201          149 2.0536495e-13 1.3932254e-14          0.1 0.0090034635     9.208177  0.029894225 
number of iterations: 1654 
   11400    37.778728      353          204          149 2.0808649e-13 1.4028959e-14          0.1 0.0090035014    9.3655634  0.029894162 
number of iterations: 1782 
   11500    37.988352      355          206          149 2.1084409e-13 1.4126847e-14          0.1  0.009003552    9.5250393  0.029894078 
number of iterations: 1697 
   11600    38.186343      357          208          149 2.1363823e-13 1.4225929e-14          0.1 0.0090035923    9.6866327  0.029894011 
number of iterations: 1712 
   11700    38.363502      359          209          150 2.1646941e-13 1.4326212e-14          0.1  0.009003641    9.8503716  0.029893929 
number of iterations: 1776 
   11800     38.55381      363          213          150 2.193381e-13 1.4427708e-14          0.1 0.0090036876    10.016285  0.029893852 
number of iterations: 1790 
   11900    38.748476      364          214          150 2.2224481e-13 1.4530426e-14          0.1 0.0090037398    10.184401  0.029893765 
number of iterations: 1720 
   12000    38.946016      371          219          152 2.2519004e-13 1.4634375e-14          0.1 0.0090037866     10.35475  0.029893687 
number of iterations: 1785 
   12100    39.186271      375          222          153 2.281743e-13 1.4739567e-14          0.1 0.0090038374     10.52736  0.029893602 
number of iterations: 1711 
   12200    39.414128      381          226          155 2.3119811e-13 1.4846012e-14          0.1 0.0090038794    10.702263  0.029893532 
number of iterations: 1756 
   12300    39.602371      383          228          155 2.3426199e-13 1.495372e-14          0.1 0.0090039342    10.879489  0.029893441 
number of iterations: 1756 
   12400    39.811489      387          232          155 2.3736647e-13 1.5062702e-14          0.1 0.0090039941    11.059068  0.029893341 
number of iterations: 1662 
   12500    40.013721      394          237          157 2.4051209e-13 1.5172969e-14          0.1 0.0090040306    11.241033   0.02989328 
number of iterations: 1730 
   12600    40.212576      401          242          159 2.436994e-13 1.5284532e-14          0.1 0.0090040841    11.425414  0.029893191 
number of iterations: 1730 
   12700    40.414889      403          244          159 2.4692895e-13 1.5397402e-14          0.1 0.0090041382    11.612245  0.029893101 
number of iterations: 1741 
   12800    40.595534      408          247          161 2.502013e-13 1.551159e-14          0.1 0.0090041919    11.801558  0.029893011 
number of iterations: 1728 
   12900    40.776118      417          252          165 2.5351701e-13 1.5627108e-14          0.1 0.0090042448    11.993385  0.029892923 
number of iterations: 1761 
   13000    40.973715      421          256          165 2.5687667e-13 1.5743967e-14          0.1 0.0090043002     12.18776   0.02989283 
number of iterations: 1734 
   13100    41.183482      423          257          166 2.6028084e-13 1.5862178e-14          0.1 0.0090043575    12.384718  0.029892735 
number of iterations: 1811 
   13200    41.376979      432          265          167 2.6373013e-13 1.5981753e-14          0.1 0.0090044219    12.584292  0.029892628 
number of iterations: 1752 
   13300    41.571426      439          271          168 2.6722513e-13 1.6102703e-14          0.1 0.0090044795    12.786517  0.029892532 
number of iterations: 1762 
   13400    41.765757      444          274          170 2.7076644e-13 1.6225041e-14          0.1 0.0090045434    12.991429  0.029892425 
number of iterations: 1785 
   13500    41.956163      447          276          171 2.7435469e-13 1.6348779e-14          0.1 0.0090045998    13.199062  0.029892331 
number of iterations: 1828 
   13600    42.147471      452          281          171 2.7799049e-13 1.6473931e-14          0.1 0.0090046612    13.409453  0.029892229 
number of iterations: 1757 
   13700    42.345667      458          284          174 2.8167446e-13 1.6600507e-14          0.1 0.0090047151     13.62264  0.029892139 
number of iterations: 1762 
   13800    42.537319      461          286          175 2.8540726e-13 1.672852e-14          0.1 0.0090047776     13.83866  0.029892035 
number of iterations: 1751 
   13900    42.737079      465          290          175 2.8918953e-13 1.6857984e-14          0.1 0.0090048398    14.057549  0.029891931 
number of iterations: 1752 
   14000    42.926618      470          293          177 2.9302192e-13 1.6988911e-14          0.1 0.0090048895    14.279347  0.029891848 
number of iterations: 1763 
   14100    43.142435      475          295          180 2.969051e-13 1.7121314e-14          0.1 0.0090049539    14.504092  0.029891741 
number of iterations: 1848 
   14200    43.343333      481          301          180 3.0083974e-13 1.7255207e-14          0.1 0.0090050281    14.731823  0.029891617 
number of iterations: 1799 
   14300    43.541383      485          304          181 3.0482652e-13 1.7390603e-14          0.1 0.0090050956     14.96258  0.029891505 
number of iterations: 1738 
   14400    43.735297      491          309          182 3.0886613e-13 1.7527515e-14          0.1 0.0090051486    15.196404  0.029891416 
number of iterations: 1775 
   14500    43.920517      497          312          185 3.1295928e-13 1.7665957e-14          0.1 0.0090052078    15.433336  0.029891318 
number of iterations: 1783 
   14600    44.117209      502          312          190 3.1710667e-13 1.7805943e-14          0.1 0.0090052768    15.673415  0.029891203 
number of iterations: 1840 
   14700    44.316495      510          318          192 3.2130902e-13 1.7947486e-14          0.1 0.0090053434    15.916684  0.029891092 
number of iterations: 1836 
   14800    44.514402      522          328          194 3.2556707e-13 1.8090603e-14          0.1 0.0090054277    16.163186  0.029890951 
number of iterations: 1822 
   14900    44.711531      527          331          196 3.2988154e-13 1.8235307e-14          0.1 0.0090054993    16.412964  0.029890832 
number of iterations: 1802 
   15000    44.910659      531          334          197 3.3425318e-13 1.838161e-14          0.1 0.0090055613    16.666061  0.029890728 
number of iterations: 1865 
   15100    45.145371      536          337          199 3.3868276e-13 1.8529529e-14          0.1 0.0090056432     16.92252  0.029890592 
number of iterations: 1810 
   15200    45.338355      541          339          202 3.4317104e-13 1.8679078e-14          0.1 0.0090057241    17.182388  0.029890457 
number of iterations: 1795 
   15300    45.531973      545          342          203 3.477188e-13 1.8830272e-14          0.1 0.0090057972    17.445709  0.029890335 
number of iterations: 1822 
   15400    45.744212      554          349          205 3.5232683e-13 1.8983126e-14          0.1 0.0090058692    17.712529  0.029890215 
number of iterations: 1810 
   15500     46.01032      565          357          208 3.5699593e-13 1.9137656e-14          0.1 0.0090059521    17.982894  0.029890077 
number of iterations: 1804 
   15600    46.210421      568          360          208 3.617269e-13 1.9293877e-14          0.1 0.0090060263    18.256852  0.029889954 
number of iterations: 1807 
   15700    46.405451      570          361          209 3.6652056e-13 1.9451804e-14          0.1 0.0090061062    18.534451   0.02988982 
number of iterations: 1813 
   15800    46.601401      571          362          209 3.7137775e-13 1.9611454e-14          0.1 0.0090061878    18.815739  0.029889684 
number of iterations: 1841 
   15900    46.829652      576          366          210 3.7629931e-13 1.9772843e-14          0.1 0.0090062737    19.100766  0.029889541 
number of iterations: 1860 
   16000    47.046678      581          370          211 3.8128609e-13 1.9935987e-14          0.1 0.0090063612    19.389581  0.029889395 
number of iterations: 1824 
   16100     47.24431      590          376          214 3.8633896e-13  2.01009e-14          0.1 0.0090064317    19.682233  0.029889278 
number of iterations: 1878 
   16200    47.431638      599          382          217 3.9145878e-13 2.0267601e-14          0.1 0.0090065231    19.978775  0.029889126 
number of iterations: 1836 
   16300    47.644676      608          388          220 3.9664646e-13 2.0436108e-14          0.1 0.0090066061    20.279258  0.029888987 
number of iterations: 1893 
   16400    47.865045      612          391          221 4.0190288e-13 2.0606434e-14          0.1 0.0090067026    20.583735  0.029888826 
number of iterations: 1886 
   16500    48.064619      624          402          222 4.0722896e-13 2.0778599e-14          0.1 0.0090067921    20.892258  0.029888677 
number of iterations: 1827 
   16600    48.272222      630          406          224 4.1262563e-13 2.0952618e-14          0.1 0.0090068766    21.204882  0.029888536 
number of iterations: 1812 
   16700    48.480222      639          414          225 4.1809381e-13 2.1128509e-14          0.1 0.0090069539    21.521661  0.029888407 
number of iterations: 1867 
   16800    48.672952      641          415          226 4.2363445e-13 2.130629e-14          0.1 0.0090070512     21.84265  0.029888245 
number of iterations: 1879 
   16900    48.876406      648          420          228 4.2924852e-13 2.1485979e-14          0.1  0.009007156    22.167905  0.029888071 
number of iterations: 1842 
   17000    49.143493      660          427          233 4.3493699e-13 2.1667593e-14          0.1 0.0090072484    22.497483  0.029887917 
number of iterations: 1853 
   17100    49.335819      667          432          235 4.4070084e-13 2.1851151e-14          0.1 0.0090073362     22.83144   0.02988777 
number of iterations: 1872 
   17200    49.529719      677          441          236 4.4654108e-13 2.2036671e-14          0.1 0.0090074337    23.169836  0.029887608 
number of iterations: 1857 
   17300    49.719105      682          443          239 4.5245871e-13 2.2224172e-14          0.1 0.0090075322     23.51273  0.029887444 
number of iterations: 1912 
   17400     49.94389      692          450          242 4.5845477e-13 2.2413673e-14          0.1 0.0090076382     23.86018  0.029887267 
number of iterations: 1904 
   17500    50.152924      700          455          245 4.6453028e-13 2.2605193e-14          0.1 0.0090077494    24.212249  0.029887082 
number of iterations: 1874 
   17600    50.352075      709          460          249 4.706863e-13 2.279875e-14          0.1 0.0090078562    24.568998  0.029886904 
number of iterations: 1924 
   17700    50.559974      714          465          249 4.7692391e-13 2.2994365e-14          0.1 0.0090079603    24.930487   0.02988673 
number of iterations: 1946 
   17800    50.785865      725          475          250 4.8324418e-13 2.3192056e-14          0.1 0.0090080961    25.296782  0.029886504 
number of iterations: 1877 
   17900     50.98533      731          480          251 4.896482e-13 2.3391844e-14          0.1 0.0090081958    25.667944  0.029886338 
number of iterations: 1913 
   18000    51.209271      743          487          256 4.9613709e-13 2.3593748e-14          0.1 0.0090082998     26.04404  0.029886164 
number of iterations: 1869 
   18100    51.409237      757          498          259 5.0271197e-13 2.3797788e-14          0.1 0.0090083937    26.425133  0.029886008 
number of iterations: 1895 
   18200    51.640378      760          501          259 5.0937399e-13 2.4003986e-14          0.1 0.0090085036    26.811291  0.029885825 
number of iterations: 1933 
   18300     51.85778      769          508          261 5.1612429e-13 2.4212361e-14          0.1 0.0090086353    27.202581  0.029885605 
number of iterations: 1888 
   18400     52.05949      777          514          263 5.2296404e-13 2.4422935e-14          0.1 0.0090087428    27.599072  0.029885426 
number of iterations: 1897 
   18500    52.265687      785          521          264 5.2989443e-13 2.4635727e-14          0.1 0.0090088647    28.000832  0.029885223 
number of iterations: 1872 
   18600    52.476749      798          530          268 5.3691667e-13 2.4850761e-14          0.1  0.009008963    28.407933  0.029885059 
number of iterations: 1907 
   18700     52.69414      804          534          270 5.4403197e-13 2.5068056e-14          0.1 0.0090090844    28.820444  0.029884857 
number of iterations: 1887 
   18800     52.89981      813          542          271 5.5124156e-13 2.5287635e-14          0.1 0.0090091957    29.238438  0.029884671 
number of iterations: 1907 
   18900     53.16018      824          549          275 5.5854669e-13 2.5509519e-14          0.1 0.0090092991    29.661987  0.029884499 
number of iterations: 1888 
   19000    53.379075      830          554          276 5.6594863e-13 2.5733732e-14          0.1 0.0090094161    30.091166  0.029884304 
number of iterations: 1938 
   19100    53.592225      838          561          277 5.7344866e-13 2.5960294e-14          0.1 0.0090095476    30.526047  0.029884085 
number of iterations: 1905 
   19200    53.806802      854          572          282 5.8104808e-13 2.618923e-14          0.1 0.0090096746    30.966709  0.029883873 
number of iterations: 1937 
   19300     54.05018      865          580          285 5.8874821e-13 2.6420561e-14          0.1 0.0090098134    31.413227  0.029883642 
number of iterations: 1917 
   19400    54.267706      879          591          288 5.9655038e-13 2.665431e-14          0.1 0.0090099432    31.865679  0.029883426 
number of iterations: 1924 
   19500    54.463613      891          601          290 6.0445595e-13 2.6890502e-14          0.1 0.0090100716    32.324145  0.029883212 
number of iterations: 1930 
   19600    54.691937      899          606          293 6.1246628e-13 2.712916e-14          0.1 0.0090102076    32.788704  0.029882985 
number of iterations: 1879 
   19700    54.935362      909          615          294 6.2058277e-13 2.7370307e-14          0.1 0.0090103184    33.259437    0.0298828 
number of iterations: 1947 
   19800    55.137637      921          623          298 6.2880681e-13 2.7613968e-14          0.1 0.0090104535    33.736427  0.029882575 
number of iterations: 1935 
   19900    55.364356      932          629          303 6.3713984e-13 2.7860167e-14          0.1 0.0090106032    34.219757  0.029882326 
number of iterations: 2009 
   20000    55.564169      950          646          304 6.4558331e-13 2.8108929e-14          0.1 0.0090107624    34.709511  0.029882061 
number of iterations: 1928 
   20100    55.803362      953          649          304 6.5413866e-13 2.8360278e-14          0.1 0.0090108935    35.205774  0.029881842 
number of iterations: 1927 
   20200    56.014428      960          653          307 6.6280739e-13 2.8614239e-14          0.1 0.0090110188    35.708631  0.029881633 
number of iterations: 1976 
   20300    56.227743      967          659          308  6.71591e-13 2.8870837e-14          0.1 0.0090111738    36.218171  0.029881375 
number of iterations: 1967 
   20400    56.439876      981          671          310 6.8049101e-13 2.9130099e-14          0.1 0.0090113222    36.734482  0.029881128 
number of iterations: 1987 
   20500    56.671172      994          682          312 6.8950896e-13 2.9392049e-14          0.1 0.0090114796    37.257656  0.029880865 
number of iterations: 1945 
   20600    56.878001     1008          693          315 6.9864642e-13 2.9656715e-14          0.1 0.0090116166    37.787783  0.029880637 
number of iterations: 1936 
   20700    57.073588     1026          707          319 7.0790497e-13 2.9924122e-14          0.1 0.0090117598    38.324953  0.029880398 
number of iterations: 2020 
   20800    57.319351     1038          717          321 7.1728622e-13 3.0194296e-14          0.1 0.0090119198    38.869263  0.029880132 
number of iterations: 1962 
   20900    57.527595     1043          719          324 7.2679178e-13 3.0467266e-14          0.1 0.0090120816    39.420806  0.029879862 
number of iterations: 1987 
   21000    57.737297     1054          726          328 7.3642332e-13 3.0743057e-14          0.1 0.0090122352    39.979679  0.029879606 
number of iterations: 1973 
   21100    57.961536     1067          738          329 7.4618249e-13 3.1021698e-14          0.1 0.0090123862    40.545978  0.029879354 
number of iterations: 2006 
   21200    58.194701     1081          749          332 7.5607099e-13 3.1303216e-14          0.1 0.0090125772    41.119804  0.029879036 
number of iterations: 1988 
   21300    58.419989     1090          757          333 7.6609053e-13 3.158764e-14          0.1 0.0090127352    41.701255  0.029878773 
number of iterations: 2017 
   21400    58.635816     1100          765          335 7.7624285e-13 3.1874997e-14          0.1 0.0090129219    42.290433  0.029878462 
number of iterations: 1964 
   21500    58.842756     1111          772          339 7.8652971e-13 3.2165316e-14          0.1 0.0090130807    42.887441  0.029878197 
number of iterations: 2002 
   21600    59.097481     1123          780          343 7.9695289e-13 3.2458627e-14          0.1 0.0090132551    43.492383  0.029877906 
number of iterations: 1959 
   21700    59.334545     1133          788          345 8.075142e-13 3.2754957e-14          0.1  0.009013427    44.105365   0.02987762 
number of iterations: 2009 
   21800    59.580181     1154          808          346 8.1821547e-13 3.3054338e-14          0.1 0.0090136045    44.726494  0.029877324 
number of iterations: 2015 
   21900    59.803199     1160          812          348 8.2905855e-13 3.3356798e-14          0.1   0.00901379    45.355878  0.029877015 
number of iterations: 1992 
   22000    60.014426     1177          826          351 8.4004533e-13 3.3662367e-14          0.1  0.009013972    45.993626  0.029876712 
number of iterations: 2021 
   22100    60.224917     1191          838          353 8.511777e-13 3.3971077e-14          0.1 0.0090141604    46.639848  0.029876398 
number of iterations: 1985 
   22200    60.429704     1205          848          357 8.624576e-13 3.4282958e-14          0.1 0.0090143374    47.294658  0.029876103 
number of iterations: 2016 
   22300    60.642921     1220          859          361 8.7388698e-13 3.459804e-14          0.1 0.0090145262     47.95817  0.029875788 
number of iterations: 2022 
   22400    60.862664     1236          871          365 8.8546782e-13 3.4916355e-14          0.1 0.0090147334    48.630499  0.029875443 
number of iterations: 1996 
   22500    61.110379     1249          878          371 8.9720213e-13 3.5237935e-14          0.1 0.0090149143    49.311764  0.029875142 
number of iterations: 1996 
   22600    61.318252     1267          892          375 9.0909195e-13 3.5562811e-14          0.1 0.0090151054    50.002082  0.029874823 
number of iterations: 2036 
   22700     61.56025     1274          897          377 9.2113933e-13 3.5891017e-14          0.1 0.0090153094    50.701573  0.029874483 
number of iterations: 2032 
   22800    61.762103     1293          910          383 9.3334636e-13 3.6222585e-14          0.1 0.0090155157    51.410359   0.02987414 
number of iterations: 2057 
   22900    61.997589     1308          922          386 9.4571516e-13 3.6557547e-14          0.1 0.0090157373    52.128563   0.02987377 
number of iterations: 2022 
   23000    62.214415     1325          934          391 9.5824787e-13 3.6895938e-14          0.1 0.0090159391    52.856312  0.029873434 
number of iterations: 2052 
   23100    62.424114     1352          955          397 9.7094666e-13 3.7237789e-14          0.1 0.0090161443    53.593731  0.029873092 
number of iterations: 2047 
   23200    62.641188     1373          971          402 9.8381373e-13 3.7583137e-14          0.1 0.0090163644    54.340949  0.029872725 
number of iterations: 2039 
   23300      62.8698     1393          982          411 9.9685133e-13 3.7932013e-14          0.1 0.0090165987    55.098096  0.029872335 
number of iterations: 2080 
   23400    63.076366     1415          993          422 1.0100617e-12 3.8284453e-14          0.1 0.0090168219    55.865305  0.029871963 
number of iterations: 2047 
   23500     63.30616     1431         1008          423 1.0234471e-12 3.8640492e-14          0.1 0.0090170594    56.642708  0.029871567 
number of iterations: 2064 
   23600    63.548337     1457         1030          427 1.0370099e-12 3.9000166e-14          0.1 0.0090172944    57.430441  0.029871176 
number of iterations: 2077 
   23700    63.768503     1466         1038          428 1.0507525e-12 3.9363509e-14          0.1 0.0090175223    58.228642  0.029870796 
number of iterations: 2028 
   23800      63.9885     1479         1049          430 1.0646771e-12 3.9730559e-14          0.1  0.009017736     59.03745   0.02987044 
number of iterations: 2028 
   23900    64.192261     1501         1067          434 1.0787863e-12 4.0101352e-14          0.1 0.0090179301    59.857005  0.029870116 
number of iterations: 2066 
   24000    64.393539     1514         1076          438 1.0930825e-12 4.0475924e-14          0.1 0.0090181939    60.687451  0.029869677 
number of iterations: 2054 
   24100    64.620375     1538         1096          442 1.1075681e-12 4.0854313e-14          0.1 0.0090184371     61.52893  0.029869271 
number of iterations: 2045 
   24200    64.830463     1555         1111          444 1.1222457e-12 4.1236556e-14          0.1 0.0090186768    62.381591  0.029868872 
number of iterations: 2057 
   24300    65.047938     1565         1120          445 1.1371178e-12 4.1622691e-14          0.1 0.0090189224    63.245582  0.029868463 
number of iterations: 2044 
   24400    65.261871     1585         1135          450 1.152187e-12 4.2012756e-14          0.1 0.0090191603    64.121052  0.029868066 
number of iterations: 2043 
   24500    65.528178     1601         1147          454 1.1674558e-12 4.240679e-14          0.1 0.0090193848    65.008154  0.029867692 
number of iterations: 2066 
   24600    65.802054     1626         1166          460 1.182927e-12 4.2804832e-14          0.1 0.0090196256    65.907044  0.029867291 
number of iterations: 2044 
   24700    66.032922     1647         1183          464 1.1986033e-12 4.3206922e-14          0.1 0.0090198494    66.817878  0.029866918 
number of iterations: 2047 
   24800    66.253456     1672         1198          474 1.2144873e-12 4.3613098e-14          0.1 0.0090200935    67.740813  0.029866511 
number of iterations: 2077 
   24900    66.475684     1693         1216          477 1.2305817e-12 4.4023402e-14          0.1 0.0090203638     68.67601  0.029866061 
number of iterations: 2115 
   25000    66.718133     1718         1235          483 1.2468895e-12 4.4437875e-14          0.1 0.0090206419    69.623633  0.029865598 
number of iterations: 2083 
   25100    66.948259     1738         1253          485 1.2634134e-12 4.4856557e-14          0.1 0.0090209226    70.583848   0.02986513 
number of iterations: 2102 
   25200    67.163614     1760         1271          489 1.2801562e-12 4.5279491e-14          0.1 0.0090212067    71.556821  0.029864657 
number of iterations: 2068 
   25300    67.378574     1773         1279          494 1.2971209e-12 4.5706717e-14          0.1 0.0090214722    72.542721  0.029864214 
number of iterations: 2087 
   25400    67.601312     1802         1304          498 1.3143104e-12 4.6138278e-14          0.1 0.0090217293     73.54172  0.029863786 
number of iterations: 2069 
   25500    67.820613     1822         1318          504 1.3317278e-12 4.6574216e-14          0.1 0.0090220039    74.553991  0.029863328 
number of iterations: 2125 
   25600    68.038826     1841         1334          507 1.3493759e-12 4.7014576e-14          0.1 0.0090223253    75.579711  0.029862793 
number of iterations: 2090 
   25700    68.248143     1862         1352          510 1.3672579e-12  4.74594e-14          0.1 0.0090226216    76.619059  0.029862299 
number of iterations: 2068 
   25800    68.460739     1889         1374          515 1.3853769e-12 4.7908734e-14          0.1 0.0090228936    77.672216  0.029861846 
number of iterations: 2095 
   25900    68.686728     1908         1389          519 1.403736e-12 4.836262e-14          0.1 0.0090232062    78.739363  0.029861325 
number of iterations: 2116 
   26000     68.93305     1927         1405          522 1.4223383e-12 4.8821104e-14          0.1  0.009023521    79.820689    0.0298608 
number of iterations: 2107 
   26100    69.175197     1948         1418          530 1.4411872e-12 4.9284232e-14          0.1 0.0090238347    80.916382  0.029860278 
number of iterations: 2092 
   26200     69.41515     1971         1436          535 1.4602859e-12 4.9752049e-14          0.1 0.0090241272    82.026632   0.02985979 
number of iterations: 2149 
   26300    69.662607     1987         1451          536 1.4796377e-12 5.0224602e-14          0.1 0.0090244557    83.151632  0.029859243 
number of iterations: 2129 
   26400    69.887343     2012         1472          540 1.4992459e-12 5.0701937e-14          0.1 0.0090247885    84.291578  0.029858689 
number of iterations: 2104 
   26500    70.125888     2035         1491          544 1.519114e-12 5.1184102e-14          0.1 0.0090251054     85.44667  0.029858161 
number of iterations: 2098 
   26600    70.357608     2073         1522          551 1.5392454e-12 5.1671144e-14          0.1 0.0090254103    86.617107  0.029857653 
number of iterations: 2137 
   26700    70.585791     2096         1543          553 1.5596435e-12 5.2163113e-14          0.1 0.0090257701    87.803095  0.029857053 
number of iterations: 2118 
   26800    70.824486     2112         1555          557 1.5803119e-12 5.2660055e-14          0.1 0.0090260808    89.004839  0.029856535 
number of iterations: 2144 
   26900    71.060459     2139         1574          565 1.6012543e-12 5.3162021e-14          0.1  0.009026449    90.222548  0.029855922 
number of iterations: 2123 
   27000    71.287885     2165         1596          569 1.6224742e-12 5.366906e-14          0.1 0.0090267986    91.456435  0.029855339 
number of iterations: 2148 
   27100    71.549963     2202         1626          576 1.6439752e-12 5.4181224e-14          0.1 0.0090271731    92.706714  0.029854715 
number of iterations: 2148 
   27200    71.799094     2222         1644          578 1.6657613e-12 5.4698561e-14          0.1 0.0090275368    93.973603  0.029854109 
number of iterations: 2149 
   27300    72.027827     2253         1668          585 1.687836e-12 5.5221124e-14          0.1 0.0090279008    95.257322  0.029853503 
number of iterations: 2137 
   27400    72.250778     2279         1687          592 1.7102032e-12 5.5748963e-14          0.1 0.0090282631    96.558095  0.029852899 
number of iterations: 2137 
   27500    72.495512     2307         1709          598 1.7328669e-12 5.6282131e-14          0.1 0.0090286333    97.876148  0.029852282 
number of iterations: 2161 
   27600    72.750018     2338         1735          603 1.7558309e-12 5.6820682e-14          0.1 0.0090290243    99.211712  0.029851631 
number of iterations: 2189 
   27700     72.99476     2363         1757          606 1.7790992e-12 5.7364667e-14          0.1 0.0090294285    100.56502  0.029850957 
number of iterations: 2159 
   27800    73.223795     2383         1774          609 1.8026758e-12 5.7914141e-14          0.1 0.0090298247     101.9363  0.029850297 
number of iterations: 2171 
   27900    73.459297     2404         1790          614 1.8265649e-12 5.8469159e-14          0.1 0.0090302377     103.3258  0.029849609 
number of iterations: 2166 
   28000    73.712516     2441         1822          619 1.8507705e-12 5.9029775e-14          0.1 0.0090306374    104.73376  0.029848943 
number of iterations: 2208 
   28100    73.942959     2472         1844          628 1.875297e-12 5.9596045e-14          0.1  0.009031074    106.16043  0.029848216 
number of iterations: 2192 
   28200    74.186967     2504         1866          638 1.9001484e-12 6.0168024e-14          0.1 0.0090314691    107.60604  0.029847558 
number of iterations: 2179 
   28300    74.441424     2539         1895          644 1.9253292e-12 6.0745768e-14          0.1 0.0090318802    109.07086  0.029846873 
number of iterations: 2190 
   28400    74.690315     2566         1917          649 1.9508437e-12 6.1329337e-14          0.1 0.0090323145    110.55513  0.029846149 
number of iterations: 2166 
   28500     74.92214     2588         1936          652 1.9766962e-12 6.1918787e-14          0.1 0.0090327235    112.05912  0.029845468 
number of iterations: 2211 
   28600    75.166281     2620         1962          658 2.0028914e-12 6.2514174e-14          0.1 0.0090331468    113.58309  0.029844762 
number of iterations: 2175 
   28700    75.405797     2656         1993          663 2.0294337e-12 6.311556e-14          0.1 0.0090336056    115.12731  0.029843998 
number of iterations: 2179 
   28800    75.713183     2689         2019          670 2.0563277e-12 6.3723003e-14          0.1 0.0090340326    116.69204  0.029843286 
number of iterations: 2232 
   28900    75.956569     2722         2043          679 2.0835782e-12 6.4336563e-14          0.1 0.0090344688    118.27755   0.02984256 
number of iterations: 2200 
   29000    76.190027     2762         2071          691 2.1111897e-12 6.4956301e-14          0.1 0.0090349375    119.88412  0.029841779 
number of iterations: 2190 
   29100    76.452233     2796         2096          700 2.1391672e-12 6.558228e-14          0.1 0.0090354305    121.51203  0.029840958 
number of iterations: 2199 
   29200    76.699149     2837         2128          709 2.1675154e-12 6.6214559e-14          0.1 0.0090359007    123.16157  0.029840174 
number of iterations: 2251 
   29300    76.926265     2876         2162          714 2.1962393e-12 6.6853204e-14          0.1 0.0090363892    124.83301   0.02983936 
number of iterations: 2200 
   29400    77.177626     2904         2187          717 2.2253438e-12 6.7498276e-14          0.1 0.0090368827    126.52666  0.029838538 
number of iterations: 2203 
   29500    77.436728     2955         2226          729 2.2535424e-12 6.8149837e-14          0.1 0.0090373275    128.24181  0.029837797 
number of iterations: 2242 
   29600    77.751965     2982         2245          737 2.2834063e-12 6.8807954e-14          0.1 0.0090378373    129.97975  0.029836948 
number of iterations: 2199 
   29700    77.989541     3027         2285          742 2.3136659e-12 6.947269e-14          0.1 0.0090383402    131.74077   0.02983611 
number of iterations: 2218 
   29800    78.243738     3061         2311          750 2.3443265e-12 7.0144112e-14          0.1  0.009038831    133.52518  0.029835292 
number of iterations: 2207 
   29900    78.476735     3102         2343          759 2.3753934e-12 7.0822284e-14          0.1 0.0090393486    135.33329   0.02983443 
number of iterations: 2218 
   30000    78.708646     3147         2380          767 2.406872e-12 7.1507276e-14          0.1 0.0090398524    137.16541   0.02983359 
number of iterations: 2233 
   30100    78.990781     3189         2414          775 2.4387678e-12 7.2199155e-14          0.1 0.0090403793    139.02188  0.029832712 
number of iterations: 2234 
   30200    79.245502     3226         2445          781 2.4710862e-12 7.2897988e-14          0.1 0.0090409309      140.903  0.029831793 
number of iterations: 2258 
   30300    79.522476     3264         2479          785 2.503833e-12 7.3603845e-14          0.1 0.0090414869    142.80911  0.029830867 
number of iterations: 2244 
   30400    79.795088     3306         2516          790 2.5370136e-12 7.4316796e-14          0.1 0.0090420276    144.74053  0.029829966 
number of iterations: 2214 
   30500    80.032916     3347         2549          798 2.5692119e-12 7.5036911e-14          0.1 0.0090425094    146.69652  0.029829163 
number of iterations: 2216 
   30600    80.285068     3380         2576          804 2.6032589e-12 7.5764261e-14          0.1 0.0090430549    148.67848  0.029828254 
number of iterations: 2255 
   30700    80.544555     3436         2619          817 2.6377572e-12 7.6498918e-14          0.1 0.0090436612    150.68677  0.029827244 
number of iterations: 2240 
   30800    80.798934     3475         2648          827 2.6727125e-12 7.7240956e-14          0.1 0.0090442352    152.72173  0.029826288 
number of iterations: 2244 
   30900    81.055287     3512         2679          833 2.7081312e-12 7.7990446e-14          0.1 0.0090448033    154.78372  0.029825342 
number of iterations: 2259 
   31000    81.292472     3552         2709          843 2.7440191e-12 7.8747463e-14          0.1 0.0090453825     156.8731  0.029824376 
number of iterations: 2255 
   31100    81.536337     3599         2751          848 2.7803827e-12 7.9512081e-14          0.1 0.0090459388    158.99023   0.02982345 
number of iterations: 2251 
   31200    81.805294     3647         2791          856 2.8158889e-12 8.0284376e-14          0.1 0.0090465496    161.13445  0.029822432 
number of iterations: 2251 
   31300    82.061911     3692         2826          866 2.8532049e-12 8.1064425e-14          0.1 0.0090471379    163.30715  0.029821452 
number of iterations: 2276 
   31400    82.333295     3737         2866          871 2.8910153e-12 8.1852304e-14          0.1 0.0090477589     165.5087  0.029820417 
number of iterations: 2271 
   31500    82.584118     3800         2918          882 2.9293268e-12 8.2648092e-14          0.1 0.0090484007     167.7395  0.029819348 
number of iterations: 2271 
   31600    82.837265     3841         2948          893 2.968146e-12 8.3451867e-14          0.1 0.0090490672    169.99992  0.029818238 
number of iterations: 2255 
   31700    83.101365     3876         2979          897 3.0074796e-12 8.4263709e-14          0.1 0.0090496716    172.29036   0.02981723 
number of iterations: 2309 
   31800    83.349937     3913         3009          904 3.0465737e-12 8.5083697e-14          0.1 0.0090503382    174.61064   0.02981612 
number of iterations: 2281 
   31900    83.633183     3965         3049          916 3.0869466e-12 8.5911913e-14          0.1 0.0090509975    176.96173  0.029815022 
number of iterations: 2322 
   32000    83.895499     4012         3087          925 3.1278545e-12 8.6748437e-14          0.1 0.0090516854    179.34406  0.029813876 
number of iterations: 2276 
   32100    84.157748     4060         3126          934 3.1693045e-12 8.7593354e-14          0.1 0.0090523536    181.75802  0.029812762 
number of iterations: 2264 
   32200    84.441598     4113         3164          949 3.2102895e-12 8.8446746e-14          0.1 0.0090530077    184.20326  0.029811672 
number of iterations: 2301 
   32300     84.69017     4164         3203          961 3.2516815e-12 8.9308695e-14          0.1 0.0090537109    186.68011  0.029810501 
number of iterations: 2255 
   32400    84.950704     4221         3255          966 3.2947724e-12 9.0179289e-14          0.1 0.0090543616    189.18984  0.029809417 
number of iterations: 2284 
   32500    85.207727     4280         3300          980 3.3384344e-12 9.1058613e-14          0.1  0.009055084     191.7329  0.029808213 
number of iterations: 2322 
   32600     85.47348     4328         3341          987 3.3826749e-12 9.1946756e-14          0.1 0.0090558331    194.30974  0.029806965 
number of iterations: 2279 
   32700    85.784288     4376         3382          994 3.4275017e-12 9.2843803e-14          0.1 0.0090565405     196.9208  0.029805787 
number of iterations: 2298 
   32800    86.329511     4421         3416         1005 3.4729225e-12 9.3749843e-14          0.1 0.0090572754    199.56653  0.029804562 
number of iterations: 2299 
   32900     86.61359     4475         3459         1016 3.5179071e-12 9.4664966e-14          0.1 0.0090579948    202.24661  0.029803364 
number of iterations: 2309 
   33000     86.89356     4524         3500         1024 3.5645259e-12 9.5589262e-14          0.1 0.0090587713    204.96228   0.02980207 
number of iterations: 2332 
   33100    87.165684     4581         3546         1035 3.6117625e-12 9.6522824e-14          0.1 0.0090595753    207.71402  0.029800731 
number of iterations: 2326 
   33200    87.434507     4637         3590         1047 3.659625e-12 9.7465742e-14          0.1 0.0090604252    210.50231  0.029799315 
number of iterations: 2282 
   33300    87.723658     4683         3629         1054 3.7069168e-12 9.8418109e-14          0.1 0.0090611595     213.3267  0.029798091 
number of iterations: 2328 
   33400    88.023277     4748         3682         1066 3.7548881e-12 9.938002e-14          0.1 0.0090619191    216.18773  0.029796826 
number of iterations: 2305 
   33500    88.271561     4807         3730         1077 3.8038903e-12 1.0035157e-13          0.1 0.0090627285    219.08618  0.029795477 
number of iterations: 2354 
   33600    88.527908     4871         3785         1086 3.8542989e-12 1.0133285e-13          0.1   0.00906355    222.02313  0.029794109 
number of iterations: 2350 
   33700    88.812479     4939         3844         1095 3.9053754e-12 1.0232396e-13          0.1 0.0090643909    224.99908  0.029792708 
number of iterations: 2276 
   33800    89.128621     4996         3886         1110 3.9571288e-12 1.0332501e-13          0.1 0.0090651322    228.01455  0.029791473 
number of iterations: 2325 
   33900    89.416498     5060         3940         1120 4.009568e-12 1.0433607e-13          0.1 0.0090659681    231.07008   0.02979008 
number of iterations: 2359 
   34000    89.695153     5117         3987         1130 4.0613089e-12 1.0535727e-13          0.1 0.0090668505    234.16513   0.02978861 
number of iterations: 2318 
   34100    89.969634     5189         4049         1140 4.1151287e-12 1.0638869e-13          0.1 0.0090676858     237.3013  0.029787218 
number of iterations: 2352 
   34200    90.240545     5268         4115         1153 4.1696616e-12 1.0743044e-13          0.1 0.0090685984    240.47912  0.029785698 
number of iterations: 2338 
   34300    90.505763     5325         4169         1156 4.2235004e-12 1.0848263e-13          0.1 0.0090694215    243.69805  0.029784327 
number of iterations: 2341 
   34400    90.795525     5401         4230         1171 4.2794694e-12 1.0954535e-13          0.1 0.0090703587    246.95973  0.029782766 
number of iterations: 2333 
   34500    91.071645     5468         4284         1184 4.3347253e-12 1.1061871e-13          0.1 0.0090712596     250.2636  0.029781265 
number of iterations: 2368 
   34600    91.364493     5541         4344         1197 4.3921682e-12 1.1170283e-13          0.1 0.0090721938    253.61135  0.029779708 
number of iterations: 2337 
   34700    91.689888     5605         4400         1205 4.4489483e-12 1.1279779e-13          0.1 0.0090730918    257.00248  0.029778212 
number of iterations: 2393 
   34800    91.974512     5680         4458         1222 4.5079048e-12 1.1390373e-13          0.1 0.0090741203    260.43863  0.029776499 
number of iterations: 2341 
   34900    92.258222     5761         4524         1237 4.5666669e-12 1.1502073e-13          0.1 0.0090750795    263.91965  0.029774901 
number of iterations: 2388 
   35000    92.542686     5826         4580         1246 4.6250689e-12 1.1614892e-13          0.1 0.0090760297     267.4453  0.029773318 
Loop time of 92.5427 on 32 procs for 35000 steps with 5826 atoms

Performance: 326767987.760 tau/day, 378.204 timesteps/s
91.8% CPU use with 32 MPI tasks x no OpenMP threads

MPI task timing breakdown:
Section |  min time  |  avg time  |  max time  |%varavg| %total
---------------------------------------------------------------
Pair    | 0.017882   | 0.084749   | 0.26487    |  17.2 |  0.09
Neigh   | 0.0063413  | 0.025197   | 0.062207   |   7.8 |  0.03
Comm    | 0.10437    | 0.19928    | 0.29256    |  10.3 |  0.22
Output  | 21.94      | 21.941     | 21.949     |   0.0 | 23.71
Modify  | 69.769     | 69.818     | 69.889     |   0.3 | 75.44
Other   |            | 0.4743     |            |       |  0.51

Nlocal:    182.062 ave 397 max 40 min
Histogram: 2 5 4 7 3 4 4 1 1 1
Nghost:    113.469 ave 260 max 12 min
Histogram: 4 2 7 4 6 2 2 2 1 2
Neighs:    671.031 ave 1697 max 128 min
Histogram: 6 1 10 1 7 3 2 0 1 1

Total # of neighbors = 21473
Ave neighs/atom = 3.68572
Neighbor list builds = 674
Dangerous builds = 0
#shell cd ..
#clear
#next reps
#jump SELF
Total wall time: 0:01:32
