LAMMPS (20 Nov 2019)
# NUFEB simulation

atom_style	bio
atom_modify	map array sort 1000 5.0e-7
boundary	ff ff ff
newton		off
processors  * * *

comm_modify	vel yes

read_data_bio atom_1_1_26_1_2021-12-13.in
  orthogonal box = (0 0 0) to (0.001 0.001 0.0001)
  2 by 3 by 1 MPI processor grid
  reading atoms ...
  2 atoms
  4 nutrients

##############Define initial particle distribution##############

lattice sc 1e-6 origin 0 0 0
Lattice spacing in x,y,z = 100 100 100
region reg block 0 1000 0 1000 0 100

group CYANO type 1
1 atoms in group CYANO
group ECW type 2
1 atoms in group ECW

neighbor	5e-7 bin
neigh_modify	delay 0 one 5000

##############Define DEM Variables&Commands##############

pair_style  gran/hooke/history 1.e-4 NULL 1.e-5 NULL 0.0 1
pair_coeff  * *

timestep 10

fix 1 all nve/limit 1e-8
fix fv all viscous 1e-5

fix zw all wall/gran hooke/history 2000 NULL 500.0 NULL 1.5 0 zplane  0.0  0.0001

variable kanc equal 50

variable ke equal 5e+10


##############Define IBm Variables##############

#variables used in fix eps_extract
variable EPSdens equal 30
variable EPSratio equal 1.3

#variables used in fix division
variable divDia1 equal 1.96e-6
variable divDia2 equal 1.04e-6

#variables used in fix kinetics
variable diffT equal 1e-4
variable tol equal 1e-11
variable etaHET equal 0.6
variable layer equal -1

#variables used in fix death
#variable deadDia equal 9e-7


##############Define IBm Commands##############

fix k1 all kinetics 100 10 10 1 v_diffT v_layer niter 1000000
fix kgm all kinetics/growth/monod sucexp 0.264
fix g1 all kinetics/diffusion v_tol
fix d1 CYANO divide 100 v_EPSdens v_divDia1 737607
fix d2 ECW divide 100 v_EPSdens v_divDia2 848398
#fix d2 all death 1 v_deadDia demflag 0


##############Define IBm Computes##############

compute myNtypes all ntypes
compute myMass all biomass
compute myCon all avg_con

##############Simulation exit condition##############
variable co2 equal c_myCon[4]
fix 10 all halt 1000 v_co2 <= 1e-19

variable light equal c_myCon[1]
fix 11 all halt 1000 v_light <= 1e-19

##############Simulation Output##############


dump    du3 all bio 100 ntypes biomass avg_con
dump    traj all bio/hdf5 100 trajectory.h5 id type radius x y z con
thermo_style    custom step cpu atoms c_myNtypes[*] c_myMass[*] c_myCon[*]
thermo		100
thermo_modify	lost ignore


run 35000
Model is defined as a closed system. 
Neighbor list info ...
  update every 1 steps, delay 0 steps, check yes
  max neighbors/atom: 5000, page size: 100000
  master list distance cutoff = 1.89e-06
  ghost atom cutoff = 1.89e-06
  binsize = 9.45e-07, bins = 1059 1059 106
  1 neighbor lists, perpetual/occasional/extra = 1 0 0
  (1) pair gran/hooke/history, perpetual
      attributes: half, newton off, size, history
      pair build: half/size/bin/newtoff
      stencil: half/bin/3d/newtoff
      bin: standard
Per MPI rank memory allocation (min/avg/max) = 84.25 | 92.35 | 108.5 Mbytes
Step CPU Atoms c_myNtypes[1] c_myNtypes[2] c_myMass[1] c_myMass[2] c_myCon[1] c_myCon[2] c_myCon[3] c_myCon[4] 
       0            0        2            1            1 5.2028912e-16 1.3941014e-16          0.1        0.009     3.42e-20       0.0299 
number of iterations: 578270 
     100    3.9225273        3            1            2 5.2952825e-16 1.3941014e-16          0.1 0.0090000003 1.0238212e-08       0.0299 
number of iterations: 265413 
     200    5.6576541        3            1            2 5.3893145e-16 1.3941014e-16          0.1 0.0090000003 4.2271188e-08       0.0299 
number of iterations: 172210 
     300    6.8836722        3            1            2 5.4850162e-16 1.3941014e-16          0.1 0.0090000004 9.232855e-08  0.029899999 
number of iterations: 147151 
     400    7.8983608        3            1            2 5.5824174e-16 1.3941014e-16          0.1 0.0090000004 1.5007745e-07  0.029899999 
number of iterations: 128167 
     500    8.7856995        3            1            2 5.6815482e-16 1.3941014e-16          0.1 0.0090000004 2.1490206e-07  0.029899999 
number of iterations: 113190 
     600    9.5778678        3            1            2 5.7824393e-16 1.3941014e-16          0.1 0.0090000004 2.8630981e-07  0.029899999 
number of iterations: 100991 
     700    10.252978        3            1            2 5.885122e-16 1.3941014e-16          0.1 0.0090000004 3.639114e-07  0.029899999 
number of iterations: 90803 
     800    10.999296        3            1            2 5.9896282e-16 1.3941014e-16          0.1 0.0090000004 4.4739793e-07  0.029899999 
number of iterations: 82124 
     900    11.612015        3            1            2 6.0959901e-16 1.3941014e-16          0.1 0.0090000004 5.3652244e-07  0.029899999 
number of iterations: 74609 
    1000    12.503223        3            1            2 6.2042407e-16 1.3941014e-16          0.1 0.0090000004 6.3108737e-07  0.029899999 
number of iterations: 68016 
    1100    12.972129        3            1            2 6.3144137e-16 1.3941014e-16          0.1 0.0090000004 7.3093304e-07  0.029899999 
number of iterations: 62166 
    1200    13.418273        3            1            2 6.426543e-16 1.3941015e-16          0.1 0.0090000004 8.3593165e-07  0.029899999 
number of iterations: 56926 
    1300    13.834352        3            1            2 6.5406635e-16 1.3941015e-16          0.1 0.0090000004 9.4598082e-07  0.029899999 
number of iterations: 52194 
    1400    14.225469        3            1            2 6.6568106e-16 1.3941015e-16          0.1 0.0090000004 1.0609994e-06  0.029899999 
number of iterations: 47893 
    1500    14.591085        3            1            2 6.7750201e-16 1.3941015e-16          0.1 0.0090000005 1.1809223e-06  0.029899999 
number of iterations: 43959 
    1600    14.921745        3            1            2 6.8953288e-16 1.3941016e-16          0.1 0.0090000005   1.3057e-06  0.029899999 
number of iterations: 40342 
    1700    15.230437        3            1            2 7.0177738e-16 1.3941016e-16          0.1 0.0090000005 1.4352953e-06  0.029899999 
number of iterations: 37000 
    1800    15.516323        3            1            2 7.1423932e-16 1.3941016e-16          0.1 0.0090000005 1.5696824e-06  0.029899999 
number of iterations: 33900 
    1900     15.80691        3            1            2 7.2692256e-16 1.3941017e-16          0.1 0.0090000005 1.7088444e-06  0.029899999 
number of iterations: 31014 
    2000    16.461185        3            1            2 7.3983102e-16 1.3941017e-16          0.1 0.0090000005 1.8527727e-06  0.029899999 
number of iterations: 28318 
    2100    16.726869        3            1            2 7.529687e-16 1.3941017e-16          0.1 0.0090000005 2.0014661e-06  0.029899999 
number of iterations: 25792 
    2200    16.951959        3            1            2 7.6633968e-16 1.3941018e-16          0.1 0.0090000005 2.1549301e-06  0.029899999 
number of iterations: 23419 
    2300    17.159814        3            1            2 7.799481e-16 1.3941018e-16          0.1 0.0090000005 2.313176e-06  0.029899999 
number of iterations: 21183 
    2400    17.359574        3            1            2 7.9379817e-16 1.3941019e-16          0.1 0.0090000005 2.4762213e-06  0.029899999 
number of iterations: 19073 
    2500    17.545152        3            1            2 8.0789418e-16 1.3941019e-16          0.1 0.0090000005 2.6440872e-06  0.029899999 
number of iterations: 17077 
    2600    17.711965        3            1            2 8.2224051e-16 1.394102e-16          0.1 0.0090000006 2.8168001e-06  0.029899999 
number of iterations: 15185 
    2700    17.874032        3            1            2 8.368416e-16 1.3941021e-16          0.1 0.0090000006 2.9943907e-06  0.029899999 
number of iterations: 13389 
    2800    18.022201        3            1            2 8.5170197e-16 1.3941021e-16          0.1 0.0090000006 3.1768932e-06  0.029899999 
number of iterations: 11681 
    2900    18.160057        3            1            2 8.6682622e-16 1.3941022e-16          0.1 0.0090000006 3.3643459e-06  0.029899999 
number of iterations: 10054 
    3000    18.654586        3            1            2 8.8221904e-16 1.3941023e-16          0.1 0.0090000006 3.5567905e-06  0.029899999 
number of iterations: 8502 
    3100    18.777019        3            1            2 8.9788521e-16 1.3941024e-16          0.1 0.0090000006 3.7542724e-06  0.029899999 
number of iterations: 7020 
    3200    18.888941        3            1            2 9.1382957e-16 1.3941025e-16          0.1 0.0090000006 3.9568394e-06  0.029899999 
number of iterations: 5602 
    3300    18.994175        3            1            2 9.3005706e-16 1.3941026e-16          0.1 0.0090000006 4.1645436e-06  0.029899999 
number of iterations: 5214 
    3400    19.093257        3            1            2 9.4657272e-16 1.3941027e-16          0.1 0.0090000006 4.3774386e-06  0.029899999 
number of iterations: 5283 
    3500    19.184318        3            1            2 9.6338166e-16 1.3941028e-16          0.1 0.0090000007 4.5955796e-06  0.029899999 
number of iterations: 5351 
    3600     19.27235        3            1            2 9.8048909e-16 1.3941029e-16          0.1 0.0090000007 4.8190271e-06  0.029899999 
number of iterations: 5421 
    3700    19.357503        3            1            2 9.979003e-16 1.394103e-16          0.1 0.0090000007 5.047844e-06  0.029899999 
number of iterations: 5491 
    3800     19.44332        3            1            2 1.0156207e-15 1.3941031e-16          0.1 0.0090000007 5.2813171e-06  0.029899999 
number of iterations: 5562 
    3900    19.532834        3            1            2 1.0336558e-15 1.3941032e-16          0.1 0.0090000007 5.5189362e-06  0.029899999 
number of iterations: 5633 
    4000    19.985121        3            1            2 1.0520111e-15 1.3941033e-16          0.1 0.0090000007 5.7607748e-06  0.029899999 
number of iterations: 5705 
    4100    20.071744        3            1            2 1.0706924e-15 1.3941035e-16          0.1 0.0090000007 6.0069079e-06  0.029899999 
number of iterations: 5778 
    4200    20.156804        3            1            2 1.0897054e-15 1.3941036e-16          0.1 0.0090000007 6.2574118e-06  0.029899999 
number of iterations: 5852 
    4300    20.246835        3            1            2 1.109056e-15 1.3941038e-16          0.1 0.0090000008 6.512364e-06  0.029899999 
number of iterations: 5926 
    4400    20.334814        3            1            2 1.1287503e-15 1.3941039e-16          0.1 0.0090000008 6.7718436e-06  0.029899999 
number of iterations: 6000 
    4500    20.422473        3            1            2 1.1487943e-15 1.3941041e-16          0.1 0.0090000008 7.0359309e-06  0.029899999 
number of iterations: 6076 
    4600    20.511544        3            1            2 1.1691942e-15 1.3941042e-16          0.1 0.0090000008 7.3047078e-06  0.029899999 
number of iterations: 6152 
    4700    20.606269        3            1            2 1.1899564e-15 1.3941044e-16          0.1 0.0090000008 7.5782575e-06  0.029899999 
number of iterations: 6228 
    4800    20.699867        3            1            2 1.2110873e-15 1.3941046e-16          0.1 0.0090000008 7.8566649e-06  0.029899999 
number of iterations: 6306 
    4900    20.799096        3            1            2 1.2325934e-15 1.3941048e-16          0.1 0.0090000008 8.1400161e-06  0.029899999 
number of iterations: 6384 
    5000    21.293293        3            1            2 1.2544814e-15 1.394105e-16          0.1 0.0090000009 8.4283989e-06  0.029899999 
number of iterations: 6462 
    5100    21.394242        3            1            2 1.276758e-15 1.3941052e-16          0.1 0.0090000009 8.7219028e-06  0.029899999 
number of iterations: 6542 
    5200    21.502896        3            1            2 1.2994303e-15 1.3941054e-16          0.1 0.0090000009 9.0206186e-06  0.029899999 
number of iterations: 6621 
    5300    21.606034        3            1            2 1.3225052e-15 1.3941056e-16          0.1 0.0090000009 9.3246389e-06  0.029899999 
number of iterations: 6702 
    5400    21.707813        3            1            2 1.3459898e-15 1.3941058e-16          0.1 0.0090000009 9.6340579e-06  0.029899999 
number of iterations: 6784 
    5500    21.827573        3            1            2 1.3698915e-15 1.394106e-16          0.1 0.0090000009 9.9489714e-06  0.029899998 
number of iterations: 6865 
    5600    21.935818        3            1            2 1.3942176e-15 1.3941063e-16          0.1  0.009000001 1.0269477e-05  0.029899998 
number of iterations: 6948 
    5700    22.034924        3            1            2 1.4189756e-15 1.3941065e-16          0.1  0.009000001 1.0595674e-05  0.029899998 
number of iterations: 7031 
    5800    22.139271        3            1            2 1.4441734e-15 1.3941067e-16          0.1  0.009000001 1.0927665e-05  0.029899998 
number of iterations: 7115 
    5900    22.238911        3            1            2 1.4698185e-15 1.394107e-16          0.1  0.009000001 1.1265552e-05  0.029899998 
number of iterations: 25530 
    6000    22.935245        4            2            2 1.4959191e-15 1.3941073e-16          0.1  0.009000001 1.1609438e-05  0.029899998 
number of iterations: 4125 
    6100    23.009045        4            2            2 1.5224832e-15 1.3941075e-16          0.1  0.009000001 1.195943e-05  0.029899998 
number of iterations: 4834 
    6200    23.085689        4            2            2 1.5495189e-15 1.3941078e-16          0.1  0.009000001 1.2315638e-05  0.029899998 
number of iterations: 5116 
    6300    23.165261        4            2            2 1.5770348e-15 1.3941081e-16          0.1  0.009000001 1.267817e-05  0.029899998 
number of iterations: 5319 
    6400    23.245682        4            2            2 1.6050393e-15 1.3941084e-16          0.1  0.009000001 1.3047141e-05  0.029899998 
number of iterations: 5473 
    6500    23.328652        4            2            2 1.6335411e-15 1.3941087e-16          0.1  0.009000001 1.3422664e-05  0.029899998 
number of iterations: 5594 
    6600    23.410567        4            2            2 1.662549e-15 1.394109e-16          0.1 0.0090000011 1.3804855e-05  0.029899998 
number of iterations: 5698 
    6700    23.498511        4            2            2 1.692072e-15 1.3941093e-16          0.1 0.0090000011 1.4193832e-05  0.029899998 
number of iterations: 5791 
    6800    23.591239        4            2            2 1.7221193e-15 1.3941097e-16          0.1 0.0090000011 1.4589718e-05  0.029899998 
number of iterations: 5877 
    6900    23.684979        4            2            2 1.7527001e-15  1.39411e-16          0.1 0.0090000011 1.4992633e-05  0.029899998 
number of iterations: 5961 
    7000    24.181577        4            2            2 1.783824e-15 1.3941104e-16          0.1 0.0090000011 1.5402703e-05  0.029899998 
number of iterations: 6041 
    7100    24.272665        4            2            2 1.8155006e-15 1.3941107e-16          0.1 0.0090000011 1.5820055e-05  0.029899998 
number of iterations: 6122 
    7200    24.362594        4            2            2 1.8477397e-15 1.3941111e-16          0.1 0.0090000012 1.6244818e-05  0.029899998 
number of iterations: 6203 
    7300    24.456154        4            2            2 1.8805512e-15 1.3941115e-16          0.1 0.0090000012 1.6677124e-05  0.029899998 
number of iterations: 6283 
    7400    24.552751        4            2            2 1.9139455e-15 1.3941119e-16          0.1 0.0090000012 1.7117106e-05  0.029899998 
number of iterations: 6363 
    7500    24.649373        4            2            2 1.9479327e-15 1.3941123e-16          0.1 0.0090000012 1.7564902e-05  0.029899998 
number of iterations: 6444 
    7600    24.739001        4            2            2 1.9825235e-15 1.3941127e-16          0.1 0.0090000013 1.8020649e-05  0.029899998 
number of iterations: 6526 
    7700    24.836944        4            2            2 2.0177285e-15 1.3941131e-16          0.1 0.0090000013 1.848449e-05  0.029899998 
number of iterations: 6609 
    7800    24.934274        4            2            2 2.0535587e-15 1.3941135e-16          0.1 0.0090000013 1.8956567e-05  0.029899998 
number of iterations: 6691 
    7900    25.030031        4            2            2 2.0900251e-15 1.394114e-16          0.1 0.0090000013 1.9437027e-05  0.029899998 
number of iterations: 6775 
    8000    25.483997        4            2            2 2.1271391e-15 1.3941144e-16          0.1 0.0090000013 1.9926019e-05  0.029899998 
number of iterations: 6859 
    8100    25.578826        4            2            2 2.1649122e-15 1.3941149e-16          0.1 0.0090000014 2.0423695e-05  0.029899998 
number of iterations: 6944 
    8200    25.675022        4            2            2 2.203356e-15 1.3941154e-16          0.1 0.0090000014 2.0930208e-05  0.029899998 
number of iterations: 7030 
    8300    25.775038        4            2            2 2.2424825e-15 1.3941159e-16          0.1 0.0090000014 2.1445715e-05  0.029899998 
number of iterations: 7116 
    8400    25.884526        4            2            2 2.2823038e-15 1.3941164e-16          0.1 0.0090000014 2.1970377e-05  0.029899998 
number of iterations: 7203 
    8500    25.998485        4            2            2 2.3228322e-15 1.3941169e-16          0.1 0.0090000015 2.2504355e-05  0.029899998 
number of iterations: 7291 
    8600    26.115616        4            2            2 2.3640803e-15 1.3941174e-16          0.1 0.0090000015 2.3047816e-05  0.029899998 
number of iterations: 7380 
    8700    26.229023        4            2            2 2.4060609e-15 1.3941179e-16          0.1 0.0090000015 2.3600927e-05  0.029899998 
number of iterations: 7469 
    8800      26.3548        4            2            2 2.448787e-15 1.3941185e-16          0.1 0.0090000016 2.416386e-05  0.029899997 
number of iterations: 7559 
    8900    26.537187        4            2            2 2.4922718e-15 1.3941191e-16          0.1 0.0090000016 2.473679e-05  0.029899997 
number of iterations: 7649 
    9000    27.024359        4            2            2 2.5365287e-15 1.3941196e-16          0.1 0.0090000016 2.5319894e-05  0.029899997 
number of iterations: 7741 
    9100    27.129065        4            2            2 2.5815716e-15 1.3941202e-16          0.1 0.0090000016 2.5913352e-05  0.029899997 
number of iterations: 7832 
    9200    27.234968        4            2            2 2.6274143e-15 1.3941208e-16          0.1 0.0090000017 2.6517348e-05  0.029899997 
number of iterations: 7925 
    9300    27.343542        4            2            2 2.6740711e-15 1.3941215e-16          0.1 0.0090000017 2.713207e-05  0.029899997 
number of iterations: 8019 
    9400    27.453202        5            3            2 2.7215564e-15 1.3941221e-16          0.1 0.0090000017 2.7757708e-05  0.029899997 
number of iterations: 8112 
    9500    27.565588        5            3            2 2.769885e-15 1.3941227e-16          0.1 0.0090000018 2.8394456e-05  0.029899997 
number of iterations: 8208 
    9600    27.684138        5            3            2 2.8190717e-15 1.3941234e-16          0.1 0.0090000018 2.9042511e-05  0.029899997 
number of iterations: 8303 
    9700    27.792548        5            3            2 2.8691319e-15 1.3941241e-16          0.1 0.0090000018 2.9702074e-05  0.029899997 
number of iterations: 8399 
    9800    27.899489        5            3            2 2.920081e-15 1.3941248e-16          0.1 0.0090000019 3.037335e-05  0.029899997 
number of iterations: 8496 
    9900    28.016806        5            3            2 2.9719349e-15 1.3941255e-16          0.1 0.0090000019 3.1056545e-05  0.029899997 
number of iterations: 8593 
   10000    28.490891        5            3            2 3.0247096e-15 1.3941262e-16          0.1 0.0090000019 3.1751873e-05  0.029899997 
number of iterations: 8692 
   10100    28.602124        5            3            2 3.0784214e-15 1.394127e-16          0.1  0.009000002 3.2459548e-05  0.029899997 
number of iterations: 8790 
   10200    28.718566        5            3            2 3.133087e-15 1.3941277e-16          0.1  0.009000002 3.317979e-05  0.029899997 
number of iterations: 8890 
   10300    28.829585        5            3            2 3.1887234e-15 1.3941285e-16          0.1  0.009000002 3.3912821e-05  0.029899997 
number of iterations: 8990 
   10400    28.943718        5            3            2 3.2453477e-15 1.3941293e-16          0.1 0.0090000021 3.4658869e-05  0.029899997 
number of iterations: 9091 
   10500    29.067671        5            3            2 3.3029776e-15 1.3941301e-16          0.1 0.0090000021 3.5418166e-05  0.029899997 
number of iterations: 9193 
   10600    29.190741        6            4            2 3.3616308e-15 1.3941309e-16          0.1 0.0090000022 3.6190946e-05  0.029899996 
number of iterations: 9295 
   10700     29.31627        6            4            2 3.4213256e-15 1.3941318e-16          0.1 0.0090000022 3.6977448e-05  0.029899996 
number of iterations: 9398 
   10800    29.435438        6            4            2 3.4820804e-15 1.3941326e-16          0.1 0.0090000022 3.7777918e-05  0.029899996 
number of iterations: 9501 
   10900    29.555001        6            4            2 3.5439141e-15 1.3941335e-16          0.1 0.0090000023 3.8592601e-05  0.029899996 
number of iterations: 9606 
   11000    30.050485        6            4            2 3.6068458e-15 1.3941344e-16          0.1 0.0090000023 3.9421751e-05  0.029899996 
number of iterations: 9711 
   11100    30.180859        6            4            2 3.670895e-15 1.3941353e-16          0.1 0.0090000024 4.0265626e-05  0.029899996 
number of iterations: 9816 
   11200    30.306138        6            4            2 3.7360816e-15 1.3941363e-16          0.1 0.0090000024 4.1124485e-05  0.029899996 
number of iterations: 9922 
   11300    30.428224        6            4            2 3.8024257e-15 1.3941372e-16          0.1 0.0090000024 4.1998596e-05  0.029899996 
number of iterations: 10029 
   11400    30.554346        6            4            2 3.869948e-15 1.3941382e-16          0.1 0.0090000025 4.2888229e-05  0.029899996 
number of iterations: 10137 
   11500    30.677685        6            4            2 3.9386693e-15 1.3941392e-16          0.1 0.0090000025 4.379366e-05  0.029899996 
number of iterations: 10245 
   11600    30.810301        6            4            2 4.0086109e-15 1.3941403e-16          0.1 0.0090000026 4.4715169e-05  0.029899996 
number of iterations: 10354 
   11700    30.948592        6            4            2 4.0797946e-15 1.3941413e-16          0.1 0.0090000026 4.5653042e-05  0.029899996 
number of iterations: 10463 
   11800    31.085285        6            4            2 4.1522423e-15 1.3941424e-16          0.1 0.0090000027 4.6607569e-05  0.029899996 
number of iterations: 10574 
   11900    31.230872        6            4            2 4.2259765e-15 1.3941435e-16          0.1 0.0090000027 4.7579047e-05  0.029899996 
number of iterations: 10684 
   12000    31.764917        6            4            2  4.30102e-15 1.3941446e-16          0.1 0.0090000028 4.8567775e-05  0.029899995 
number of iterations: 10796 
   12100    31.920289        6            4            2 4.3773962e-15 1.3941457e-16          0.1 0.0090000028 4.9574062e-05  0.029899995 
number of iterations: 10908 
   12200    32.052331        6            4            2 4.4551286e-15 1.3941469e-16          0.1 0.0090000029 5.0598217e-05  0.029899995 
number of iterations: 11020 
   12300    32.194222        6            4            2 4.5342413e-15 1.394148e-16          0.1 0.0090000029 5.164056e-05  0.029899995 
number of iterations: 11134 
   12400    32.335819        6            4            2 4.614759e-15 1.3941493e-16          0.1  0.009000003 5.2701411e-05  0.029899995 
number of iterations: 11248 
   12500    32.474158        6            4            2 4.6967064e-15 1.3941505e-16          0.1  0.009000003 5.3781101e-05  0.029899995 
number of iterations: 11362 
   12600    32.611043        6            4            2 4.780109e-15 1.3941517e-16          0.1 0.0090000031 5.4879964e-05  0.029899995 
number of iterations: 11477 
   12700    32.758652        6            4            2 4.8649927e-15 1.394153e-16          0.1 0.0090000031 5.599834e-05  0.029899995 
number of iterations: 11593 
   12800    32.899505        6            4            2 4.9513837e-15 1.3941543e-16          0.1 0.0090000032 5.7136576e-05  0.029899995 
number of iterations: 11710 
   12900     33.04467        6            4            2 5.0393088e-15 1.3941557e-16          0.1 0.0090000032 5.8295025e-05  0.029899995 
number of iterations: 11826 
   13000    33.555712        6            4            2 5.1287952e-15 1.394157e-16          0.1 0.0090000033 5.9474044e-05  0.029899995 
number of iterations: 11944 
   13100    33.700336        6            4            2 5.2198707e-15 1.3941584e-16          0.1 0.0090000034   6.0674e-05  0.029899994 
number of iterations: 26353 
   13200    33.994116        7            5            2 5.3125635e-15 1.3941598e-16          0.1 0.0090000035 6.1895266e-05  0.029899994 
number of iterations: 12266 
   13300    34.142105        7            5            2 5.4069023e-15 1.3941613e-16          0.1 0.0090000035 6.3138218e-05  0.029899994 
number of iterations: 12681 
   13400    34.297731        8            6            2 5.5029164e-15 1.3941628e-16          0.1 0.0090000036 6.4403242e-05  0.029899994 
number of iterations: 12862 
   13500    34.447118        8            6            2 5.6006354e-15 1.3941643e-16          0.1 0.0090000037 6.569073e-05  0.029899994 
number of iterations: 12998 
   13600    34.601669        8            6            2 5.7000897e-15 1.3941658e-16          0.1 0.0090000037 6.7001081e-05  0.029899994 
number of iterations: 13127 
   13700    34.761314        8            6            2 5.8013101e-15 1.3941674e-16          0.1 0.0090000038 6.8334701e-05  0.029899994 
number of iterations: 13254 
   13800    34.917234        8            6            2 5.9043279e-15 1.394169e-16          0.1 0.0090000039 6.9692003e-05  0.029899994 
number of iterations: 13382 
   13900    35.074354        8            6            2 6.0091751e-15 1.3941706e-16          0.1 0.0090000039 7.1073407e-05  0.029899994 
number of iterations: 13510 
   14000    35.619373        8            6            2 6.1158841e-15 1.3941723e-16          0.1  0.009000004 7.2479342e-05  0.029899993 
number of iterations: 13639 
   14100    35.778558        8            6            2 6.2244881e-15 1.394174e-16          0.1 0.0090000041 7.3910243e-05  0.029899993 
number of iterations: 13768 
   14200    35.962212        8            6            2 6.3350205e-15 1.3941757e-16          0.1 0.0090000042 7.5366553e-05  0.029899993 
number of iterations: 13899 
   14300    36.152318        8            6            2 6.4475158e-15 1.3941775e-16          0.1 0.0090000042 7.6848724e-05  0.029899993 
number of iterations: 14029 
   14400    36.381829        9            7            2 6.5620088e-15 1.3941793e-16          0.1 0.0090000043 7.8357215e-05  0.029899993 
number of iterations: 14160 
   14500    36.632747        9            7            2 6.6785348e-15 1.3941811e-16          0.1 0.0090000044 7.9892493e-05  0.029899993 
number of iterations: 14292 
   14600    36.879445        9            7            2 6.7971301e-15 1.394183e-16          0.1 0.0090000045 8.1455034e-05  0.029899993 
number of iterations: 14425 
   14700    37.066859       10            8            2 6.9178314e-15 1.3941849e-16          0.1 0.0090000045 8.3045322e-05  0.029899993 
number of iterations: 14558 
   14800    37.256308       10            8            2 7.040676e-15 1.3941868e-16          0.1 0.0090000046 8.4663851e-05  0.029899992 
number of iterations: 14691 
   14900    37.430107       10            8            2 7.1657021e-15 1.3941888e-16          0.1 0.0090000047 8.631112e-05  0.029899992 
number of iterations: 14826 
   15000    37.976525       10            8            2 7.2929484e-15 1.3941908e-16          0.1 0.0090000048 8.7987641e-05  0.029899992 
number of iterations: 14960 
   15100    38.153824       10            8            2 7.4224542e-15 1.3941929e-16          0.1 0.0090000049 8.9693933e-05  0.029899992 
number of iterations: 15096 
   15200    38.327031       10            8            2 7.5542598e-15 1.394195e-16          0.1  0.009000005 9.1430525e-05  0.029899992 
number of iterations: 15232 
   15300    38.500684       10            8            2 7.688406e-15 1.3941971e-16          0.1 0.0090000051 9.3197955e-05  0.029899992 
number of iterations: 15368 
   15400    38.671858       10            8            2 7.8249342e-15 1.3941993e-16          0.1 0.0090000052 9.499677e-05  0.029899992 
number of iterations: 15506 
   15500    38.851538       10            8            2 7.9638869e-15 1.3942015e-16          0.1 0.0090000052 9.6827529e-05  0.029899991 
number of iterations: 15643 
   15600    39.025534       10            8            2 8.1053071e-15 1.3942038e-16          0.1 0.0090000053 9.8690797e-05  0.029899991 
number of iterations: 15781 
   15700     39.20128       10            8            2 8.2492386e-15 1.3942061e-16          0.1 0.0090000054 0.00010058715  0.029899991 
number of iterations: 15920 
   15800    39.386055       10            8            2 8.3957259e-15 1.3942084e-16          0.1 0.0090000055 0.00010251718  0.029899991 
number of iterations: 16060 
   15900     39.56959       10            8            2 8.5448145e-15 1.3942108e-16          0.1 0.0090000056 0.00010448149  0.029899991 
number of iterations: 16200 
   16000    40.114295       10            8            2 8.6965506e-15 1.3942133e-16          0.1 0.0090000057 0.00010648067  0.029899991 
number of iterations: 29003 
   16100    40.447057       11            9            2 8.8509812e-15 1.3942158e-16          0.1 0.0090000059 0.00010851536   0.02989999 
number of iterations: 16839 
   16200    40.640597       11            9            2 9.0081541e-15 1.3942183e-16          0.1  0.009000006 0.00011058617   0.02989999 
number of iterations: 17167 
   16300    40.840056       11            9            2 9.1681181e-15 1.3942209e-16          0.1 0.0090000061 0.00011269376   0.02989999 
number of iterations: 17329 
   16400    41.043183       11            9            2 9.3309226e-15 1.3942235e-16          0.1 0.0090000062 0.00011483878   0.02989999 
number of iterations: 17474 
   16500    41.246425       11            9            2 9.4966181e-15 1.3942262e-16          0.1 0.0090000064 0.00011702189   0.02989999 
number of iterations: 17617 
   16600    41.459488       12           10            2 9.6652561e-15 1.3942289e-16          0.1 0.0090000065 0.00011924376  0.029899989 
number of iterations: 17760 
   16700    41.707969       12           10            2 9.8368886e-15 1.3942317e-16          0.1 0.0090000066 0.00012150509  0.029899989 
number of iterations: 17905 
   16800    41.918423       12           10            2 1.0011569e-14 1.3942346e-16          0.1 0.0090000067 0.00012380658  0.029899989 
number of iterations: 18049 
   16900    42.118088       12           10            2 1.0189351e-14 1.3942375e-16          0.1 0.0090000068 0.00012614893  0.029899989 
number of iterations: 18194 
   17000    42.684926       12           10            2 1.037029e-14 1.3942404e-16          0.1 0.0090000069 0.00012853288  0.029899989 
number of iterations: 18339 
   17100    42.902573       12           10            2 1.0554443e-14 1.3942434e-16          0.1 0.0090000071 0.00013095916  0.029899988 
number of iterations: 18486 
   17200    43.124892       12           10            2 1.0741865e-14 1.3942465e-16          0.1 0.0090000072 0.00013342853  0.029899988 
number of iterations: 18632 
   17300    43.334453       12           10            2 1.0932616e-14 1.3942496e-16          0.1 0.0090000073 0.00013594175  0.029899988 
number of iterations: 18779 
   17400    43.544385       12           10            2 1.1126754e-14 1.3942528e-16          0.1 0.0090000074 0.00013849959  0.029899988 
number of iterations: 18926 
   17500    43.753291       12           10            2 1.1324339e-14 1.394256e-16          0.1 0.0090000076 0.00014110286  0.029899987 
number of iterations: 19074 
   17600    43.970834       12           10            2 1.1525433e-14 1.3942593e-16          0.1 0.0090000077 0.00014375236  0.029899987 
number of iterations: 19223 
   17700     44.18718       13           11            2 1.1730098e-14 1.3942627e-16          0.1 0.0090000079 0.0001464489  0.029899987 
number of iterations: 19372 
   17800    44.411689       13           11            2 1.1938397e-14 1.3942661e-16          0.1  0.009000008 0.00014919333  0.029899987 
number of iterations: 19521 
   17900    44.633143       13           11            2 1.2150396e-14 1.3942696e-16          0.1 0.0090000081 0.0001519865  0.029899987 
number of iterations: 19671 
   18000    45.189087       13           11            2 1.2366159e-14 1.3942732e-16          0.1 0.0090000083 0.00015482926  0.029899986 
number of iterations: 19821 
   18100    45.404265       13           11            2 1.2585753e-14 1.3942768e-16          0.1 0.0090000084 0.00015772251  0.029899986 
number of iterations: 19972 
   18200    45.635449       15           13            2 1.2809247e-14 1.3942805e-16          0.1 0.0090000086 0.00016066713  0.029899986 
number of iterations: 26681 
   18300    45.972391       16           14            2 1.3036709e-14 1.3942842e-16          0.1 0.0090000087 0.00016366404  0.029899986 
number of iterations: 18193 
   18400     46.22152       16           14            2 1.3268211e-14 1.394288e-16          0.1 0.0090000088 0.00016671417  0.029899985 
number of iterations: 20036 
   18500    46.479816       17           15            2 1.3503823e-14 1.3942919e-16          0.1  0.009000009 0.00016981846  0.029899985 
number of iterations: 20236 
   18600    46.735816       17           15            2 1.374362e-14 1.3942959e-16          0.1 0.0090000091 0.00017297788  0.029899985 
number of iterations: 20398 
   18700    46.963762       17           15            2 1.3987675e-14   1.3943e-16          0.1 0.0090000093 0.0001761934  0.029899985 
number of iterations: 20554 
   18800    47.187315       17           15            2 1.4236064e-14 1.3943041e-16          0.1 0.0090000095 0.00017946602  0.029899984 
number of iterations: 20708 
   18900    47.409049       17           15            2 1.4488863e-14 1.3943083e-16          0.1 0.0090000096 0.00018279676  0.029899984 
number of iterations: 20864 
   19000    48.004532       17           15            2 1.4746152e-14 1.3943126e-16          0.1 0.0090000098 0.00018618664  0.029899984 
number of iterations: 21019 
   19100     48.23891       17           15            2 1.5008009e-14 1.3943169e-16          0.1   0.00900001 0.00018963672  0.029899983 
number of iterations: 21175 
   19200    48.476041       17           15            2 1.5274517e-14 1.3943213e-16          0.1 0.0090000101 0.00019314806  0.029899983 
number of iterations: 21331 
   19300    48.709477       17           15            2 1.5545757e-14 1.3943259e-16          0.1 0.0090000103 0.00019672176  0.029899983 
number of iterations: 21488 
   19400    48.948834       17           15            2 1.5821813e-14 1.3943305e-16          0.1 0.0090000105 0.00020035892  0.029899983 
number of iterations: 21645 
   19500      49.1802       17           15            2 1.6102772e-14 1.3943352e-16          0.1 0.0090000107 0.00020406066  0.029899982 
number of iterations: 21802 
   19600    49.420729       17           15            2 1.638872e-14 1.3943399e-16          0.1 0.0090000109 0.00020782814  0.029899982 
number of iterations: 21960 
   19700    49.663013       18           16            2 1.6679745e-14 1.3943448e-16          0.1 0.0090000111 0.00021166252  0.029899982 
number of iterations: 22119 
   19800    49.901767       19           17            2 1.6975939e-14 1.3943497e-16          0.1 0.0090000113 0.00021556499  0.029899981 
number of iterations: 22278 
   19900    50.174901       19           17            2 1.7277392e-14 1.3943548e-16          0.1 0.0090000115 0.00021953676  0.029899981 
number of iterations: 22437 
   20000    50.815835       19           17            2 1.7584199e-14 1.3943599e-16          0.1 0.0090000117 0.00022357906  0.029899981 
number of iterations: 22597 
   20100    51.089549       19           17            2 1.7896453e-14 1.3943651e-16          0.1 0.0090000119 0.00022769314   0.02989998 
number of iterations: 29667 
   20200    51.477167       19           17            2 1.8214253e-14 1.3943705e-16          0.1  0.009000012 0.00023188028   0.02989998 
number of iterations: 20954 
   20300    51.749634       20           18            2 1.8537696e-14 1.3943759e-16          0.1 0.0090000122 0.00023614177   0.02989998 
number of iterations: 33130 
   20400    52.173018       21           19            2 1.8866882e-14 1.3943814e-16          0.1 0.0090000126 0.00024047894  0.029899979 
number of iterations: 23110 
   20500    52.435303       21           19            2 1.9201914e-14 1.394387e-16          0.1 0.0090000128 0.00024489312  0.029899979 
number of iterations: 23396 
   20600    52.716075       21           19            2 1.9542896e-14 1.3943928e-16          0.1  0.009000013 0.00024938569  0.029899978 
number of iterations: 23564 
   20700    52.993732       21           19            2 1.9889932e-14 1.3943986e-16          0.1 0.0090000132 0.00025395803  0.029899978 
number of iterations: 23727 
   20800    53.271433       22           20            2 2.0243131e-14 1.3944045e-16          0.1 0.0090000135 0.00025861158  0.029899978 
number of iterations: 23890 
   20900    53.544069       22           20            2 2.0602602e-14 1.3944106e-16          0.1 0.0090000137 0.00026334775  0.029899977 
number of iterations: 24054 
   21000    54.179945       23           21            2 2.0968457e-14 1.3944167e-16          0.1 0.0090000139 0.00026816803  0.029899977 
number of iterations: 24218 
   21100    54.451834       24           22            2 2.1340808e-14 1.394423e-16          0.1 0.0090000142 0.00027307391  0.029899976 
number of iterations: 24382 
   21200    54.731632       24           22            2 2.1719771e-14 1.3944294e-16          0.1 0.0090000144 0.00027806691  0.029899976 
number of iterations: 24547 
   21300    55.009688       24           22            2 2.2105464e-14 1.3944359e-16          0.1 0.0090000147 0.00028314856  0.029899976 
number of iterations: 24712 
   21400    55.282153       25           23            2 2.2498006e-14 1.3944425e-16          0.1  0.009000015 0.00028832046  0.029899975 
number of iterations: 30592 
   21500    55.669671       25           23            2 2.2897518e-14 1.3944493e-16          0.1 0.0090000152 0.0002935842  0.029899975 
number of iterations: 23532 
   21600    55.949429       25           23            2 2.3304125e-14 1.3944561e-16          0.1 0.0090000154 0.00029894141  0.029899974 
number of iterations: 24863 
   21700    56.263293       25           23            2 2.3717952e-14 1.3944631e-16          0.1 0.0090000157 0.00030439375  0.029899974 
number of iterations: 25062 
   21800    56.622907       25           23            2 2.4139128e-14 1.3944703e-16          0.1 0.0090000159 0.00030994291  0.029899974 
number of iterations: 25234 
   21900    56.958441       25           23            2 2.4567783e-14 1.3944775e-16          0.1 0.0090000162 0.00031559061  0.029899973 
number of iterations: 28733 
   22000    57.708654       26           24            2 2.500405e-14 1.3944849e-16          0.1 0.0090000165 0.0003213386  0.029899973 
number of iterations: 24701 
   22100    57.979872       27           25            2 2.5448064e-14 1.3944924e-16          0.1 0.0090000167 0.00032718866  0.029899972 
number of iterations: 25566 
   22200    58.294686       27           25            2 2.5899962e-14 1.3945001e-16          0.1  0.009000017 0.0003331426  0.029899972 
number of iterations: 25752 
   22300    58.582562       27           25            2 2.6359885e-14 1.3945078e-16          0.1 0.0090000173 0.00033920228  0.029899971 
number of iterations: 25925 
   22400    58.873469       28           26            2 2.6827976e-14 1.3945158e-16          0.1 0.0090000176 0.00034536955  0.029899971 
number of iterations: 26095 
   22500      59.1681       28           26            2 2.7304378e-14 1.3945239e-16          0.1  0.009000018 0.00035164635   0.02989997 
number of iterations: 30499 
   22600    59.523168       29           27            2 2.7789241e-14 1.3945323e-16          0.1 0.0090000183 0.00035803461   0.02989997 
number of iterations: 25085 
   22700    59.820376       29           27            2 2.8282713e-14 1.3945409e-16          0.1 0.0090000186 0.0003645363  0.029899969 
number of iterations: 26384 
   22800    60.122331       30           28            2 2.8784949e-14 1.3945496e-16          0.1 0.0090000189 0.00037115345  0.029899969 
number of iterations: 26598 
   22900    60.415367       30           28            2 2.9296102e-14 1.3945585e-16          0.1 0.0090000193 0.00037788811  0.029899968 
number of iterations: 33042 
   23000    61.223029       31           29            2 2.9816333e-14 1.3945676e-16          0.1 0.0090000197 0.00038474236  0.029899967 
number of iterations: 32262 
   23100     61.66005       31           29            2 3.0345802e-14 1.3945769e-16          0.1 0.0090000199 0.00039171833  0.029899967 
number of iterations: 25967 
   23200    61.951177       31           29            2 3.0884673e-14 1.3945863e-16          0.1 0.0090000203 0.00039881817  0.029899966 
number of iterations: 32395 
   23300    62.315632       32           30            2 3.1433113e-14 1.3945958e-16          0.1 0.0090000207 0.00040604409  0.029899966 
number of iterations: 30797 
   23400    62.659401       34           32            2 3.1991292e-14 1.3946056e-16          0.1  0.009000021 0.00041339832  0.029899965 
number of iterations: 26779 
   23500    62.984128       34           32            2 3.2559384e-14 1.3946155e-16          0.1 0.0090000213 0.00042088314  0.029899965 
number of iterations: 27618 
   23600    63.282284       35           33            2 3.3137563e-14 1.3946256e-16          0.1 0.0090000217 0.00042850088  0.029899964 
number of iterations: 27808 
   23700      63.5877       35           33            2 3.3726009e-14 1.3946359e-16          0.1 0.0090000221 0.0004362539  0.029899963 
number of iterations: 27985 
   23800    63.896823       35           33            2 3.4324905e-14 1.3946463e-16          0.1 0.0090000225 0.00044414459  0.029899963 
number of iterations: 28160 
   23900    64.194205       37           35            2 3.4934435e-14 1.394657e-16          0.1 0.0090000229 0.0004521754  0.029899962 
number of iterations: 28336 
   24000    64.890462       38           36            2 3.555479e-14 1.3946678e-16          0.1 0.0090000233 0.00046034881  0.029899961 
number of iterations: 31179 
   24100    65.234373       38           36            2 3.618616e-14 1.3946789e-16          0.1 0.0090000237 0.00046866737  0.029899961 
number of iterations: 28696 
   24200    65.545682       38           36            2 3.6828742e-14 1.3946901e-16          0.1 0.0090000242 0.00047713365   0.02989996 
number of iterations: 28918 
   24300    65.861047       38           36            2 3.7482735e-14 1.3947016e-16          0.1 0.0090000246 0.00048575027  0.029899959 
number of iterations: 29097 
   24400    66.219483       40           38            2 3.8148342e-14 1.3947133e-16          0.1  0.009000025 0.0004945199  0.029899958 
number of iterations: 29274 
   24500    66.622791       40           38            2 3.8825768e-14 1.3947251e-16          0.1 0.0090000255 0.00050344525  0.029899958 
number of iterations: 35716 
   24600    67.029177       40           38            2 3.9515223e-14 1.3947372e-16          0.1  0.009000026 0.00051252911  0.029899957 
number of iterations: 29732 
   24700    67.359714       40           38            2 4.0216922e-14 1.3947495e-16          0.1 0.0090000265 0.00052177427  0.029899956 
number of iterations: 29970 
   24800    67.698175       42           40            2 4.0931081e-14 1.394762e-16          0.1  0.009000027 0.0005311836  0.029899955 
number of iterations: 30150 
   24900    68.068931       43           41            2 4.1657922e-14 1.3947748e-16          0.1 0.0090000275 0.00054076002  0.029899954 
number of iterations: 30328 
   25000     68.84524       45           43            2 4.239767e-14 1.3947877e-16          0.1 0.0090000279 0.0005505065  0.029899954 
number of iterations: 35321 
   25100    69.308047       47           45            2 4.3150554e-14 1.394801e-16          0.1 0.0090000283 0.00056042605  0.029899953 
number of iterations: 29532 
   25200    69.680096       48           46            2 4.3916808e-14 1.3948144e-16          0.1 0.0090000287 0.00057052174  0.029899952 
number of iterations: 30536 
   25300    70.044685       48           46            2 4.4696669e-14 1.3948281e-16          0.1 0.0090000292 0.00058079672  0.029899951 
number of iterations: 30778 
   25400    70.378275       49           47            2 4.5490378e-14 1.3948422e-16          0.1 0.0090000297 0.00059125415  0.029899951 
number of iterations: 29994 
   25500    70.709575       49           47            2 4.6298181e-14 1.3948565e-16          0.1 0.0090000303 0.00060189728   0.02989995 
number of iterations: 30890 
   25600    71.073879       49           47            2 4.7120329e-14 1.3948712e-16          0.1 0.0090000308 0.00061272941  0.029899949 
number of iterations: 31090 
   25700    71.465989       49           47            2 4.7957077e-14 1.394886e-16          0.1 0.0090000314 0.00062375389  0.029899948 
number of iterations: 31273 
   25800    71.827546       49           47            2 4.8808683e-14 1.3949012e-16          0.1 0.0090000319 0.00063497414  0.029899947 
number of iterations: 34409 
   25900    72.212048       49           47            2 4.9675412e-14 1.3949166e-16          0.1 0.0090000324 0.00064639364  0.029899946 
number of iterations: 36333 
   26000    72.995666       49           47            2 5.0557532e-14 1.3949326e-16          0.1 0.0090000329 0.00065801592  0.029899945 
number of iterations: 37426 
   26100    73.396485       49           47            2 5.1455316e-14 1.394949e-16          0.1 0.0090000336 0.00066984458  0.029899944 
number of iterations: 31716 
   26200    73.756438       51           49            2 5.2369043e-14 1.3949657e-16          0.1 0.0090000342 0.0006818833  0.029899943 
number of iterations: 31227 
   26300    74.119753       51           49            2 5.3298996e-14 1.3949828e-16          0.1 0.0090000348 0.00069413579  0.029899942 
number of iterations: 35241 
   26400    74.497037       54           52            2 5.4245462e-14 1.3950002e-16          0.1 0.0090000355 0.00070660586  0.029899941 
number of iterations: 32196 
   26500    74.903155       56           54            2 5.5208736e-14 1.3950179e-16          0.1 0.0090000362 0.00071929738   0.02989994 
number of iterations: 35372 
   26600    75.297653       59           57            2 5.6189115e-14 1.395036e-16          0.1 0.0090000368 0.00073221426  0.029899939 
number of iterations: 31919 
   26700    75.676953       59           57            2 5.7186903e-14 1.3950543e-16          0.1 0.0090000374 0.00074536051  0.029899938 
number of iterations: 35675 
   26800    76.080616       59           57            2 5.820241e-14 1.3950734e-16          0.1  0.009000038 0.00075874021  0.029899937 
number of iterations: 32991 
   26900    76.484496       61           59            2 5.9235949e-14 1.3950927e-16          0.1 0.0090000387 0.00077235751  0.029899936 
number of iterations: 38175 
   27000     77.32713       63           61            2 6.0287842e-14 1.3951122e-16          0.1 0.0090000393 0.00078621661  0.029899935 
number of iterations: 38144 
   27100    77.803547       63           61            2 6.1358414e-14 1.3951321e-16          0.1 0.0090000402 0.00080032183  0.029899933 
number of iterations: 33303 
   27200    78.166252       65           63            2 6.2447997e-14 1.3951523e-16          0.1 0.0090000409 0.00081467751  0.029899932 
number of iterations: 39899 
   27300    78.665067       66           64            2 6.3556928e-14 1.3951734e-16          0.1 0.0090000416 0.00082928812  0.029899931 
number of iterations: 36352 
   27400    79.097286       67           65            2 6.4685552e-14 1.3951949e-16          0.1 0.0090000424 0.00084415819  0.029899929 
number of iterations: 40973 
   27500    79.559091       68           66            2 6.5834217e-14 1.3952166e-16          0.1 0.0090000432 0.00085929231  0.029899928 
number of iterations: 33969 
   27600    79.959388       68           66            2 6.700328e-14 1.3952388e-16          0.1 0.0090000439 0.00087469518  0.029899927 
number of iterations: 33537 
   27700    80.340592       68           66            2 6.8193102e-14 1.3952615e-16          0.1 0.0090000447 0.00089037156  0.029899926 
number of iterations: 34260 
   27800    80.719211       69           67            2 6.9404053e-14 1.3952846e-16          0.1 0.0090000455 0.00090632632  0.029899924 
number of iterations: 38804 
   27900    81.204879       70           68            2 7.0636508e-14 1.3953079e-16          0.1 0.0090000463 0.00092256441  0.029899923 
number of iterations: 38901 
   28000    82.058583       70           68            2 7.1890848e-14 1.3953315e-16          0.1 0.0090000472 0.00093909084  0.029899922 
number of iterations: 35001 
   28100    82.431961       75           73            2 7.3167463e-14 1.3953557e-16          0.1  0.009000048 0.00095591074   0.02989992 
number of iterations: 35391 
   28200    82.853734       77           75            2 7.4466747e-14 1.3953804e-16          0.1 0.0090000489 0.00097302933  0.029899919 
number of iterations: 34896 
   28300    83.269803       77           75            2 7.5789103e-14 1.3954056e-16          0.1 0.0090000498 0.0009904519  0.029899917 
number of iterations: 35452 
   28400    83.655312       78           76            2 7.7134942e-14 1.3954313e-16          0.1 0.0090000507 0.0010081839  0.029899916 
number of iterations: 35876 
   28500    84.112314       79           77            2 7.8504679e-14 1.3954577e-16          0.1 0.0090000516 0.0010262307  0.029899914 
number of iterations: 35213 
   28600    84.499023       81           79            2 7.989874e-14 1.3954845e-16          0.1 0.0090000524  0.001044598  0.029899913 
number of iterations: 31199 
   28700    84.889554       83           81            2 8.1317556e-14 1.395512e-16          0.1 0.0090000533 0.0010632915  0.029899911 
number of iterations: 35841 
   28800    85.346299       85           83            2 8.2761566e-14  1.39554e-16          0.1 0.0090000543 0.0010823169   0.02989991 
number of iterations: 37085 
   28900    85.789195       85           83            2 8.423122e-14 1.3955687e-16          0.1 0.0090000553 0.0011016801  0.029899908 
number of iterations: 35590 
   29000    86.853407       85           83            2 8.572697e-14 1.3955979e-16          0.1 0.0090000562 0.0011213873  0.029899907 
number of iterations: 36281 
   29100    87.270078       87           85            2 8.7249282e-14 1.3956277e-16          0.1 0.0090000572 0.0011414443  0.029899905 
number of iterations: 36481 
   29200     87.67594       88           86            2 8.8798626e-14 1.395658e-16          0.1 0.0090000583 0.0011618575  0.029899903 
number of iterations: 36672 
   29300    88.117777       90           88            2 9.0375484e-14 1.3956889e-16          0.1 0.0090000593 0.0011826333  0.029899901 
number of iterations: 40597 
   29400    88.609547       90           88            2 9.1980342e-14 1.3957203e-16          0.1 0.0090000605 0.0012037779  0.029899899 
number of iterations: 36726 
   29500    89.032103       92           90            2 9.3613699e-14 1.3957522e-16          0.1 0.0090000615  0.001225298  0.029899898 
number of iterations: 37179 
   29600    89.488241       94           92            2 9.5276061e-14 1.3957848e-16          0.1 0.0090000626 0.0012472003  0.029899896 
number of iterations: 37459 
   29700    89.943803       96           94            2 9.6967942e-14 1.3958179e-16          0.1 0.0090000637 0.0012694915  0.029899894 
number of iterations: 37652 
   29800    90.365045       96           94            2 9.8689867e-14 1.3958516e-16          0.1 0.0090000648 0.0012921786  0.029899892 
number of iterations: 37843 
   29900    90.799078      100           98            2 1.0044237e-13 1.3958859e-16          0.1 0.0090000659 0.0013152685   0.02989989 
number of iterations: 38035 
   30000    91.742448      102          100            2 1.0222599e-13 1.3959208e-16          0.1 0.0090000671 0.0013387685  0.029899888 
number of iterations: 37689 
   30100    92.216263      106          104            2 1.0404129e-13 1.3959563e-16          0.1 0.0090000682 0.0013626857  0.029899886 
number of iterations: 38299 
   30200    92.687707      107          105            2 1.0588882e-13 1.3959925e-16          0.1 0.0090000694 0.0013870277  0.029899885 
number of iterations: 42111 
   30300    93.191732      108          106            2 1.0776916e-13 1.3960293e-16          0.1 0.0090000708 0.0014118019  0.029899882 
number of iterations: 38817 
   30400    93.608428      110          108            2 1.0968289e-13 1.3960668e-16          0.1 0.0090000721  0.001437016   0.02989988 
number of iterations: 39025 
   30500    94.067324      111          109            2 1.116306e-13 1.396105e-16          0.1 0.0090000734 0.0014626779  0.029899878 
number of iterations: 40203 
   30600    94.510926      112          110            2 1.136129e-13 1.3961441e-16          0.1 0.0090000747 0.0014887955  0.029899876 
number of iterations: 38807 
   30700     94.97135      112          110            2 1.156304e-13 1.396184e-16          0.1  0.009000076 0.0015153769  0.029899874 
number of iterations: 38544 
   30800    95.407583      114          112            2 1.1768373e-13 1.3962246e-16          0.1 0.0090000773 0.0015424303  0.029899871 
number of iterations: 41855 
   30900     95.88837      116          114            2 1.1977352e-13 1.3962659e-16          0.1 0.0090000787 0.0015699641  0.029899869 
number of iterations: 38779 
   31000    96.778196      118          116            2 1.2190042e-13 1.3963079e-16          0.1   0.00900008 0.0015979868  0.029899867 
number of iterations: 40060 
   31100    97.269432      122          120            2 1.2406509e-13 1.3963507e-16          0.1 0.0090000813 0.0016265072  0.029899865 
number of iterations: 42274 
   31200    97.768239      127          125            2 1.2626819e-13 1.3963943e-16          0.1 0.0090000828  0.001655534  0.029899862 
number of iterations: 39380 
   31300    98.239554      132          130            2 1.2851042e-13 1.3964388e-16          0.1 0.0090000843 0.0016850763   0.02989986 
number of iterations: 35233 
   31400    98.674884      133          131            2 1.3079247e-13 1.3964844e-16          0.1 0.0090000858 0.0017151431  0.029899857 
number of iterations: 40418 
   31500    99.119793      136          134            2 1.3311504e-13 1.3965308e-16          0.1 0.0090000873 0.0017457439  0.029899855 
number of iterations: 40762 
   31600    99.600828      137          135            2 1.3547885e-13 1.3965781e-16          0.1 0.0090000889 0.0017768881  0.029899852 
number of iterations: 42514 
   31700    100.09866      142          140            2 1.3788464e-13 1.3966261e-16          0.1 0.0090000905 0.0018085853  0.029899849 
number of iterations: 41180 
   31800    100.57605      143          141            2 1.4033315e-13 1.3966751e-16          0.1 0.0090000921 0.0018408454  0.029899847 
number of iterations: 40055 
   31900    101.06731      145          143            2 1.4282514e-13 1.3967249e-16          0.1 0.0090000937 0.0018736784  0.029899844 
number of iterations: 44216 
   32000    102.03536      149          147            2 1.4536138e-13 1.3967756e-16          0.1 0.0090000955 0.0019070944  0.029899841 
number of iterations: 41272 
   32100    102.53616      153          151            2 1.4794266e-13 1.3968272e-16          0.1 0.0090000972 0.0019411038  0.029899838 
number of iterations: 41993 
   32200    103.06261      153          151            2 1.5056978e-13 1.3968797e-16          0.1 0.0090000989 0.0019757171  0.029899835 
number of iterations: 42188 
   32300    103.56824      156          154            2 1.5324355e-13 1.3969331e-16          0.1 0.0090001006  0.002010945  0.029899833 
number of iterations: 44019 
   32400    104.09513      158          156            2 1.559648e-13 1.3969876e-16          0.1 0.0090001024 0.0020467986   0.02989983 
number of iterations: 42609 
   32500     104.5944      159          157            2 1.5873437e-13 1.397043e-16          0.1 0.0090001042 0.0020832888  0.029899827 
number of iterations: 41384 
   32600    105.06856      161          159            2 1.6155312e-13 1.3970994e-16          0.1  0.009000106  0.002120427  0.029899824 
number of iterations: 42970 
   32700     105.5265      161          159            2 1.6442193e-13 1.3971568e-16          0.1 0.0090001079 0.0021582247  0.029899821 
number of iterations: 41671 
   32800    105.98457      163          161            2 1.6734168e-13 1.3972152e-16          0.1 0.0090001098 0.0021966935  0.029899817 
number of iterations: 41912 
   32900    106.48527      165          163            2 1.7031328e-13 1.397275e-16          0.1 0.0090001118 0.0022358455  0.029899814 
number of iterations: 43190 
   33000     107.3663      170          168            2 1.7333764e-13 1.3973359e-16          0.1 0.0090001138 0.0022756928  0.029899811 
number of iterations: 42322 
   33100    107.85188      172          170            2 1.7641572e-13 1.3973971e-16          0.1 0.0090001157 0.0023162476  0.029899808 
number of iterations: 43746 
   33200     108.3823      172          170            2 1.7954845e-13 1.3974593e-16          0.1 0.0090001177 0.0023575226  0.029899804 
number of iterations: 47631 
   33300    108.90574      176          174            2 1.8273681e-13 1.3975223e-16          0.1 0.0090001198 0.0023995305  0.029899801 
number of iterations: 42468 
   33400     109.4072      180          178            2 1.8598179e-13 1.3975863e-16          0.1  0.009000122 0.0024422844  0.029899797 
number of iterations: 44983 
   33500    109.94475      187          185            2 1.8928439e-13 1.3976535e-16          0.1 0.0090001242 0.0024857975  0.029899793 
number of iterations: 45343 
   33600    110.45023      189          187            2 1.9264564e-13 1.3977227e-16          0.1 0.0090001265 0.0025300833   0.02989979 
number of iterations: 42931 
   33700    110.95038      191          189            2 1.9606658e-13 1.397793e-16          0.1 0.0090001286 0.0025751555  0.029899786 
number of iterations: 46195 
   33800    111.50256      195          193            2 1.9954827e-13 1.3978646e-16          0.1 0.0090001308 0.0026210281  0.029899782 
number of iterations: 43235 
   33900    112.02273      196          194            2 2.0309178e-13 1.3979376e-16          0.1  0.009000133 0.0026677153  0.029899779 
number of iterations: 48046 
   34000    112.89719      201          199            2 2.0669821e-13 1.3980118e-16          0.1 0.0090001357 0.0027152315  0.029899774 
number of iterations: 43055 
   34100    113.39048      205          203            2 2.1036869e-13 1.3980874e-16          0.1 0.0090001381 0.0027635915   0.02989977 
number of iterations: 45275 
   34200    113.95557      208          206            2 2.1410435e-13 1.398165e-16          0.1 0.0090001406 0.0028128103  0.029899766 
number of iterations: 45662 
   34300    114.47784      219          217            2 2.1790634e-13 1.398244e-16          0.1 0.0090001431 0.0028629031  0.029899762 
number of iterations: 47240 
   34400    115.02557      225          223            2 2.2177585e-13 1.3983251e-16          0.1 0.0090001457 0.0029138854  0.029899758 
number of iterations: 43755 
   34500    115.52147      228          226            2 2.2571407e-13 1.3984077e-16          0.1 0.0090001482  0.002965773  0.029899753 
number of iterations: 44274 
   34600    116.06996      231          229            2 2.2972223e-13 1.3984918e-16          0.1 0.0090001507 0.0030185821  0.029899749 
number of iterations: 46390 
   34700    116.70683      234          232            2 2.3380156e-13 1.3985773e-16          0.1 0.0090001534 0.0030723289  0.029899745 
number of iterations: 48154 
   34800    117.28733      238          236            2 2.3795333e-13 1.3986644e-16          0.1 0.0090001562 0.0031270301   0.02989974 
number of iterations: 48969 
   34900    118.07366      243          241            2 2.4217883e-13 1.3987528e-16          0.1  0.009000159 0.0031827027  0.029899735 
number of iterations: 48641 
   35000    119.14441      246          244            2 2.4647936e-13 1.3988428e-16          0.1 0.0090001619 0.0032393639  0.029899731 
Loop time of 119.144 on 6 procs for 35000 steps with 246 atoms

Performance: 253809489.922 tau/day, 293.761 timesteps/s
99.7% CPU use with 6 MPI tasks x no OpenMP threads

MPI task timing breakdown:
Section |  min time  |  avg time  |  max time  |%varavg| %total
---------------------------------------------------------------
Pair    | 0.0031854  | 0.015476   | 0.063312   |  17.6 |  0.01
Neigh   | 12.184     | 12.849     | 14.172     |  25.9 | 10.78
Comm    | 13.256     | 13.277     | 13.321     |   0.8 | 11.14
Output  | 1.0408     | 1.0431     | 1.044      |   0.1 |  0.88
Modify  | 90.357     | 91.472     | 92.035     |   8.1 | 76.77
Other   |            | 0.4874     |            |       |  0.41

Nlocal:    41 ave 187 max 0 min
Histogram: 4 0 0 1 0 0 0 0 0 1
Nghost:    15.5 ave 52 max 0 min
Histogram: 4 0 0 0 0 0 0 1 0 1
Neighs:    159.167 ave 736 max 0 min
Histogram: 4 0 1 0 0 0 0 0 0 1

Total # of neighbors = 955
Ave neighs/atom = 3.88211
Neighbor list builds = 422
Dangerous builds = 0

Total wall time: 0:01:59
