 NUFEB Simulation

     50 atoms 
     2 atom types 
     4 nutrients 

  0.0e-4   1.00e-04  xlo xhi 
  0.0e-4   1.00e-04  ylo yhi 
  0.0e-4   5.00e-05  zlo zhi 

 Atoms 

     1 1 1.53e-06  370 5.76e-06 3.98e-05 4.58e-05 1.53e-06 
     2 1 1.69e-06  370 7.79e-05 2.09e-05 2.35e-05 1.69e-06 
     3 1 1.51e-06  370 5.92e-05 9.55e-06 2.92e-05 1.51e-06 
     4 1 1.60e-06  370 9.71e-05 3.94e-05 4.81e-05 1.60e-06 
     5 1 1.79e-06  370 4.54e-05 2.11e-05 9.09e-06 1.79e-06 
     6 1 1.69e-06  370 5.84e-05 8.90e-05 4.11e-05 1.69e-06 
     7 1 1.64e-06  370 3.61e-05 3.52e-05 4.27e-05 1.64e-06 
     8 1 1.78e-06  370 9.25e-05 7.05e-05 1.99e-05 1.78e-06 
     9 1 1.56e-06  370 1.86e-06 4.92e-05 1.23e-05 1.56e-06 
     10 1 1.83e-06  370 6.24e-05 6.63e-05 4.71e-05 1.83e-06 
     11 1 1.41e-06  370 6.99e-06 1.54e-05 3.18e-05 1.41e-06 
     12 1 1.59e-06  370 9.74e-05 4.09e-05 3.23e-05 1.59e-06 
     13 1 1.68e-06  370 7.44e-05 8.83e-05 1.14e-05 1.68e-06 
     14 1 1.64e-06  370 7.13e-05 2.49e-05 5.37e-06 1.64e-06 
     15 1 1.72e-06  370 8.58e-05 3.56e-05 9.72e-06 1.72e-06 
     16 1 1.40e-06  370 2.33e-05 5.87e-05 4.37e-05 1.40e-06 
     17 1 1.46e-06  370 6.99e-05 8.58e-05 3.60e-05 1.46e-06 
     18 1 1.49e-06  370 6.11e-05 1.40e-05 3.20e-05 1.49e-06 
     19 1 1.54e-06  370 2.77e-05 5.27e-05 1.87e-05 1.54e-06 
     20 1 1.81e-06  370 4.09e-05 9.07e-05 1.10e-05 1.81e-06 
     21 1 1.43e-06  370 2.35e-05 4.31e-05 4.52e-05 1.43e-06 
     22 1 1.63e-06  370 1.04e-05 3.82e-06 2.73e-05 1.63e-06 
     23 1 1.45e-06  370 2.57e-05 4.08e-05 4.09e-05 1.45e-06 
     24 1 1.49e-06  370 6.93e-05 6.21e-05 1.19e-05 1.49e-06 
     25 1 1.61e-06  370 7.75e-05 4.98e-05 6.99e-06 1.61e-06 
     26 1 1.88e-06  370 2.39e-05 6.63e-05 1.12e-05 1.88e-06 
     27 1 1.40e-06  370 3.63e-05 3.75e-06 2.00e-05 1.40e-06 
     28 1 1.78e-06  370 4.71e-05 1.28e-05 4.29e-05 1.78e-06 
     29 1 1.54e-06  370 5.75e-05 5.71e-05 1.58e-05 1.54e-06 
     30 1 1.79e-06  370 9.25e-05 4.93e-05 2.15e-05 1.79e-06 
     31 1 1.51e-06  370 7.38e-05 2.22e-05 8.04e-06 1.51e-06 
     32 1 1.94e-06  370 1.69e-05 5.74e-06 3.69e-05 1.94e-06 
     33 1 1.41e-06  370 4.62e-05 8.59e-05 9.32e-06 1.41e-06 
     34 1 1.57e-06  370 6.04e-05 7.35e-05 4.35e-05 1.57e-06 
     35 1 1.72e-06  370 3.39e-05 2.74e-05 1.96e-05 1.72e-06 
     36 1 1.91e-06  370 8.04e-05 8.18e-06 2.24e-05 1.91e-06 
     37 1 1.78e-06  370 9.18e-05 8.08e-06 3.03e-05 1.78e-06 
     38 1 1.69e-06  370 6.92e-05 7.64e-05 4.74e-06 1.69e-06 
     39 1 1.53e-06  370 7.54e-05 5.49e-05 1.77e-05 1.53e-06 
     40 1 1.62e-06  370 2.49e-05 2.93e-05 1.37e-05 1.62e-06 
     41 1 1.82e-06  370 7.02e-05 7.65e-05 4.38e-05 1.82e-06 
     42 1 1.93e-06  370 6.81e-05 8.50e-05 3.15e-05 1.93e-06 
     43 1 1.60e-06  370 1.97e-05 3.10e-05 3.72e-06 1.60e-06 
     44 1 1.58e-06  370 2.27e-05 4.93e-05 3.50e-06 1.58e-06 
     45 1 1.86e-06  370 2.77e-05 8.16e-05 2.46e-05 1.86e-06 
     46 1 1.55e-06  370 6.44e-05 5.98e-05 1.74e-05 1.55e-06 
     47 1 1.55e-06  370 3.13e-05 6.57e-05 4.15e-05 1.55e-06 
     48 1 1.79e-06  370 7.04e-06 8.62e-05 1.44e-05 1.79e-06 
     49 1 1.69e-06  370 4.11e-06 5.35e-05 2.51e-05 1.69e-06 
     50 1 1.72e-06  370 2.20e-05 6.24e-06 1.42e-05 1.72e-06 

 Nutrients 

     1 sub g nn nn nn 1.00e-01 1.00e-01 
     2 o2 l nn nn nd 9.00e-03 9.00e-03 
     3 suc l nn nn nn 3.42e-20 3.42e-20 
     4 co2 l nn nn nd 2.99e-02 2.99e-02 

 Type Name 

     1 cyano  
     2 ecw  

 Diffusion Coeffs 

     sub 0 
     o2 2.3e-09 
     suc 5.2e-10 
     co2 1.9e-09 

 Growth Rate 

     cyano 2.047e-05 
     ecw 6.71e-05 

 Ks 

     cyano 0.00035 0.0002 0.01 0.000138 
     ecw 0 0.001 3.6 0.05 

 Yield 

     cyano 0.55 
     ecw 0.43 

 Maintenance 

     cyano 0 
     ecw 9.5e-07 

 Decay 

     cyano 0 
     ecw 0 



