ITEM: TIMESTEP
0
ITEM: NUMBER OF ATOMS
50
ITEM: BOX BOUNDS ff ff ff
0.0000000000000000e+00 1.0000000000000000e-04
0.0000000000000000e+00 1.0000000000000000e-04
0.0000000000000000e+00 5.0000000000000002e-05
ITEM: ATOMS id type diameter x y z 
44 1 1.58e-06 2.27e-05 4.93e-05 3.5e-06 
43 1 1.6e-06 1.97e-05 3.1e-05 3.72e-06 
5 1 1.79e-06 4.54e-05 2.11e-05 9.09e-06 
9 1 1.56e-06 1.86e-06 4.92e-05 1.23e-05 
40 1 1.62e-06 2.49e-05 2.93e-05 1.37e-05 
50 1 1.72e-06 2.2e-05 6.24e-06 1.42e-05 
35 1 1.72e-06 3.39e-05 2.74e-05 1.96e-05 
27 1 1.4e-06 3.63e-05 3.75e-06 2e-05 
22 1 1.63e-06 1.04e-05 3.82e-06 2.73e-05 
11 1 1.41e-06 6.99e-06 1.54e-05 3.18e-05 
32 1 1.94e-06 1.69e-05 5.74e-06 3.69e-05 
23 1 1.45e-06 2.57e-05 4.08e-05 4.09e-05 
28 1 1.78e-06 4.71e-05 1.28e-05 4.29e-05 
7 1 1.64e-06 3.61e-05 3.52e-05 4.27e-05 
21 1 1.43e-06 2.35e-05 4.31e-05 4.52e-05 
1 1 1.53e-06 5.76e-06 3.98e-05 4.58e-05 
33 1 1.41e-06 4.62e-05 8.59e-05 9.32e-06 
20 1 1.81e-06 4.09e-05 9.07e-05 1.1e-05 
26 1 1.88e-06 2.39e-05 6.63e-05 1.12e-05 
48 1 1.79e-06 7.04e-06 8.62e-05 1.44e-05 
19 1 1.54e-06 2.77e-05 5.27e-05 1.87e-05 
45 1 1.86e-06 2.77e-05 8.16e-05 2.46e-05 
49 1 1.69e-06 4.11e-06 5.35e-05 2.51e-05 
47 1 1.55e-06 3.13e-05 6.57e-05 4.15e-05 
16 1 1.4e-06 2.33e-05 5.87e-05 4.37e-05 
14 1 1.64e-06 7.13e-05 2.49e-05 5.37e-06 
25 1 1.61e-06 7.75e-05 4.98e-05 6.99e-06 
31 1 1.51e-06 7.38e-05 2.22e-05 8.04e-06 
15 1 1.72e-06 8.58e-05 3.56e-05 9.72e-06 
30 1 1.79e-06 9.25e-05 4.93e-05 2.15e-05 
36 1 1.91e-06 8.04e-05 8.18e-06 2.24e-05 
2 1 1.69e-06 7.79e-05 2.09e-05 2.35e-05 
3 1 1.51e-06 5.92e-05 9.55e-06 2.92e-05 
37 1 1.78e-06 9.18e-05 8.08e-06 3.03e-05 
18 1 1.49e-06 6.11e-05 1.4e-05 3.2e-05 
12 1 1.59e-06 9.74e-05 4.09e-05 3.23e-05 
4 1 1.6e-06 9.71e-05 3.94e-05 4.81e-05 
38 1 1.69e-06 6.92e-05 7.64e-05 4.74e-06 
13 1 1.68e-06 7.44e-05 8.83e-05 1.14e-05 
24 1 1.49e-06 6.93e-05 6.21e-05 1.19e-05 
29 1 1.54e-06 5.75e-05 5.71e-05 1.58e-05 
46 1 1.55e-06 6.44e-05 5.98e-05 1.74e-05 
39 1 1.53e-06 7.54e-05 5.49e-05 1.77e-05 
8 1 1.78e-06 9.25e-05 7.05e-05 1.99e-05 
42 1 1.93e-06 6.81e-05 8.5e-05 3.15e-05 
17 1 1.46e-06 6.99e-05 8.58e-05 3.6e-05 
6 1 1.69e-06 5.84e-05 8.9e-05 4.11e-05 
34 1 1.57e-06 6.04e-05 7.35e-05 4.35e-05 
41 1 1.82e-06 7.02e-05 7.65e-05 4.38e-05 
10 1 1.83e-06 6.24e-05 6.63e-05 4.71e-05 
ITEM: TIMESTEP
100
ITEM: NUMBER OF ATOMS
50
ITEM: BOX BOUNDS ff ff ff
0.0000000000000000e+00 1.0000000000000000e-04
0.0000000000000000e+00 1.0000000000000000e-04
0.0000000000000000e+00 5.0000000000000002e-05
ITEM: ATOMS id type diameter x y z 
44 1 1.5902e-06 2.27e-05 4.93e-05 3.5e-06 
43 1 1.61033e-06 1.97e-05 3.1e-05 3.72e-06 
5 1 1.80156e-06 4.54e-05 2.11e-05 9.09e-06 
9 1 1.57007e-06 1.86e-06 4.92e-05 1.23e-05 
40 1 1.63046e-06 2.49e-05 2.93e-05 1.37e-05 
50 1 1.7311e-06 2.2e-05 6.24e-06 1.42e-05 
35 1 1.7311e-06 3.39e-05 2.74e-05 1.96e-05 
27 1 1.40904e-06 3.63e-05 3.75e-06 2e-05 
22 1 1.64052e-06 1.04e-05 3.82e-06 2.73e-05 
11 1 1.4191e-06 6.99e-06 1.54e-05 3.18e-05 
32 1 1.95252e-06 1.69e-05 5.74e-06 3.69e-05 
23 1 1.45936e-06 2.57e-05 4.08e-05 4.09e-05 
28 1 1.79149e-06 4.71e-05 1.28e-05 4.29e-05 
7 1 1.65059e-06 3.61e-05 3.52e-05 4.27e-05 
21 1 1.43923e-06 2.35e-05 4.31e-05 4.52e-05 
1 1 1.53988e-06 5.76e-06 3.98e-05 4.58e-05 
33 1 1.4191e-06 4.62e-05 8.59e-05 9.32e-06 
20 1 1.82168e-06 4.09e-05 9.07e-05 1.1e-05 
26 1 1.89214e-06 2.39e-05 6.63e-05 1.12e-05 
48 1 1.80156e-06 7.04e-06 8.62e-05 1.44e-05 
19 1 1.54994e-06 2.77e-05 5.27e-05 1.87e-05 
45 1 1.87201e-06 2.77e-05 8.16e-05 2.46e-05 
49 1 1.70091e-06 4.11e-06 5.35e-05 2.51e-05 
47 1 1.56001e-06 3.13e-05 6.57e-05 4.15e-05 
16 1 1.40904e-06 2.33e-05 5.87e-05 4.37e-05 
14 1 1.65059e-06 7.13e-05 2.49e-05 5.37e-06 
25 1 1.62039e-06 7.75e-05 4.98e-05 6.99e-06 
31 1 1.51975e-06 7.38e-05 2.22e-05 8.04e-06 
15 1 1.7311e-06 8.58e-05 3.56e-05 9.72e-06 
30 1 1.80156e-06 9.25e-05 4.93e-05 2.15e-05 
36 1 1.92233e-06 8.04e-05 8.18e-06 2.24e-05 
2 1 1.70091e-06 7.79e-05 2.09e-05 2.35e-05 
3 1 1.51975e-06 5.92e-05 9.55e-06 2.92e-05 
37 1 1.79149e-06 9.18e-05 8.08e-06 3.03e-05 
18 1 1.49962e-06 6.11e-05 1.4e-05 3.2e-05 
12 1 1.60026e-06 9.74e-05 4.09e-05 3.23e-05 
4 1 1.61033e-06 9.71e-05 3.94e-05 4.81e-05 
38 1 1.70091e-06 6.92e-05 7.64e-05 4.74e-06 
13 1 1.69085e-06 7.44e-05 8.83e-05 1.14e-05 
24 1 1.49962e-06 6.93e-05 6.21e-05 1.19e-05 
29 1 1.54994e-06 5.75e-05 5.71e-05 1.58e-05 
46 1 1.56001e-06 6.44e-05 5.98e-05 1.74e-05 
39 1 1.53988e-06 7.54e-05 5.49e-05 1.77e-05 
8 1 1.79149e-06 9.25e-05 7.05e-05 1.99e-05 
42 1 1.94246e-06 6.81e-05 8.5e-05 3.15e-05 
17 1 1.46943e-06 6.99e-05 8.58e-05 3.6e-05 
6 1 1.70091e-06 5.84e-05 8.9e-05 4.11e-05 
34 1 1.58014e-06 6.04e-05 7.35e-05 4.35e-05 
41 1 1.83175e-06 7.02e-05 7.65e-05 4.38e-05 
10 1 1.84181e-06 6.24e-05 6.63e-05 4.71e-05 
ITEM: TIMESTEP
200
ITEM: NUMBER OF ATOMS
50
ITEM: BOX BOUNDS ff ff ff
0.0000000000000000e+00 1.0000000000000000e-04
0.0000000000000000e+00 1.0000000000000000e-04
0.0000000000000000e+00 5.0000000000000002e-05
ITEM: ATOMS id type diameter x y z 
44 1 1.60047e-06 2.27e-05 4.93e-05 3.5e-06 
43 1 1.62073e-06 1.97e-05 3.1e-05 3.72e-06 
5 1 1.81319e-06 4.54e-05 2.11e-05 9.09e-06 
9 1 1.58021e-06 1.86e-06 4.92e-05 1.23e-05 
40 1 1.64098e-06 2.49e-05 2.93e-05 1.37e-05 
50 1 1.74228e-06 2.2e-05 6.24e-06 1.42e-05 
35 1 1.74228e-06 3.39e-05 2.74e-05 1.96e-05 
27 1 1.41813e-06 3.63e-05 3.75e-06 2e-05 
22 1 1.65111e-06 1.04e-05 3.82e-06 2.73e-05 
11 1 1.42826e-06 6.99e-06 1.54e-05 3.18e-05 
32 1 1.96513e-06 1.69e-05 5.74e-06 3.69e-05 
23 1 1.46878e-06 2.57e-05 4.08e-05 4.09e-05 
28 1 1.80306e-06 4.71e-05 1.28e-05 4.29e-05 
7 1 1.66124e-06 3.61e-05 3.52e-05 4.27e-05 
21 1 1.44852e-06 2.35e-05 4.31e-05 4.52e-05 
1 1 1.54982e-06 5.76e-06 3.98e-05 4.58e-05 
33 1 1.42826e-06 4.62e-05 8.59e-05 9.32e-06 
20 1 1.83345e-06 4.09e-05 9.07e-05 1.1e-05 
26 1 1.90435e-06 2.39e-05 6.63e-05 1.12e-05 
48 1 1.81319e-06 7.04e-06 8.62e-05 1.44e-05 
19 1 1.55995e-06 2.77e-05 5.27e-05 1.87e-05 
45 1 1.88409e-06 2.77e-05 8.16e-05 2.46e-05 
49 1 1.71189e-06 4.11e-06 5.35e-05 2.51e-05 
47 1 1.57008e-06 3.13e-05 6.57e-05 4.15e-05 
16 1 1.41813e-06 2.33e-05 5.87e-05 4.37e-05 
14 1 1.66124e-06 7.13e-05 2.49e-05 5.37e-06 
25 1 1.63085e-06 7.75e-05 4.98e-05 6.99e-06 
31 1 1.52956e-06 7.38e-05 2.22e-05 8.04e-06 
15 1 1.74228e-06 8.58e-05 3.56e-05 9.72e-06 
30 1 1.81319e-06 9.25e-05 4.93e-05 2.15e-05 
36 1 1.93474e-06 8.04e-05 8.18e-06 2.24e-05 
2 1 1.71189e-06 7.79e-05 2.09e-05 2.35e-05 
3 1 1.52956e-06 5.92e-05 9.55e-06 2.92e-05 
37 1 1.80306e-06 9.18e-05 8.08e-06 3.03e-05 
18 1 1.5093e-06 6.11e-05 1.4e-05 3.2e-05 
12 1 1.6106e-06 9.74e-05 4.09e-05 3.23e-05 
4 1 1.62073e-06 9.71e-05 3.94e-05 4.81e-05 
38 1 1.71189e-06 6.92e-05 7.64e-05 4.74e-06 
13 1 1.70176e-06 7.44e-05 8.83e-05 1.14e-05 
24 1 1.5093e-06 6.93e-05 6.21e-05 1.19e-05 
29 1 1.55995e-06 5.75e-05 5.71e-05 1.58e-05 
46 1 1.57008e-06 6.44e-05 5.98e-05 1.74e-05 
39 1 1.54982e-06 7.54e-05 5.49e-05 1.77e-05 
8 1 1.80306e-06 9.25e-05 7.05e-05 1.99e-05 
42 1 1.955e-06 6.81e-05 8.5e-05 3.15e-05 
17 1 1.47891e-06 6.99e-05 8.58e-05 3.6e-05 
6 1 1.71189e-06 5.84e-05 8.9e-05 4.11e-05 
34 1 1.59034e-06 6.04e-05 7.35e-05 4.35e-05 
41 1 1.84357e-06 7.02e-05 7.65e-05 4.38e-05 
10 1 1.8537e-06 6.24e-05 6.63e-05 4.71e-05 
ITEM: TIMESTEP
300
ITEM: NUMBER OF ATOMS
51
ITEM: BOX BOUNDS ff ff ff
0.0000000000000000e+00 1.0000000000000000e-04
0.0000000000000000e+00 1.0000000000000000e-04
0.0000000000000000e+00 5.0000000000000002e-05
ITEM: ATOMS id type diameter x y z 
44 1 1.6108e-06 2.27e-05 4.93e-05 3.5e-06 
43 1 1.63119e-06 1.97e-05 3.1e-05 3.72e-06 
5 1 1.82489e-06 4.54e-05 2.11e-05 9.09e-06 
9 1 1.59041e-06 1.86e-06 4.92e-05 1.23e-05 
40 1 1.65158e-06 2.49e-05 2.93e-05 1.37e-05 
50 1 1.75353e-06 2.2e-05 6.24e-06 1.42e-05 
35 1 1.75353e-06 3.39e-05 2.74e-05 1.96e-05 
27 1 1.42729e-06 3.63e-05 3.75e-06 2e-05 
22 1 1.66177e-06 1.04e-05 3.82e-06 2.73e-05 
11 1 1.43748e-06 6.99e-06 1.54e-05 3.18e-05 
32 1 1.48021e-06 1.72765e-05 5.64108e-06 3.62718e-05 
23 1 1.47826e-06 2.57e-05 4.08e-05 4.09e-05 
28 1 1.8147e-06 4.71e-05 1.28e-05 4.29e-05 
7 1 1.67197e-06 3.61e-05 3.52e-05 4.27e-05 
21 1 1.45787e-06 2.35e-05 4.31e-05 4.52e-05 
1 1 1.55982e-06 5.76e-06 3.98e-05 4.58e-05 
51 1 1.65017e-06 1.64802e-05 5.85027e-06 3.76003e-05 
33 1 1.43748e-06 4.62e-05 8.59e-05 9.32e-06 
20 1 1.84528e-06 4.09e-05 9.07e-05 1.1e-05 
26 1 1.91665e-06 2.39e-05 6.63e-05 1.12e-05 
48 1 1.82489e-06 7.04e-06 8.62e-05 1.44e-05 
19 1 1.57002e-06 2.77e-05 5.27e-05 1.87e-05 
45 1 1.89626e-06 2.77e-05 8.16e-05 2.46e-05 
49 1 1.72294e-06 4.11e-06 5.35e-05 2.51e-05 
47 1 1.58021e-06 3.13e-05 6.57e-05 4.15e-05 
16 1 1.42729e-06 2.33e-05 5.87e-05 4.37e-05 
14 1 1.67197e-06 7.13e-05 2.49e-05 5.37e-06 
25 1 1.64138e-06 7.75e-05 4.98e-05 6.99e-06 
31 1 1.53943e-06 7.38e-05 2.22e-05 8.04e-06 
15 1 1.75353e-06 8.58e-05 3.56e-05 9.72e-06 
30 1 1.82489e-06 9.25e-05 4.93e-05 2.15e-05 
36 1 1.94723e-06 8.04e-05 8.18e-06 2.24e-05 
2 1 1.72294e-06 7.79e-05 2.09e-05 2.35e-05 
3 1 1.53943e-06 5.92e-05 9.55e-06 2.92e-05 
37 1 1.8147e-06 9.18e-05 8.08e-06 3.03e-05 
18 1 1.51904e-06 6.11e-05 1.4e-05 3.2e-05 
12 1 1.62099e-06 9.74e-05 4.09e-05 3.23e-05 
4 1 1.63119e-06 9.71e-05 3.94e-05 4.81e-05 
38 1 1.72294e-06 6.92e-05 7.64e-05 4.74e-06 
13 1 1.71275e-06 7.44e-05 8.83e-05 1.14e-05 
24 1 1.51904e-06 6.93e-05 6.21e-05 1.19e-05 
29 1 1.57002e-06 5.75e-05 5.71e-05 1.58e-05 
46 1 1.58021e-06 6.44e-05 5.98e-05 1.74e-05 
39 1 1.55982e-06 7.54e-05 5.49e-05 1.77e-05 
8 1 1.8147e-06 9.25e-05 7.05e-05 1.99e-05 
42 1 1.96762e-06 6.81e-05 8.5e-05 3.15e-05 
17 1 1.48846e-06 6.99e-05 8.58e-05 3.6e-05 
6 1 1.72294e-06 5.84e-05 8.9e-05 4.11e-05 
34 1 1.6006e-06 6.04e-05 7.35e-05 4.35e-05 
41 1 1.85548e-06 7.02e-05 7.65e-05 4.38e-05 
10 1 1.86567e-06 6.24e-05 6.63e-05 4.71e-05 
ITEM: TIMESTEP
400
ITEM: NUMBER OF ATOMS
52
ITEM: BOX BOUNDS ff ff ff
0.0000000000000000e+00 1.0000000000000000e-04
0.0000000000000000e+00 1.0000000000000000e-04
0.0000000000000000e+00 5.0000000000000002e-05
ITEM: ATOMS id type diameter x y z 
44 1 1.6212e-06 2.27e-05 4.93e-05 3.5e-06 
43 1 1.64172e-06 1.97e-05 3.1e-05 3.72e-06 
5 1 1.83667e-06 4.54e-05 2.11e-05 9.09e-06 
9 1 1.60068e-06 1.86e-06 4.92e-05 1.23e-05 
40 1 1.66224e-06 2.49e-05 2.93e-05 1.37e-05 
50 1 1.76485e-06 2.2e-05 6.24e-06 1.42e-05 
35 1 1.76485e-06 3.39e-05 2.74e-05 1.96e-05 
27 1 1.4365e-06 3.63e-05 3.75e-06 2e-05 
22 1 1.6725e-06 1.04e-05 3.82e-06 2.73e-05 
11 1 1.44676e-06 6.99e-06 1.54e-05 3.18e-05 
32 1 1.48977e-06 1.72765e-05 5.64108e-06 3.62718e-05 
23 1 1.48781e-06 2.57e-05 4.08e-05 4.09e-05 
28 1 1.82641e-06 4.71e-05 1.28e-05 4.29e-05 
7 1 1.68276e-06 3.61e-05 3.52e-05 4.27e-05 
21 1 1.46729e-06 2.35e-05 4.31e-05 4.52e-05 
1 1 1.56989e-06 5.76e-06 3.98e-05 4.58e-05 
51 1 1.66083e-06 1.64802e-05 5.85027e-06 3.76003e-05 
33 1 1.44676e-06 4.62e-05 8.59e-05 9.32e-06 
20 1 1.85719e-06 4.09e-05 9.07e-05 1.1e-05 
26 1 1.92902e-06 2.39e-05 6.63e-05 1.12e-05 
48 1 1.83667e-06 7.04e-06 8.62e-05 1.44e-05 
19 1 1.58015e-06 2.77e-05 5.27e-05 1.87e-05 
45 1 1.9085e-06 2.77e-05 8.16e-05 2.46e-05 
49 1 1.73407e-06 4.11e-06 5.35e-05 2.51e-05 
47 1 1.59042e-06 3.13e-05 6.57e-05 4.15e-05 
16 1 1.4365e-06 2.33e-05 5.87e-05 4.37e-05 
14 1 1.68276e-06 7.13e-05 2.49e-05 5.37e-06 
25 1 1.65198e-06 7.75e-05 4.98e-05 6.99e-06 
31 1 1.54937e-06 7.38e-05 2.22e-05 8.04e-06 
15 1 1.76485e-06 8.58e-05 3.56e-05 9.72e-06 
30 1 1.83667e-06 9.25e-05 4.93e-05 2.15e-05 
36 1 1.9598e-06 8.04e-05 8.18e-06 2.24e-05 
2 1 1.73407e-06 7.79e-05 2.09e-05 2.35e-05 
3 1 1.54937e-06 5.92e-05 9.55e-06 2.92e-05 
37 1 1.82641e-06 9.18e-05 8.08e-06 3.03e-05 
18 1 1.52885e-06 6.11e-05 1.4e-05 3.2e-05 
12 1 1.63146e-06 9.74e-05 4.09e-05 3.23e-05 
4 1 1.64172e-06 9.71e-05 3.94e-05 4.81e-05 
38 1 1.73407e-06 6.92e-05 7.64e-05 4.74e-06 
13 1 1.7238e-06 7.44e-05 8.83e-05 1.14e-05 
24 1 1.52885e-06 6.93e-05 6.21e-05 1.19e-05 
29 1 1.58015e-06 5.75e-05 5.71e-05 1.58e-05 
46 1 1.59042e-06 6.44e-05 5.98e-05 1.74e-05 
39 1 1.56989e-06 7.54e-05 5.49e-05 1.77e-05 
8 1 1.82641e-06 9.25e-05 7.05e-05 1.99e-05 
42 1 1.48209e-06 6.8477e-05 8.4901e-05 3.0871e-05 
17 1 1.49807e-06 6.99e-05 8.58e-05 3.6e-05 
6 1 1.73407e-06 5.84e-05 8.9e-05 4.11e-05 
34 1 1.61094e-06 6.04e-05 7.35e-05 4.35e-05 
41 1 1.86746e-06 7.02e-05 7.65e-05 4.38e-05 
10 1 1.87772e-06 6.24e-05 6.63e-05 4.71e-05 
52 1 1.65227e-06 6.76797e-05 8.51104e-05 3.22012e-05 
ITEM: TIMESTEP
500
ITEM: NUMBER OF ATOMS
52
ITEM: BOX BOUNDS ff ff ff
0.0000000000000000e+00 1.0000000000000000e-04
0.0000000000000000e+00 1.0000000000000000e-04
0.0000000000000000e+00 5.0000000000000002e-05
ITEM: ATOMS id type diameter x y z 
44 1 1.63166e-06 2.27e-05 4.93e-05 3.5e-06 
43 1 1.65232e-06 1.97e-05 3.1e-05 3.72e-06 
5 1 1.84853e-06 4.54e-05 2.11e-05 9.09e-06 
9 1 1.61101e-06 1.86e-06 4.92e-05 1.23e-05 
40 1 1.67297e-06 2.49e-05 2.93e-05 1.37e-05 
50 1 1.77624e-06 2.2e-05 6.24e-06 1.42e-05 
35 1 1.77624e-06 3.39e-05 2.74e-05 1.96e-05 
27 1 1.44578e-06 3.63e-05 3.75e-06 2e-05 
22 1 1.6833e-06 1.04e-05 3.82e-06 2.73e-05 
11 1 1.4561e-06 6.99e-06 1.54e-05 3.18e-05 
32 1 1.49939e-06 1.72765e-05 5.64108e-06 3.62718e-05 
23 1 1.49741e-06 2.57e-05 4.08e-05 4.09e-05 
28 1 1.8382e-06 4.71e-05 1.28e-05 4.29e-05 
7 1 1.69363e-06 3.61e-05 3.52e-05 4.27e-05 
21 1 1.47676e-06 2.35e-05 4.31e-05 4.52e-05 
1 1 1.58003e-06 5.76e-06 3.98e-05 4.58e-05 
51 1 1.67155e-06 1.64802e-05 5.85027e-06 3.76003e-05 
33 1 1.4561e-06 4.62e-05 8.59e-05 9.32e-06 
20 1 1.86918e-06 4.09e-05 9.07e-05 1.1e-05 
26 1 1.94147e-06 2.39e-05 6.63e-05 1.12e-05 
48 1 1.84853e-06 7.04e-06 8.62e-05 1.44e-05 
19 1 1.59036e-06 2.77e-05 5.27e-05 1.87e-05 
45 1 1.92082e-06 2.77e-05 8.16e-05 2.46e-05 
49 1 1.74526e-06 4.11e-06 5.35e-05 2.51e-05 
47 1 1.60068e-06 3.13e-05 6.57e-05 4.15e-05 
16 1 1.44578e-06 2.33e-05 5.87e-05 4.37e-05 
14 1 1.69363e-06 7.13e-05 2.49e-05 5.37e-06 
25 1 1.66264e-06 7.75e-05 4.98e-05 6.99e-06 
31 1 1.55937e-06 7.38e-05 2.22e-05 8.04e-06 
15 1 1.77624e-06 8.58e-05 3.56e-05 9.72e-06 
30 1 1.84853e-06 9.25e-05 4.93e-05 2.15e-05 
36 1 1.97245e-06 8.04e-05 8.18e-06 2.24e-05 
2 1 1.74526e-06 7.79e-05 2.09e-05 2.35e-05 
3 1 1.55937e-06 5.92e-05 9.55e-06 2.92e-05 
37 1 1.8382e-06 9.18e-05 8.08e-06 3.03e-05 
18 1 1.53872e-06 6.11e-05 1.4e-05 3.2e-05 
12 1 1.64199e-06 9.74e-05 4.09e-05 3.23e-05 
4 1 1.65232e-06 9.71e-05 3.94e-05 4.81e-05 
38 1 1.74526e-06 6.92e-05 7.64e-05 4.74e-06 
13 1 1.73493e-06 7.44e-05 8.83e-05 1.14e-05 
24 1 1.53872e-06 6.93e-05 6.21e-05 1.19e-05 
29 1 1.59036e-06 5.75e-05 5.71e-05 1.58e-05 
46 1 1.60068e-06 6.44e-05 5.98e-05 1.74e-05 
39 1 1.58003e-06 7.54e-05 5.49e-05 1.77e-05 
8 1 1.8382e-06 9.25e-05 7.05e-05 1.99e-05 
42 1 1.49166e-06 6.8477e-05 8.4901e-05 3.0871e-05 
17 1 1.50774e-06 6.99e-05 8.58e-05 3.6e-05 
6 1 1.74526e-06 5.84e-05 8.9e-05 4.11e-05 
34 1 1.62134e-06 6.04e-05 7.35e-05 4.35e-05 
41 1 1.87951e-06 7.02e-05 7.65e-05 4.38e-05 
10 1 1.88984e-06 6.24e-05 6.63e-05 4.71e-05 
52 1 1.66293e-06 6.76797e-05 8.51104e-05 3.22012e-05 
ITEM: TIMESTEP
600
ITEM: NUMBER OF ATOMS
53
ITEM: BOX BOUNDS ff ff ff
0.0000000000000000e+00 1.0000000000000000e-04
0.0000000000000000e+00 1.0000000000000000e-04
0.0000000000000000e+00 5.0000000000000002e-05
ITEM: ATOMS id type diameter x y z 
44 1 1.6422e-06 2.27e-05 4.93e-05 3.5e-06 
43 1 1.66298e-06 1.97e-05 3.1e-05 3.72e-06 
5 1 1.86046e-06 4.54e-05 2.11e-05 9.09e-06 
9 1 1.62141e-06 1.86e-06 4.92e-05 1.23e-05 
40 1 1.68377e-06 2.49e-05 2.93e-05 1.37e-05 
50 1 1.78771e-06 2.2e-05 6.24e-06 1.42e-05 
35 1 1.78771e-06 3.39e-05 2.74e-05 1.96e-05 
27 1 1.45511e-06 3.63e-05 3.75e-06 2e-05 
22 1 1.69417e-06 1.04e-05 3.82e-06 2.73e-05 
11 1 1.46551e-06 6.99e-06 1.54e-05 3.18e-05 
32 1 1.50907e-06 1.72867e-05 5.63841e-06 3.62548e-05 
23 1 1.50708e-06 2.57e-05 4.08e-05 4.09e-05 
28 1 1.85007e-06 4.71e-05 1.28e-05 4.29e-05 
7 1 1.70456e-06 3.61e-05 3.52e-05 4.27e-05 
21 1 1.48629e-06 2.35e-05 4.31e-05 4.52e-05 
1 1 1.59023e-06 5.76e-06 3.98e-05 4.58e-05 
51 1 1.68234e-06 1.647e-05 5.85295e-06 3.76173e-05 
33 1 1.46551e-06 4.62e-05 8.59e-05 9.32e-06 
20 1 1.88125e-06 4.09e-05 9.07e-05 1.1e-05 
26 1 1.95401e-06 2.39e-05 6.63e-05 1.12e-05 
48 1 1.86046e-06 7.04e-06 8.62e-05 1.44e-05 
19 1 1.60062e-06 2.77e-05 5.27e-05 1.87e-05 
45 1 1.93322e-06 2.77e-05 8.16e-05 2.46e-05 
49 1 1.75653e-06 4.11e-06 5.35e-05 2.51e-05 
47 1 1.61102e-06 3.13e-05 6.57e-05 4.15e-05 
16 1 1.45511e-06 2.33e-05 5.87e-05 4.37e-05 
14 1 1.70456e-06 7.13e-05 2.49e-05 5.37e-06 
25 1 1.67338e-06 7.75e-05 4.98e-05 6.99e-06 
31 1 1.56944e-06 7.38e-05 2.22e-05 8.04e-06 
15 1 1.78771e-06 8.58e-05 3.56e-05 9.72e-06 
30 1 1.86046e-06 9.25e-05 4.93e-05 2.15e-05 
36 1 1.48573e-06 8.07779e-05 8.08071e-06 2.17695e-05 
2 1 1.75653e-06 7.79e-05 2.09e-05 2.35e-05 
3 1 1.56944e-06 5.92e-05 9.55e-06 2.92e-05 
37 1 1.85007e-06 9.18e-05 8.08e-06 3.03e-05 
18 1 1.54865e-06 6.11e-05 1.4e-05 3.2e-05 
12 1 1.65259e-06 9.74e-05 4.09e-05 3.23e-05 
4 1 1.66298e-06 9.71e-05 3.94e-05 4.81e-05 
53 1 1.65632e-06 7.99787e-05 8.29069e-06 2.31029e-05 
38 1 1.75653e-06 6.92e-05 7.64e-05 4.74e-06 
13 1 1.74613e-06 7.44e-05 8.83e-05 1.14e-05 
24 1 1.54865e-06 6.93e-05 6.21e-05 1.19e-05 
29 1 1.60062e-06 5.75e-05 5.71e-05 1.58e-05 
46 1 1.61102e-06 6.44e-05 5.98e-05 1.74e-05 
39 1 1.59023e-06 7.54e-05 5.49e-05 1.77e-05 
8 1 1.85007e-06 9.25e-05 7.05e-05 1.99e-05 
42 1 1.50129e-06 6.8477e-05 8.4901e-05 3.0871e-05 
17 1 1.51747e-06 6.99e-05 8.58e-05 3.6e-05 
6 1 1.75653e-06 5.84e-05 8.9e-05 4.11e-05 
34 1 1.6318e-06 6.04e-05 7.35e-05 4.35e-05 
41 1 1.89164e-06 7.02e-05 7.65e-05 4.38e-05 
10 1 1.90204e-06 6.24e-05 6.63e-05 4.71e-05 
52 1 1.67367e-06 6.76797e-05 8.51104e-05 3.22012e-05 
ITEM: TIMESTEP
700
ITEM: NUMBER OF ATOMS
53
ITEM: BOX BOUNDS ff ff ff
0.0000000000000000e+00 1.0000000000000000e-04
0.0000000000000000e+00 1.0000000000000000e-04
0.0000000000000000e+00 5.0000000000000002e-05
ITEM: ATOMS id type diameter x y z 
44 1 1.6528e-06 2.27e-05 4.93e-05 3.5e-06 
43 1 1.67372e-06 1.97e-05 3.1e-05 3.72e-06 
5 1 1.87247e-06 4.54e-05 2.11e-05 9.09e-06 
9 1 1.63188e-06 1.86e-06 4.92e-05 1.23e-05 
40 1 1.69464e-06 2.49e-05 2.93e-05 1.37e-05 
50 1 1.79925e-06 2.2e-05 6.24e-06 1.42e-05 
35 1 1.79925e-06 3.39e-05 2.74e-05 1.96e-05 
27 1 1.46451e-06 3.63e-05 3.75e-06 2e-05 
22 1 1.7051e-06 1.04e-05 3.82e-06 2.73e-05 
11 1 1.47497e-06 6.99e-06 1.54e-05 3.18e-05 
32 1 1.51881e-06 1.72867e-05 5.63841e-06 3.62548e-05 
23 1 1.51681e-06 2.57e-05 4.08e-05 4.09e-05 
28 1 1.86201e-06 4.71e-05 1.28e-05 4.29e-05 
7 1 1.71556e-06 3.61e-05 3.52e-05 4.27e-05 
21 1 1.49589e-06 2.35e-05 4.31e-05 4.52e-05 
1 1 1.6005e-06 5.76e-06 3.98e-05 4.58e-05 
51 1 1.6932e-06 1.647e-05 5.85295e-06 3.76173e-05 
33 1 1.47497e-06 4.62e-05 8.59e-05 9.32e-06 
20 1 1.8934e-06 4.09e-05 9.07e-05 1.1e-05 
26 1 1.96662e-06 2.39e-05 6.63e-05 1.12e-05 
48 1 1.87247e-06 7.04e-06 8.62e-05 1.44e-05 
19 1 1.61096e-06 2.77e-05 5.27e-05 1.87e-05 
45 1 1.9457e-06 2.77e-05 8.16e-05 2.46e-05 
49 1 1.76787e-06 4.11e-06 5.35e-05 2.51e-05 
47 1 1.62142e-06 3.13e-05 6.57e-05 4.15e-05 
16 1 1.46451e-06 2.33e-05 5.87e-05 4.37e-05 
14 1 1.71556e-06 7.13e-05 2.49e-05 5.37e-06 
25 1 1.68418e-06 7.75e-05 4.98e-05 6.99e-06 
31 1 1.57957e-06 7.38e-05 2.22e-05 8.04e-06 
15 1 1.79925e-06 8.58e-05 3.56e-05 9.72e-06 
30 1 1.87247e-06 9.25e-05 4.93e-05 2.15e-05 
36 1 1.49532e-06 8.07779e-05 8.08071e-06 2.17695e-05 
2 1 1.76787e-06 7.79e-05 2.09e-05 2.35e-05 
3 1 1.57957e-06 5.92e-05 9.55e-06 2.92e-05 
37 1 1.86201e-06 9.18e-05 8.08e-06 3.03e-05 
18 1 1.55865e-06 6.11e-05 1.4e-05 3.2e-05 
12 1 1.66326e-06 9.74e-05 4.09e-05 3.23e-05 
4 1 1.67372e-06 9.71e-05 3.94e-05 4.81e-05 
53 1 1.66702e-06 7.99787e-05 8.29069e-06 2.31029e-05 
38 1 1.76787e-06 6.92e-05 7.64e-05 4.74e-06 
13 1 1.75741e-06 7.44e-05 8.83e-05 1.14e-05 
24 1 1.55865e-06 6.93e-05 6.21e-05 1.19e-05 
29 1 1.61096e-06 5.75e-05 5.71e-05 1.58e-05 
46 1 1.62142e-06 6.44e-05 5.98e-05 1.74e-05 
39 1 1.6005e-06 7.54e-05 5.49e-05 1.77e-05 
8 1 1.86201e-06 9.25e-05 7.05e-05 1.99e-05 
42 1 1.51098e-06 6.84872e-05 8.48983e-05 3.0854e-05 
17 1 1.52727e-06 6.99e-05 8.58e-05 3.6e-05 
6 1 1.76787e-06 5.84e-05 8.9e-05 4.11e-05 
34 1 1.64234e-06 6.04e-05 7.35e-05 4.35e-05 
41 1 1.90386e-06 7.02e-05 7.65e-05 4.38e-05 
10 1 1.91432e-06 6.24e-05 6.63e-05 4.71e-05 
52 1 1.68447e-06 6.76695e-05 8.51131e-05 3.22182e-05 
ITEM: TIMESTEP
800
ITEM: NUMBER OF ATOMS
54
ITEM: BOX BOUNDS ff ff ff
0.0000000000000000e+00 1.0000000000000000e-04
0.0000000000000000e+00 1.0000000000000000e-04
0.0000000000000000e+00 5.0000000000000002e-05
ITEM: ATOMS id type diameter x y z 
44 1 1.66347e-06 2.27e-05 4.93e-05 3.5e-06 
43 1 1.68453e-06 1.97e-05 3.1e-05 3.72e-06 
5 1 1.88456e-06 4.54e-05 2.11e-05 9.09e-06 
9 1 1.64241e-06 1.86e-06 4.92e-05 1.23e-05 
40 1 1.70558e-06 2.49e-05 2.93e-05 1.37e-05 
50 1 1.81087e-06 2.2e-05 6.24e-06 1.42e-05 
35 1 1.81087e-06 3.39e-05 2.74e-05 1.96e-05 
27 1 1.47396e-06 3.63e-05 3.75e-06 2e-05 
22 1 1.71611e-06 1.04e-05 3.82e-06 2.73e-05 
11 1 1.48449e-06 6.99e-06 1.54e-05 3.18e-05 
32 1 1.52861e-06 1.72867e-05 5.63841e-06 3.62548e-05 
23 1 1.5266e-06 2.57e-05 4.08e-05 4.09e-05 
28 1 1.87403e-06 4.71e-05 1.28e-05 4.29e-05 
7 1 1.72664e-06 3.61e-05 3.52e-05 4.27e-05 
21 1 1.50554e-06 2.35e-05 4.31e-05 4.52e-05 
1 1 1.61083e-06 5.76e-06 3.98e-05 4.58e-05 
51 1 1.70413e-06 1.647e-05 5.85295e-06 3.76173e-05 
33 1 1.48449e-06 4.62e-05 8.59e-05 9.32e-06 
20 1 1.90562e-06 4.09e-05 9.07e-05 1.1e-05 
26 1 1.48134e-06 2.42768e-05 6.6201e-05 1.05713e-05 
48 1 1.88456e-06 7.04e-06 8.62e-05 1.44e-05 
19 1 1.62136e-06 2.77e-05 5.27e-05 1.87e-05 
54 1 1.65143e-06 2.34799e-05 6.64104e-05 1.19008e-05 
45 1 1.95826e-06 2.77e-05 8.16e-05 2.46e-05 
49 1 1.77928e-06 4.11e-06 5.35e-05 2.51e-05 
47 1 1.63188e-06 3.13e-05 6.57e-05 4.15e-05 
16 1 1.47396e-06 2.33e-05 5.87e-05 4.37e-05 
14 1 1.72664e-06 7.13e-05 2.49e-05 5.37e-06 
25 1 1.69505e-06 7.75e-05 4.98e-05 6.99e-06 
31 1 1.58977e-06 7.38e-05 2.22e-05 8.04e-06 
15 1 1.81087e-06 8.58e-05 3.56e-05 9.72e-06 
30 1 1.88456e-06 9.25e-05 4.93e-05 2.15e-05 
36 1 1.50498e-06 8.07779e-05 8.08071e-06 2.17695e-05 
2 1 1.77928e-06 7.79e-05 2.09e-05 2.35e-05 
3 1 1.58977e-06 5.92e-05 9.55e-06 2.92e-05 
37 1 1.87403e-06 9.18e-05 8.08e-06 3.03e-05 
18 1 1.56871e-06 6.11e-05 1.4e-05 3.2e-05 
12 1 1.674e-06 9.74e-05 4.09e-05 3.23e-05 
4 1 1.68453e-06 9.71e-05 3.94e-05 4.81e-05 
53 1 1.67778e-06 7.99787e-05 8.29069e-06 2.31029e-05 
38 1 1.77928e-06 6.92e-05 7.64e-05 4.74e-06 
13 1 1.76875e-06 7.44e-05 8.83e-05 1.14e-05 
24 1 1.56871e-06 6.93e-05 6.21e-05 1.19e-05 
29 1 1.62136e-06 5.75e-05 5.71e-05 1.58e-05 
46 1 1.63188e-06 6.44e-05 5.98e-05 1.74e-05 
39 1 1.61083e-06 7.54e-05 5.49e-05 1.77e-05 
8 1 1.87403e-06 9.25e-05 7.05e-05 1.99e-05 
42 1 1.52073e-06 6.84872e-05 8.48983e-05 3.0854e-05 
17 1 1.53713e-06 6.99e-05 8.58e-05 3.6e-05 
6 1 1.77928e-06 5.84e-05 8.9e-05 4.11e-05 
34 1 1.65294e-06 6.04e-05 7.35e-05 4.35e-05 
41 1 1.91615e-06 7.02e-05 7.65e-05 4.38e-05 
10 1 1.92668e-06 6.24e-05 6.63e-05 4.71e-05 
52 1 1.69535e-06 6.76695e-05 8.51131e-05 3.22182e-05 
ITEM: TIMESTEP
900
ITEM: NUMBER OF ATOMS
54
ITEM: BOX BOUNDS ff ff ff
0.0000000000000000e+00 1.0000000000000000e-04
0.0000000000000000e+00 1.0000000000000000e-04
0.0000000000000000e+00 5.0000000000000002e-05
ITEM: ATOMS id type diameter x y z 
44 1 1.67421e-06 2.27e-05 4.93e-05 3.5e-06 
43 1 1.6954e-06 1.97e-05 3.1e-05 3.72e-06 
5 1 1.89673e-06 4.54e-05 2.11e-05 9.09e-06 
9 1 1.65302e-06 1.86e-06 4.92e-05 1.23e-05 
40 1 1.71659e-06 2.49e-05 2.93e-05 1.37e-05 
50 1 1.82256e-06 2.2e-05 6.24e-06 1.42e-05 
35 1 1.82256e-06 3.39e-05 2.74e-05 1.96e-05 
27 1 1.48348e-06 3.63e-05 3.75e-06 2e-05 
22 1 1.72719e-06 1.04e-05 3.82e-06 2.73e-05 
11 1 1.49407e-06 6.99e-06 1.54e-05 3.18e-05 
32 1 1.53848e-06 1.72867e-05 5.63841e-06 3.62548e-05 
23 1 1.53646e-06 2.57e-05 4.08e-05 4.09e-05 
28 1 1.88613e-06 4.71e-05 1.28e-05 4.29e-05 
7 1 1.73779e-06 3.61e-05 3.52e-05 4.27e-05 
21 1 1.51526e-06 2.35e-05 4.31e-05 4.52e-05 
1 1 1.62123e-06 5.76e-06 3.98e-05 4.58e-05 
51 1 1.71513e-06 1.647e-05 5.85295e-06 3.76173e-05 
33 1 1.49407e-06 4.62e-05 8.59e-05 9.32e-06 
20 1 1.91792e-06 4.09e-05 9.07e-05 1.1e-05 
26 1 1.4909e-06 2.42768e-05 6.6201e-05 1.05713e-05 
48 1 1.89673e-06 7.04e-06 8.62e-05 1.44e-05 
19 1 1.63182e-06 2.77e-05 5.27e-05 1.87e-05 
54 1 1.66209e-06 2.34799e-05 6.64104e-05 1.19008e-05 
45 1 1.9709e-06 2.77e-05 8.16e-05 2.46e-05 
49 1 1.79077e-06 4.11e-06 5.35e-05 2.51e-05 
47 1 1.64242e-06 3.13e-05 6.57e-05 4.15e-05 
16 1 1.48348e-06 2.33e-05 5.87e-05 4.37e-05 
14 1 1.73779e-06 7.13e-05 2.49e-05 5.37e-06 
25 1 1.706e-06 7.75e-05 4.98e-05 6.99e-06 
31 1 1.60003e-06 7.38e-05 2.22e-05 8.04e-06 
15 1 1.82256e-06 8.58e-05 3.56e-05 9.72e-06 
30 1 1.89673e-06 9.25e-05 4.93e-05 2.15e-05 
36 1 1.51469e-06 8.07881e-05 8.07804e-06 2.17525e-05 
2 1 1.79077e-06 7.79e-05 2.09e-05 2.35e-05 
3 1 1.60003e-06 5.92e-05 9.55e-06 2.92e-05 
37 1 1.88613e-06 9.18e-05 8.08e-06 3.03e-05 
18 1 1.57884e-06 6.11e-05 1.4e-05 3.2e-05 
12 1 1.6848e-06 9.74e-05 4.09e-05 3.23e-05 
4 1 1.6954e-06 9.71e-05 3.94e-05 4.81e-05 
53 1 1.68861e-06 7.99685e-05 8.29336e-06 2.31199e-05 
38 1 1.79077e-06 6.92e-05 7.64e-05 4.74e-06 
13 1 1.78017e-06 7.44e-05 8.83e-05 1.14e-05 
24 1 1.57884e-06 6.93e-05 6.21e-05 1.19e-05 
29 1 1.63182e-06 5.75e-05 5.71e-05 1.58e-05 
46 1 1.64242e-06 6.44e-05 5.98e-05 1.74e-05 
39 1 1.62123e-06 7.54e-05 5.49e-05 1.77e-05 
8 1 1.88613e-06 9.25e-05 7.05e-05 1.99e-05 
42 1 1.53055e-06 6.84872e-05 8.48983e-05 3.0854e-05 
17 1 1.54705e-06 6.99e-05 8.58e-05 3.6e-05 
6 1 1.79077e-06 5.84e-05 8.9e-05 4.11e-05 
34 1 1.66361e-06 6.04e-05 7.35e-05 4.35e-05 
41 1 1.92852e-06 7.02e-05 7.65e-05 4.38e-05 
10 1 1.93911e-06 6.24e-05 6.63e-05 4.71e-05 
52 1 1.70629e-06 6.76695e-05 8.51131e-05 3.22182e-05 
ITEM: TIMESTEP
1000
ITEM: NUMBER OF ATOMS
55
ITEM: BOX BOUNDS ff ff ff
0.0000000000000000e+00 1.0000000000000000e-04
0.0000000000000000e+00 1.0000000000000000e-04
0.0000000000000000e+00 5.0000000000000002e-05
ITEM: ATOMS id type diameter x y z 
44 1 1.68502e-06 2.27e-05 4.93e-05 3.5e-06 
43 1 1.70635e-06 1.97e-05 3.1e-05 3.72e-06 
5 1 1.90897e-06 4.54e-05 2.11e-05 9.09e-06 
9 1 1.66369e-06 1.86e-06 4.92e-05 1.23e-05 
40 1 1.72768e-06 2.49e-05 2.93e-05 1.37e-05 
50 1 1.83432e-06 2.2e-05 6.24e-06 1.42e-05 
35 1 1.83432e-06 3.39e-05 2.74e-05 1.96e-05 
27 1 1.49305e-06 3.63e-05 3.75e-06 2e-05 
22 1 1.73834e-06 1.04e-05 3.82e-06 2.73e-05 
11 1 1.50372e-06 6.99e-06 1.54e-05 3.18e-05 
32 1 1.54841e-06 1.72969e-05 5.63573e-06 3.62378e-05 
51 1 1.72621e-06 1.64598e-05 5.85563e-06 3.76343e-05 
23 1 1.54638e-06 2.57e-05 4.08e-05 4.09e-05 
28 1 1.89831e-06 4.71e-05 1.28e-05 4.29e-05 
7 1 1.749e-06 3.61e-05 3.52e-05 4.27e-05 
21 1 1.52505e-06 2.35e-05 4.31e-05 4.52e-05 
1 1 1.63169e-06 5.76e-06 3.98e-05 4.58e-05 
33 1 1.50372e-06 4.62e-05 8.59e-05 9.32e-06 
26 1 1.50052e-06 2.42768e-05 6.6201e-05 1.05713e-05 
20 1 1.9303e-06 4.09e-05 9.07e-05 1.1e-05 
54 1 1.67282e-06 2.34799e-05 6.64104e-05 1.19008e-05 
48 1 1.90897e-06 7.04e-06 8.62e-05 1.44e-05 
19 1 1.64236e-06 2.77e-05 5.27e-05 1.87e-05 
45 1 1.48456e-06 2.80776e-05 8.15008e-05 2.397e-05 
49 1 1.80233e-06 4.11e-06 5.35e-05 2.51e-05 
55 1 1.65502e-06 2.7279e-05 8.17106e-05 2.53024e-05 
47 1 1.65302e-06 3.13e-05 6.57e-05 4.15e-05 
16 1 1.49305e-06 2.33e-05 5.87e-05 4.37e-05 
14 1 1.749e-06 7.13e-05 2.49e-05 5.37e-06 
25 1 1.71701e-06 7.75e-05 4.98e-05 6.99e-06 
31 1 1.61036e-06 7.38e-05 2.22e-05 8.04e-06 
15 1 1.83432e-06 8.58e-05 3.56e-05 9.72e-06 
30 1 1.90897e-06 9.25e-05 4.93e-05 2.15e-05 
36 1 1.52447e-06 8.07881e-05 8.07804e-06 2.17525e-05 
53 1 1.69951e-06 7.99685e-05 8.29336e-06 2.31199e-05 
2 1 1.80233e-06 7.79e-05 2.09e-05 2.35e-05 
3 1 1.61036e-06 5.92e-05 9.55e-06 2.92e-05 
37 1 1.89831e-06 9.18e-05 8.08e-06 3.03e-05 
18 1 1.58903e-06 6.11e-05 1.4e-05 3.2e-05 
12 1 1.69568e-06 9.74e-05 4.09e-05 3.23e-05 
4 1 1.70635e-06 9.71e-05 3.94e-05 4.81e-05 
38 1 1.80233e-06 6.92e-05 7.64e-05 4.74e-06 
13 1 1.79166e-06 7.44e-05 8.83e-05 1.14e-05 
24 1 1.58903e-06 6.93e-05 6.21e-05 1.19e-05 
29 1 1.64236e-06 5.75e-05 5.71e-05 1.58e-05 
46 1 1.65302e-06 6.44e-05 5.98e-05 1.74e-05 
39 1 1.63169e-06 7.54e-05 5.49e-05 1.77e-05 
8 1 1.89831e-06 9.25e-05 7.05e-05 1.99e-05 
42 1 1.54043e-06 6.84872e-05 8.48983e-05 3.0854e-05 
52 1 1.71731e-06 6.76695e-05 8.51131e-05 3.22182e-05 
17 1 1.55704e-06 6.99e-05 8.58e-05 3.6e-05 
6 1 1.80233e-06 5.84e-05 8.9e-05 4.11e-05 
34 1 1.67435e-06 6.04e-05 7.35e-05 4.35e-05 
41 1 1.94097e-06 7.02e-05 7.65e-05 4.38e-05 
10 1 1.95163e-06 6.24e-05 6.63e-05 4.71e-05 
ITEM: TIMESTEP
1100
ITEM: NUMBER OF ATOMS
55
ITEM: BOX BOUNDS ff ff ff
0.0000000000000000e+00 1.0000000000000000e-04
0.0000000000000000e+00 1.0000000000000000e-04
0.0000000000000000e+00 5.0000000000000002e-05
ITEM: ATOMS id type diameter x y z 
44 1 1.69589e-06 2.27e-05 4.93e-05 3.5e-06 
43 1 1.71736e-06 1.97e-05 3.1e-05 3.72e-06 
5 1 1.9213e-06 4.54e-05 2.11e-05 9.09e-06 
9 1 1.67443e-06 1.86e-06 4.92e-05 1.23e-05 
40 1 1.73883e-06 2.49e-05 2.93e-05 1.37e-05 
50 1 1.84616e-06 2.2e-05 6.24e-06 1.42e-05 
35 1 1.84616e-06 3.39e-05 2.74e-05 1.96e-05 
27 1 1.50269e-06 3.63e-05 3.75e-06 2e-05 
22 1 1.74956e-06 1.04e-05 3.82e-06 2.73e-05 
11 1 1.51342e-06 6.99e-06 1.54e-05 3.18e-05 
32 1 1.55841e-06 1.72969e-05 5.63573e-06 3.62378e-05 
51 1 1.73735e-06 1.64598e-05 5.85563e-06 3.76343e-05 
23 1 1.55636e-06 2.57e-05 4.08e-05 4.09e-05 
28 1 1.91056e-06 4.71e-05 1.28e-05 4.29e-05 
7 1 1.7603e-06 3.61e-05 3.52e-05 4.27e-05 
21 1 1.53489e-06 2.35e-05 4.31e-05 4.52e-05 
1 1 1.64223e-06 5.76e-06 3.98e-05 4.58e-05 
33 1 1.51342e-06 4.62e-05 8.59e-05 9.32e-06 
26 1 1.51021e-06 2.4287e-05 6.61983e-05 1.05543e-05 
20 1 1.94277e-06 4.09e-05 9.07e-05 1.1e-05 
54 1 1.68362e-06 2.34697e-05 6.6413e-05 1.19178e-05 
48 1 1.9213e-06 7.04e-06 8.62e-05 1.44e-05 
19 1 1.65296e-06 2.77e-05 5.27e-05 1.87e-05 
45 1 1.49415e-06 2.80776e-05 8.15008e-05 2.397e-05 
49 1 1.81396e-06 4.11e-06 5.35e-05 2.51e-05 
55 1 1.66571e-06 2.7279e-05 8.17106e-05 2.53024e-05 
47 1 1.66369e-06 3.13e-05 6.57e-05 4.15e-05 