ITEM: TIMESTEP
0
ITEM: NUMBER OF ATOMS
50
ITEM: BOX BOUNDS ff ff ff
0.0000000000000000e+00 1.0000000000000000e-04
0.0000000000000000e+00 1.0000000000000000e-04
0.0000000000000000e+00 5.0000000000000002e-05
ITEM: ATOMS id type diameter x y z 
17 1 1.86e-06 1.82e-05 3.63e-05 2.27e-06 
5 1 1.38e-06 4.59e-05 2.63e-05 5.76e-06 
29 1 1.89e-06 2.44e-05 1.89e-05 6.1e-06 
2 1 1.54e-06 4.48e-05 6.51e-06 8.19e-06 
50 1 1.66e-06 4.96e-05 1.67e-05 1.14e-05 
39 1 1.76e-06 1.63e-05 1.2e-05 2.06e-05 
44 1 1.87e-06 2.7e-05 1.39e-05 2.08e-05 
31 1 1.85e-06 4.92e-05 3.25e-05 3.4e-05 
33 1 1.78e-06 3.95e-05 6.61e-06 3.99e-05 
11 1 1.76e-06 2.7e-05 3.21e-05 3.98e-05 
30 1 1.59e-06 4.22e-06 4.43e-05 4.48e-05 
16 1 1.44e-06 1.36e-05 7.18e-05 2.39e-06 
1 1 1.83e-06 1.66e-05 8.26e-05 2.38e-06 
8 1 1.68e-06 4.3e-05 7.76e-05 3.26e-06 
48 1 1.51e-06 1.18e-05 8.07e-05 7.32e-06 
25 1 1.73e-06 2.1e-05 7.93e-05 1.37e-05 
4 1 1.45e-06 4.02e-05 8.35e-05 1.37e-05 
43 1 1.38e-06 3.08e-05 8.67e-05 1.54e-05 
9 1 1.62e-06 4.93e-05 8.04e-05 1.81e-05 
22 1 1.84e-06 2.01e-05 8.04e-05 2.19e-05 
13 1 1.88e-06 4.98e-05 6.68e-05 2.65e-05 
41 1 1.89e-06 1.69e-05 7.83e-05 2.97e-05 
36 1 1.75e-06 2.18e-06 6.71e-05 3e-05 
28 1 1.78e-06 3.94e-05 7.58e-05 3.36e-05 
24 1 1.76e-06 3.44e-06 8.89e-05 4.18e-05 
10 1 1.38e-06 7.4e-05 1.62e-05 1.54e-06 
15 1 1.92e-06 6e-05 2.12e-05 2.63e-06 
37 1 1.63e-06 7.45e-05 2.72e-05 1.18e-05 
35 1 1.48e-06 6.35e-05 3.17e-05 1.22e-05 
14 1 1.58e-06 9.53e-05 2.67e-05 1.63e-05 
38 1 1.91e-06 5.55e-05 3.26e-05 2.21e-05 
12 1 1.76e-06 6.22e-05 6.27e-06 2.85e-05 
49 1 1.56e-06 7.4e-05 1.14e-05 3.36e-05 
19 1 1.59e-06 9.39e-05 2.33e-05 3.49e-05 
27 1 1.7e-06 8.9e-05 1.93e-05 3.78e-05 
34 1 1.55e-06 7.44e-05 3.34e-05 3.95e-05 
21 1 1.89e-06 5.73e-05 1.09e-05 4.53e-05 
18 1 1.51e-06 5e-05 9.49e-05 2.82e-06 
47 1 1.79e-06 7.94e-05 6.26e-05 5.81e-06 
45 1 1.81e-06 7.84e-05 6.07e-05 6.19e-06 
3 1 1.59e-06 5.62e-05 7.31e-05 9.14e-06 
23 1 1.58e-06 5.26e-05 8.04e-05 9.26e-06 
46 1 1.8e-06 9.29e-05 8.84e-05 1.02e-05 
42 1 1.4e-06 5.82e-05 9.79e-05 3.48e-05 
20 1 1.6e-06 6.83e-05 8.81e-05 3.53e-05 
26 1 1.9e-06 7.27e-05 8.95e-05 3.75e-05 
7 1 1.68e-06 9.62e-05 7.44e-05 4.28e-05 
32 1 1.69e-06 8.18e-05 6.86e-05 4.46e-05 
6 1 1.87e-06 5.21e-05 8.86e-05 4.47e-05 
40 1 1.65e-06 6.57e-05 7.91e-05 4.75e-05 
ITEM: TIMESTEP
100
ITEM: NUMBER OF ATOMS
50
ITEM: BOX BOUNDS ff ff ff
0.0000000000000000e+00 1.0000000000000000e-04
0.0000000000000000e+00 1.0000000000000000e-04
0.0000000000000000e+00 5.0000000000000002e-05
ITEM: ATOMS id type diameter x y z 
17 1 1.87101e-06 1.82e-05 3.63e-05 2.27e-06 
5 1 1.38817e-06 4.59e-05 2.63e-05 5.76e-06 
29 1 1.90119e-06 2.44e-05 1.89e-05 6.1e-06 
2 1 1.54912e-06 4.48e-05 6.51e-06 8.19e-06 
50 1 1.66983e-06 4.96e-05 1.67e-05 1.14e-05 
39 1 1.77042e-06 1.63e-05 1.2e-05 2.06e-05 
44 1 1.88107e-06 2.7e-05 1.39e-05 2.08e-05 
31 1 1.86095e-06 4.92e-05 3.25e-05 3.4e-05 
33 1 1.79054e-06 3.95e-05 6.61e-06 3.99e-05 
11 1 1.77042e-06 2.7e-05 3.21e-05 3.98e-05 
30 1 1.59941e-06 4.22e-06 4.43e-05 4.48e-05 
16 1 1.44853e-06 1.36e-05 7.18e-05 2.39e-06 
1 1 1.84084e-06 1.66e-05 8.26e-05 2.38e-06 
8 1 1.68995e-06 4.3e-05 7.76e-05 3.26e-06 
48 1 1.51894e-06 1.18e-05 8.07e-05 7.32e-06 
25 1 1.74024e-06 2.1e-05 7.93e-05 1.37e-05 
4 1 1.45859e-06 4.02e-05 8.35e-05 1.37e-05 
43 1 1.38817e-06 3.08e-05 8.67e-05 1.54e-05 
9 1 1.62959e-06 4.93e-05 8.04e-05 1.81e-05 
22 1 1.85089e-06 2.01e-05 8.04e-05 2.19e-05 
13 1 1.89113e-06 4.98e-05 6.68e-05 2.65e-05 
41 1 1.90119e-06 1.69e-05 7.83e-05 2.97e-05 
36 1 1.76036e-06 2.18e-06 6.71e-05 3e-05 
28 1 1.79054e-06 3.94e-05 7.58e-05 3.36e-05 
24 1 1.77042e-06 3.44e-06 8.89e-05 4.18e-05 
10 1 1.38817e-06 7.4e-05 1.62e-05 1.54e-06 
15 1 1.93137e-06 6e-05 2.12e-05 2.63e-06 
37 1 1.63965e-06 7.45e-05 2.72e-05 1.18e-05 
35 1 1.48876e-06 6.35e-05 3.17e-05 1.22e-05 
14 1 1.58936e-06 9.53e-05 2.67e-05 1.63e-05 
38 1 1.92131e-06 5.55e-05 3.26e-05 2.21e-05 
12 1 1.77042e-06 6.22e-05 6.27e-06 2.85e-05 
49 1 1.56924e-06 7.4e-05 1.14e-05 3.36e-05 
19 1 1.59941e-06 9.39e-05 2.33e-05 3.49e-05 
27 1 1.71007e-06 8.9e-05 1.93e-05 3.78e-05 
34 1 1.55918e-06 7.44e-05 3.34e-05 3.95e-05 
21 1 1.90119e-06 5.73e-05 1.09e-05 4.53e-05 
18 1 1.51894e-06 5e-05 9.49e-05 2.82e-06 
47 1 1.8006e-06 7.94e-05 6.26e-05 5.81e-06 
45 1 1.82072e-06 7.84e-05 6.07e-05 6.19e-06 
3 1 1.59941e-06 5.62e-05 7.31e-05 9.14e-06 
23 1 1.58936e-06 5.26e-05 8.04e-05 9.26e-06 
46 1 1.81066e-06 9.29e-05 8.84e-05 1.02e-05 
42 1 1.40829e-06 5.82e-05 9.79e-05 3.48e-05 
20 1 1.60947e-06 6.83e-05 8.81e-05 3.53e-05 
26 1 1.91125e-06 7.27e-05 8.95e-05 3.75e-05 
7 1 1.68995e-06 9.62e-05 7.44e-05 4.28e-05 
32 1 1.70001e-06 8.18e-05 6.86e-05 4.46e-05 
6 1 1.88107e-06 5.21e-05 8.86e-05 4.47e-05 
40 1 1.65977e-06 6.57e-05 7.91e-05 4.75e-05 
ITEM: TIMESTEP
200
ITEM: NUMBER OF ATOMS
50
ITEM: BOX BOUNDS ff ff ff
0.0000000000000000e+00 1.0000000000000000e-04
0.0000000000000000e+00 1.0000000000000000e-04
0.0000000000000000e+00 5.0000000000000002e-05
ITEM: ATOMS id type diameter x y z 
17 1 1.88209e-06 1.82e-05 3.63e-05 2.27e-06 
5 1 1.39639e-06 4.59e-05 2.63e-05 5.76e-06 
29 1 1.91245e-06 2.44e-05 1.89e-05 6.1e-06 
2 1 1.55829e-06 4.48e-05 6.51e-06 8.19e-06 
50 1 1.67972e-06 4.96e-05 1.67e-05 1.14e-05 
39 1 1.7809e-06 1.63e-05 1.2e-05 2.06e-05 
44 1 1.89221e-06 2.7e-05 1.39e-05 2.08e-05 
31 1 1.87197e-06 4.92e-05 3.25e-05 3.4e-05 
33 1 1.80114e-06 3.95e-05 6.61e-06 3.99e-05 
11 1 1.7809e-06 2.7e-05 3.21e-05 3.98e-05 
30 1 1.60888e-06 4.22e-06 4.43e-05 4.48e-05 
16 1 1.4571e-06 1.36e-05 7.18e-05 2.39e-06 
1 1 1.85173e-06 1.66e-05 8.26e-05 2.38e-06 
8 1 1.69995e-06 4.3e-05 7.76e-05 3.26e-06 
48 1 1.52793e-06 1.18e-05 8.07e-05 7.32e-06 
25 1 1.75055e-06 2.1e-05 7.93e-05 1.37e-05 
4 1 1.46722e-06 4.02e-05 8.35e-05 1.37e-05 
43 1 1.39639e-06 3.08e-05 8.67e-05 1.54e-05 
9 1 1.63924e-06 4.93e-05 8.04e-05 1.81e-05 
22 1 1.86185e-06 2.01e-05 8.04e-05 2.19e-05 
13 1 1.90233e-06 4.98e-05 6.68e-05 2.65e-05 
41 1 1.91245e-06 1.69e-05 7.83e-05 2.97e-05 
36 1 1.77078e-06 2.18e-06 6.71e-05 3e-05 
28 1 1.80114e-06 3.94e-05 7.58e-05 3.36e-05 
24 1 1.7809e-06 3.44e-06 8.89e-05 4.18e-05 
10 1 1.39639e-06 7.4e-05 1.62e-05 1.54e-06 
15 1 1.9428e-06 6e-05 2.12e-05 2.63e-06 
37 1 1.64936e-06 7.45e-05 2.72e-05 1.18e-05 
35 1 1.49758e-06 6.35e-05 3.17e-05 1.22e-05 
14 1 1.59877e-06 9.53e-05 2.67e-05 1.63e-05 
38 1 1.93269e-06 5.55e-05 3.26e-05 2.21e-05 
12 1 1.7809e-06 6.22e-05 6.27e-06 2.85e-05 
49 1 1.57853e-06 7.4e-05 1.14e-05 3.36e-05 
19 1 1.60888e-06 9.39e-05 2.33e-05 3.49e-05 
27 1 1.72019e-06 8.9e-05 1.93e-05 3.78e-05 
34 1 1.56841e-06 7.44e-05 3.34e-05 3.95e-05 
21 1 1.91245e-06 5.73e-05 1.09e-05 4.53e-05 
18 1 1.52793e-06 5e-05 9.49e-05 2.82e-06 
47 1 1.81126e-06 7.94e-05 6.26e-05 5.81e-06 
45 1 1.8315e-06 7.84e-05 6.07e-05 6.19e-06 
3 1 1.60888e-06 5.62e-05 7.31e-05 9.14e-06 
23 1 1.59877e-06 5.26e-05 8.04e-05 9.26e-06 
46 1 1.82138e-06 9.29e-05 8.84e-05 1.02e-05 
42 1 1.41663e-06 5.82e-05 9.79e-05 3.48e-05 
20 1 1.619e-06 6.83e-05 8.81e-05 3.53e-05 
26 1 1.92257e-06 7.27e-05 8.95e-05 3.75e-05 
7 1 1.69995e-06 9.62e-05 7.44e-05 4.28e-05 
32 1 1.71007e-06 8.18e-05 6.86e-05 4.46e-05 
6 1 1.89221e-06 5.21e-05 8.86e-05 4.47e-05 
40 1 1.6696e-06 6.57e-05 7.91e-05 4.75e-05 
ITEM: TIMESTEP
300
ITEM: NUMBER OF ATOMS
50
ITEM: BOX BOUNDS ff ff ff
0.0000000000000000e+00 1.0000000000000000e-04
0.0000000000000000e+00 1.0000000000000000e-04
0.0000000000000000e+00 5.0000000000000002e-05
ITEM: ATOMS id type diameter x y z 
17 1 1.89323e-06 1.82e-05 3.63e-05 2.27e-06 
5 1 1.40466e-06 4.59e-05 2.63e-05 5.76e-06 
29 1 1.92377e-06 2.44e-05 1.89e-05 6.1e-06 
2 1 1.56752e-06 4.48e-05 6.51e-06 8.19e-06 
50 1 1.68966e-06 4.96e-05 1.67e-05 1.14e-05 
39 1 1.79145e-06 1.63e-05 1.2e-05 2.06e-05 
44 1 1.90341e-06 2.7e-05 1.39e-05 2.08e-05 
31 1 1.88306e-06 4.92e-05 3.25e-05 3.4e-05 
33 1 1.81181e-06 3.95e-05 6.61e-06 3.99e-05 
11 1 1.79145e-06 2.7e-05 3.21e-05 3.98e-05 
30 1 1.61841e-06 4.22e-06 4.43e-05 4.48e-05 
16 1 1.46573e-06 1.36e-05 7.18e-05 2.39e-06 
1 1 1.8627e-06 1.66e-05 8.26e-05 2.38e-06 
8 1 1.71002e-06 4.3e-05 7.76e-05 3.26e-06 
48 1 1.53698e-06 1.18e-05 8.07e-05 7.32e-06 
25 1 1.76091e-06 2.1e-05 7.93e-05 1.37e-05 
4 1 1.47591e-06 4.02e-05 8.35e-05 1.37e-05 
43 1 1.40466e-06 3.08e-05 8.67e-05 1.54e-05 
9 1 1.64895e-06 4.93e-05 8.04e-05 1.81e-05 
22 1 1.87288e-06 2.01e-05 8.04e-05 2.19e-05 
13 1 1.91359e-06 4.98e-05 6.68e-05 2.65e-05 
41 1 1.92377e-06 1.69e-05 7.83e-05 2.97e-05 
36 1 1.78127e-06 2.18e-06 6.71e-05 3e-05 
28 1 1.81181e-06 3.94e-05 7.58e-05 3.36e-05 
24 1 1.79145e-06 3.44e-06 8.89e-05 4.18e-05 
10 1 1.40466e-06 7.4e-05 1.62e-05 1.54e-06 
15 1 1.95431e-06 6e-05 2.12e-05 2.63e-06 
37 1 1.65913e-06 7.45e-05 2.72e-05 1.18e-05 
35 1 1.50645e-06 6.35e-05 3.17e-05 1.22e-05 
14 1 1.60823e-06 9.53e-05 2.67e-05 1.63e-05 
38 1 1.94413e-06 5.55e-05 3.26e-05 2.21e-05 
12 1 1.79145e-06 6.22e-05 6.27e-06 2.85e-05 
49 1 1.58787e-06 7.4e-05 1.14e-05 3.36e-05 
19 1 1.61841e-06 9.39e-05 2.33e-05 3.49e-05 
27 1 1.73038e-06 8.9e-05 1.93e-05 3.78e-05 
34 1 1.5777e-06 7.44e-05 3.34e-05 3.95e-05 
21 1 1.92377e-06 5.73e-05 1.09e-05 4.53e-05 
18 1 1.53698e-06 5e-05 9.49e-05 2.82e-06 
47 1 1.82198e-06 7.94e-05 6.26e-05 5.81e-06 
45 1 1.84234e-06 7.84e-05 6.07e-05 6.19e-06 
3 1 1.61841e-06 5.62e-05 7.31e-05 9.14e-06 
23 1 1.60823e-06 5.26e-05 8.04e-05 9.26e-06 
46 1 1.83216e-06 9.29e-05 8.84e-05 1.02e-05 
42 1 1.42502e-06 5.82e-05 9.79e-05 3.48e-05 
20 1 1.62859e-06 6.83e-05 8.81e-05 3.53e-05 
26 1 1.93395e-06 7.27e-05 8.95e-05 3.75e-05 
7 1 1.71002e-06 9.62e-05 7.44e-05 4.28e-05 
32 1 1.7202e-06 8.18e-05 6.86e-05 4.46e-05 
6 1 1.90341e-06 5.21e-05 8.86e-05 4.47e-05 
40 1 1.67948e-06 6.57e-05 7.91e-05 4.75e-05 
ITEM: TIMESTEP
400
ITEM: NUMBER OF ATOMS
50
ITEM: BOX BOUNDS ff ff ff
0.0000000000000000e+00 1.0000000000000000e-04
0.0000000000000000e+00 1.0000000000000000e-04
0.0000000000000000e+00 5.0000000000000002e-05
ITEM: ATOMS id type diameter x y z 
17 1 1.90444e-06 1.82e-05 3.63e-05 2.27e-06 
5 1 1.41298e-06 4.59e-05 2.63e-05 5.76e-06 
29 1 1.93516e-06 2.44e-05 1.89e-05 6.1e-06 
2 1 1.5768e-06 4.48e-05 6.51e-06 8.19e-06 
50 1 1.69967e-06 4.96e-05 1.67e-05 1.14e-05 
39 1 1.80206e-06 1.63e-05 1.2e-05 2.06e-05 
44 1 1.91468e-06 2.7e-05 1.39e-05 2.08e-05 
31 1 1.89421e-06 4.92e-05 3.25e-05 3.4e-05 
33 1 1.82253e-06 3.95e-05 6.61e-06 3.99e-05 
11 1 1.80206e-06 2.7e-05 3.21e-05 3.98e-05 
30 1 1.62799e-06 4.22e-06 4.43e-05 4.48e-05 
16 1 1.47441e-06 1.36e-05 7.18e-05 2.39e-06 
1 1 1.87373e-06 1.66e-05 8.26e-05 2.38e-06 
8 1 1.72014e-06 4.3e-05 7.76e-05 3.26e-06 
48 1 1.54608e-06 1.18e-05 8.07e-05 7.32e-06 
25 1 1.77134e-06 2.1e-05 7.93e-05 1.37e-05 
4 1 1.48465e-06 4.02e-05 8.35e-05 1.37e-05 
43 1 1.41298e-06 3.08e-05 8.67e-05 1.54e-05 
9 1 1.65871e-06 4.93e-05 8.04e-05 1.81e-05 
22 1 1.88397e-06 2.01e-05 8.04e-05 2.19e-05 
13 1 1.92492e-06 4.98e-05 6.68e-05 2.65e-05 
41 1 1.93516e-06 1.69e-05 7.83e-05 2.97e-05 
36 1 1.79182e-06 2.18e-06 6.71e-05 3e-05 
28 1 1.82253e-06 3.94e-05 7.58e-05 3.36e-05 
24 1 1.80206e-06 3.44e-06 8.89e-05 4.18e-05 
10 1 1.41298e-06 7.4e-05 1.62e-05 1.54e-06 
15 1 1.96588e-06 6e-05 2.12e-05 2.63e-06 
37 1 1.66895e-06 7.45e-05 2.72e-05 1.18e-05 
35 1 1.51536e-06 6.35e-05 3.17e-05 1.22e-05 
14 1 1.61775e-06 9.53e-05 2.67e-05 1.63e-05 
38 1 1.95564e-06 5.55e-05 3.26e-05 2.21e-05 
12 1 1.80206e-06 6.22e-05 6.27e-06 2.85e-05 
49 1 1.59728e-06 7.4e-05 1.14e-05 3.36e-05 
19 1 1.62799e-06 9.39e-05 2.33e-05 3.49e-05 
27 1 1.74062e-06 8.9e-05 1.93e-05 3.78e-05 
34 1 1.58704e-06 7.44e-05 3.34e-05 3.95e-05 
21 1 1.93516e-06 5.73e-05 1.09e-05 4.53e-05 
18 1 1.54608e-06 5e-05 9.49e-05 2.82e-06 
47 1 1.83277e-06 7.94e-05 6.26e-05 5.81e-06 
45 1 1.85325e-06 7.84e-05 6.07e-05 6.19e-06 
3 1 1.62799e-06 5.62e-05 7.31e-05 9.14e-06 
23 1 1.61775e-06 5.26e-05 8.04e-05 9.26e-06 
46 1 1.84301e-06 9.29e-05 8.84e-05 1.02e-05 
42 1 1.43345e-06 5.82e-05 9.79e-05 3.48e-05 
20 1 1.63823e-06 6.83e-05 8.81e-05 3.53e-05 
26 1 1.9454e-06 7.27e-05 8.95e-05 3.75e-05 
7 1 1.72014e-06 9.62e-05 7.44e-05 4.28e-05 
32 1 1.73038e-06 8.18e-05 6.86e-05 4.46e-05 
6 1 1.91468e-06 5.21e-05 8.86e-05 4.47e-05 
40 1 1.68943e-06 6.57e-05 7.91e-05 4.75e-05 
ITEM: TIMESTEP
500
ITEM: NUMBER OF ATOMS
51
ITEM: BOX BOUNDS ff ff ff
0.0000000000000000e+00 1.0000000000000000e-04
0.0000000000000000e+00 1.0000000000000000e-04
0.0000000000000000e+00 5.0000000000000002e-05
ITEM: ATOMS id type diameter x y z 
17 1 1.91572e-06 1.82e-05 3.63e-05 2.27e-06 
5 1 1.42134e-06 4.59e-05 2.63e-05 5.76e-06 
29 1 1.94662e-06 2.44e-05 1.89e-05 6.1e-06 
2 1 1.58613e-06 4.48e-05 6.51e-06 8.19e-06 
50 1 1.70973e-06 4.96e-05 1.67e-05 1.14e-05 
39 1 1.81273e-06 1.63e-05 1.2e-05 2.06e-05 
44 1 1.92602e-06 2.7e-05 1.39e-05 2.08e-05 
31 1 1.90542e-06 4.92e-05 3.25e-05 3.4e-05 
33 1 1.83332e-06 3.95e-05 6.61e-06 3.99e-05 
11 1 1.81273e-06 2.7e-05 3.21e-05 3.98e-05 
30 1 1.63763e-06 4.22e-06 4.43e-05 4.48e-05 
16 1 1.48314e-06 1.36e-05 7.18e-05 2.39e-06 
1 1 1.88482e-06 1.66e-05 8.26e-05 2.38e-06 
8 1 1.73033e-06 4.3e-05 7.76e-05 3.26e-06 
48 1 1.55524e-06 1.18e-05 8.07e-05 7.32e-06 
25 1 1.78183e-06 2.1e-05 7.93e-05 1.37e-05 
4 1 1.49344e-06 4.02e-05 8.35e-05 1.37e-05 
43 1 1.42134e-06 3.08e-05 8.67e-05 1.54e-05 
9 1 1.66853e-06 4.93e-05 8.04e-05 1.81e-05 
22 1 1.89512e-06 2.01e-05 8.04e-05 2.19e-05 
13 1 1.93632e-06 4.98e-05 6.68e-05 2.65e-05 
41 1 1.94662e-06 1.69e-05 7.83e-05 2.97e-05 
36 1 1.80243e-06 2.18e-06 6.71e-05 3e-05 
28 1 1.83332e-06 3.94e-05 7.58e-05 3.36e-05 
24 1 1.81273e-06 3.44e-06 8.89e-05 4.18e-05 
10 1 1.42134e-06 7.4e-05 1.62e-05 1.54e-06 
15 1 1.51617e-06 6.06273e-05 2.13941e-05 2.25254e-06 
37 1 1.67883e-06 7.45e-05 2.72e-05 1.18e-05 
35 1 1.52434e-06 6.35e-05 3.17e-05 1.22e-05 
14 1 1.62733e-06 9.53e-05 2.67e-05 1.63e-05 
51 1 1.61954e-06 5.93299e-05 2.09927e-05 3.0332e-06 
38 1 1.96722e-06 5.55e-05 3.26e-05 2.21e-05 
12 1 1.81273e-06 6.22e-05 6.27e-06 2.85e-05 
49 1 1.60673e-06 7.4e-05 1.14e-05 3.36e-05 
19 1 1.63763e-06 9.39e-05 2.33e-05 3.49e-05 
27 1 1.75093e-06 8.9e-05 1.93e-05 3.78e-05 
34 1 1.59643e-06 7.44e-05 3.34e-05 3.95e-05 
21 1 1.94662e-06 5.73e-05 1.09e-05 4.53e-05 
18 1 1.55524e-06 5e-05 9.49e-05 2.82e-06 
47 1 1.84362e-06 7.94e-05 6.26e-05 5.81e-06 
45 1 1.86422e-06 7.84e-05 6.07e-05 6.19e-06 
3 1 1.63763e-06 5.62e-05 7.31e-05 9.14e-06 
23 1 1.62733e-06 5.26e-05 8.04e-05 9.26e-06 
46 1 1.85392e-06 9.29e-05 8.84e-05 1.02e-05 
42 1 1.44194e-06 5.82e-05 9.79e-05 3.48e-05 
20 1 1.64793e-06 6.83e-05 8.81e-05 3.53e-05 
26 1 1.95692e-06 7.27e-05 8.95e-05 3.75e-05 
7 1 1.73033e-06 9.62e-05 7.44e-05 4.28e-05 
32 1 1.74063e-06 8.18e-05 6.86e-05 4.46e-05 
6 1 1.92602e-06 5.21e-05 8.86e-05 4.47e-05 
40 1 1.69943e-06 6.57e-05 7.91e-05 4.75e-05 
ITEM: TIMESTEP
600
ITEM: NUMBER OF ATOMS
52
ITEM: BOX BOUNDS ff ff ff
0.0000000000000000e+00 1.0000000000000000e-04
0.0000000000000000e+00 1.0000000000000000e-04
0.0000000000000000e+00 5.0000000000000002e-05
ITEM: ATOMS id type diameter x y z 
17 1 1.92706e-06 1.82e-05 3.63e-05 2.27e-06 
5 1 1.42976e-06 4.59e-05 2.63e-05 5.76e-06 
29 1 1.95815e-06 2.44e-05 1.89e-05 6.1e-06 
2 1 1.59553e-06 4.48e-05 6.51e-06 8.19e-06 
50 1 1.71985e-06 4.96e-05 1.67e-05 1.14e-05 
39 1 1.82346e-06 1.63e-05 1.2e-05 2.06e-05 
44 1 1.93742e-06 2.7e-05 1.39e-05 2.08e-05 
31 1 1.9167e-06 4.92e-05 3.25e-05 3.4e-05 
33 1 1.84418e-06 3.95e-05 6.61e-06 3.99e-05 
11 1 1.82346e-06 2.7e-05 3.21e-05 3.98e-05 
30 1 1.64733e-06 4.22e-06 4.43e-05 4.48e-05 
16 1 1.49192e-06 1.36e-05 7.18e-05 2.39e-06 
1 1 1.89598e-06 1.66e-05 8.26e-05 2.38e-06 
8 1 1.74057e-06 4.3e-05 7.76e-05 3.26e-06 
48 1 1.56444e-06 1.18e-05 8.07e-05 7.32e-06 
25 1 1.79238e-06 2.1e-05 7.93e-05 1.37e-05 
4 1 1.50228e-06 4.02e-05 8.35e-05 1.37e-05 
43 1 1.42976e-06 3.08e-05 8.67e-05 1.54e-05 
9 1 1.67841e-06 4.93e-05 8.04e-05 1.81e-05 
22 1 1.90634e-06 2.01e-05 8.04e-05 2.19e-05 
13 1 1.94778e-06 4.98e-05 6.68e-05 2.65e-05 
41 1 1.95815e-06 1.69e-05 7.83e-05 2.97e-05 
36 1 1.8131e-06 2.18e-06 6.71e-05 3e-05 
28 1 1.84418e-06 3.94e-05 7.58e-05 3.36e-05 
24 1 1.82346e-06 3.44e-06 8.89e-05 4.18e-05 
10 1 1.42976e-06 7.4e-05 1.62e-05 1.54e-06 
15 1 1.52515e-06 6.06273e-05 2.13941e-05 2.25254e-06 
37 1 1.68877e-06 7.45e-05 2.72e-05 1.18e-05 
35 1 1.53336e-06 6.35e-05 3.17e-05 1.22e-05 
14 1 1.63697e-06 9.53e-05 2.67e-05 1.63e-05 
51 1 1.62913e-06 5.93299e-05 2.09927e-05 3.0332e-06 
38 1 1.5172e-06 5.61277e-05 3.27942e-05 2.17223e-05 
12 1 1.82346e-06 6.22e-05 6.27e-06 2.85e-05 
49 1 1.61625e-06 7.4e-05 1.14e-05 3.36e-05 
19 1 1.64733e-06 9.39e-05 2.33e-05 3.49e-05 
27 1 1.76129e-06 8.9e-05 1.93e-05 3.78e-05 
34 1 1.60589e-06 7.44e-05 3.34e-05 3.95e-05 
21 1 1.95815e-06 5.73e-05 1.09e-05 4.53e-05 
52 1 1.62065e-06 5.48295e-05 3.23925e-05 2.25035e-05 
18 1 1.56444e-06 5e-05 9.49e-05 2.82e-06 
47 1 1.85454e-06 7.94e-05 6.26e-05 5.81e-06 
45 1 1.87526e-06 7.84e-05 6.07e-05 6.19e-06 
3 1 1.64733e-06 5.62e-05 7.31e-05 9.14e-06 
23 1 1.63697e-06 5.26e-05 8.04e-05 9.26e-06 
46 1 1.8649e-06 9.29e-05 8.84e-05 1.02e-05 
42 1 1.45048e-06 5.82e-05 9.79e-05 3.48e-05 
20 1 1.65769e-06 6.83e-05 8.81e-05 3.53e-05 
26 1 1.96851e-06 7.27e-05 8.95e-05 3.75e-05 
7 1 1.74057e-06 9.62e-05 7.44e-05 4.28e-05 
32 1 1.75093e-06 8.18e-05 6.86e-05 4.46e-05 
6 1 1.93742e-06 5.21e-05 8.86e-05 4.47e-05 
40 1 1.70949e-06 6.57e-05 7.91e-05 4.75e-05 
ITEM: TIMESTEP
700
ITEM: NUMBER OF ATOMS
53
ITEM: BOX BOUNDS ff ff ff
0.0000000000000000e+00 1.0000000000000000e-04
0.0000000000000000e+00 1.0000000000000000e-04
0.0000000000000000e+00 5.0000000000000002e-05
ITEM: ATOMS id type diameter x y z 
17 1 1.93847e-06 1.82e-05 3.63e-05 2.27e-06 
5 1 1.43822e-06 4.59e-05 2.63e-05 5.76e-06 
29 1 1.96974e-06 2.44e-05 1.89e-05 6.1e-06 
2 1 1.60497e-06 4.48e-05 6.51e-06 8.19e-06 
50 1 1.73004e-06 4.96e-05 1.67e-05 1.14e-05 
39 1 1.83425e-06 1.63e-05 1.2e-05 2.06e-05 
44 1 1.9489e-06 2.7e-05 1.39e-05 2.08e-05 
31 1 1.92805e-06 4.92e-05 3.25e-05 3.4e-05 
33 1 1.8551e-06 3.95e-05 6.61e-06 3.99e-05 
11 1 1.83425e-06 2.7e-05 3.21e-05 3.98e-05 
30 1 1.65708e-06 4.22e-06 4.43e-05 4.48e-05 
16 1 1.50075e-06 1.36e-05 7.18e-05 2.39e-06 
1 1 1.90721e-06 1.66e-05 8.26e-05 2.38e-06 
8 1 1.75088e-06 4.3e-05 7.76e-05 3.26e-06 
48 1 1.57371e-06 1.18e-05 8.07e-05 7.32e-06 
25 1 1.80299e-06 2.1e-05 7.93e-05 1.37e-05 
4 1 1.51118e-06 4.02e-05 8.35e-05 1.37e-05 
43 1 1.43822e-06 3.08e-05 8.67e-05 1.54e-05 
9 1 1.68835e-06 4.93e-05 8.04e-05 1.81e-05 
22 1 1.91763e-06 2.01e-05 8.04e-05 2.19e-05 
13 1 1.95932e-06 4.98e-05 6.68e-05 2.65e-05 
41 1 1.96974e-06 1.69e-05 7.83e-05 2.97e-05 
36 1 1.82383e-06 2.18e-06 6.71e-05 3e-05 
28 1 1.8551e-06 3.94e-05 7.58e-05 3.36e-05 
24 1 1.83425e-06 3.44e-06 8.89e-05 4.18e-05 
10 1 1.43822e-06 7.4e-05 1.62e-05 1.54e-06 
15 1 1.53418e-06 6.06273e-05 2.13941e-05 2.25254e-06 
37 1 1.69877e-06 7.45e-05 2.72e-05 1.18e-05 
35 1 1.54244e-06 6.35e-05 3.17e-05 1.22e-05 
14 1 1.64666e-06 9.53e-05 2.67e-05 1.63e-05 
51 1 1.63878e-06 5.93299e-05 2.09927e-05 3.0332e-06 
38 1 1.52619e-06 5.61277e-05 3.27942e-05 2.17223e-05 
12 1 1.83425e-06 6.22e-05 6.27e-06 2.85e-05 
49 1 1.62582e-06 7.4e-05 1.14e-05 3.36e-05 
19 1 1.65708e-06 9.39e-05 2.33e-05 3.49e-05 
27 1 1.77172e-06 8.9e-05 1.93e-05 3.78e-05 
34 1 1.61539e-06 7.44e-05 3.34e-05 3.95e-05 
21 1 1.96974e-06 5.73e-05 1.09e-05 4.53e-05 
52 1 1.63024e-06 5.48295e-05 3.23925e-05 2.25035e-05 
18 1 1.57371e-06 5e-05 9.49e-05 2.82e-06 
47 1 1.86552e-06 7.94e-05 6.26e-05 5.81e-06 
45 1 1.88636e-06 7.84e-05 6.07e-05 6.19e-06 
3 1 1.65708e-06 5.62e-05 7.31e-05 9.14e-06 
23 1 1.64666e-06 5.26e-05 8.04e-05 9.26e-06 
46 1 1.87594e-06 9.29e-05 8.84e-05 1.02e-05 
42 1 1.45907e-06 5.82e-05 9.79e-05 3.48e-05 
20 1 1.6675e-06 6.83e-05 8.81e-05 3.53e-05 
26 1 1.5182e-06 7.33281e-05 8.96944e-05 3.7122e-05 
7 1 1.75088e-06 9.62e-05 7.44e-05 4.28e-05 
32 1 1.7613e-06 8.18e-05 6.86e-05 4.46e-05 
6 1 1.9489e-06 5.21e-05 8.86e-05 4.47e-05 
40 1 1.71961e-06 6.57e-05 7.91e-05 4.75e-05 
53 1 1.62171e-06 7.2029e-05 8.92924e-05 3.79037e-05 
ITEM: TIMESTEP
800
ITEM: NUMBER OF ATOMS
56
ITEM: BOX BOUNDS ff ff ff
0.0000000000000000e+00 1.0000000000000000e-04
0.0000000000000000e+00 1.0000000000000000e-04
0.0000000000000000e+00 5.0000000000000002e-05
ITEM: ATOMS id type diameter x y z 
17 1 1.94995e-06 1.82e-05 3.63e-05 2.27e-06 
5 1 1.44674e-06 4.59e-05 2.63e-05 5.76e-06 
29 1 1.51915e-06 2.50285e-05 1.90945e-05 5.7218e-06 
2 1 1.61448e-06 4.48e-05 6.51e-06 8.19e-06 
50 1 1.74028e-06 4.96e-05 1.67e-05 1.14e-05 
54 1 1.62272e-06 2.37286e-05 1.86923e-05 6.50399e-06 
39 1 1.84512e-06 1.63e-05 1.2e-05 2.06e-05 
44 1 1.96044e-06 2.7e-05 1.39e-05 2.08e-05 
31 1 1.93947e-06 4.92e-05 3.25e-05 3.4e-05 
33 1 1.86608e-06 3.95e-05 6.61e-06 3.99e-05 
11 1 1.84512e-06 2.7e-05 3.21e-05 3.98e-05 
30 1 1.66689e-06 4.22e-06 4.43e-05 4.48e-05 
16 1 1.50964e-06 1.36e-05 7.18e-05 2.39e-06 
1 1 1.9185e-06 1.66e-05 8.26e-05 2.38e-06 
8 1 1.76125e-06 4.3e-05 7.76e-05 3.26e-06 
48 1 1.58303e-06 1.18e-05 8.07e-05 7.32e-06 
25 1 1.81366e-06 2.1e-05 7.93e-05 1.37e-05 
4 1 1.52012e-06 4.02e-05 8.35e-05 1.37e-05 
43 1 1.44674e-06 3.08e-05 8.67e-05 1.54e-05 
9 1 1.69834e-06 4.93e-05 8.04e-05 1.81e-05 
22 1 1.92898e-06 2.01e-05 8.04e-05 2.19e-05 
13 1 1.97092e-06 4.98e-05 6.68e-05 2.65e-05 
41 1 1.51915e-06 1.75285e-05 7.84945e-05 2.93218e-05 
36 1 1.83463e-06 2.18e-06 6.71e-05 3e-05 
28 1 1.86608e-06 3.94e-05 7.58e-05 3.36e-05 
24 1 1.84512e-06 3.44e-06 8.89e-05 4.18e-05 
55 1 1.62272e-06 1.62286e-05 7.80923e-05 3.0104e-05 
10 1 1.44674e-06 7.4e-05 1.62e-05 1.54e-06 
15 1 1.54326e-06 6.06273e-05 2.13941e-05 2.25254e-06 
37 1 1.70883e-06 7.45e-05 2.72e-05 1.18e-05 
35 1 1.55157e-06 6.35e-05 3.17e-05 1.22e-05 
14 1 1.65641e-06 9.53e-05 2.67e-05 1.63e-05 
51 1 1.64848e-06 5.93299e-05 2.09927e-05 3.0332e-06 
38 1 1.53522e-06 5.61277e-05 3.27942e-05 2.17223e-05 
12 1 1.84512e-06 6.22e-05 6.27e-06 2.85e-05 
49 1 1.63544e-06 7.4e-05 1.14e-05 3.36e-05 
19 1 1.66689e-06 9.39e-05 2.33e-05 3.49e-05 
27 1 1.78221e-06 8.9e-05 1.93e-05 3.78e-05 
34 1 1.62496e-06 7.44e-05 3.34e-05 3.95e-05 
21 1 1.59573e-06 5.66063e-05 1.07349e-05 4.49437e-05 
52 1 1.63989e-06 5.48295e-05 3.23925e-05 2.25035e-05 
56 1 1.54885e-06 5.79733e-05 1.10603e-05 4.56459e-05 
18 1 1.58303e-06 5e-05 9.49e-05 2.82e-06 
47 1 1.87657e-06 7.94e-05 6.26e-05 5.81e-06 
45 1 1.89753e-06 7.84e-05 6.07e-05 6.19e-06 
3 1 1.66689e-06 5.62e-05 7.31e-05 9.14e-06 
23 1 1.65641e-06 5.26e-05 8.04e-05 9.26e-06 
46 1 1.88705e-06 9.29e-05 8.84e-05 1.02e-05 
42 1 1.46771e-06 5.82e-05 9.79e-05 3.48e-05 
20 1 1.67738e-06 6.83e-05 8.81e-05 3.53e-05 
26 1 1.52719e-06 7.33281e-05 8.96944e-05 3.7122e-05 
7 1 1.76125e-06 9.62e-05 7.44e-05 4.28e-05 
32 1 1.77173e-06 8.18e-05 6.86e-05 4.46e-05 
6 1 1.96044e-06 5.21e-05 8.86e-05 4.47e-05 
40 1 1.7298e-06 6.57e-05 7.91e-05 4.75e-05 
53 1 1.63131e-06 7.2029e-05 8.92924e-05 3.79037e-05 
ITEM: TIMESTEP
900
ITEM: NUMBER OF ATOMS
59
ITEM: BOX BOUNDS ff ff ff
0.0000000000000000e+00 1.0000000000000000e-04
0.0000000000000000e+00 1.0000000000000000e-04
0.0000000000000000e+00 5.0000000000000002e-05
ITEM: ATOMS id type diameter x y z 
17 1 1.9615e-06 1.82e-05 3.63e-05 2.27e-06 
5 1 1.4553e-06 4.59e-05 2.63e-05 5.76e-06 
29 1 1.52814e-06 2.50285e-05 1.90945e-05 5.7218e-06 
2 1 1.62404e-06 4.48e-05 6.51e-06 8.19e-06 
50 1 1.75058e-06 4.96e-05 1.67e-05 1.14e-05 
54 1 1.63233e-06 2.37286e-05 1.86923e-05 6.50399e-06 
39 1 1.85604e-06 1.63e-05 1.2e-05 2.06e-05 
44 1 1.51197e-06 2.76256e-05 1.40936e-05 2.04236e-05 
31 1 1.95095e-06 4.92e-05 3.25e-05 3.4e-05 
33 1 1.87713e-06 3.95e-05 6.61e-06 3.99e-05 
11 1 1.85604e-06 2.7e-05 3.21e-05 3.98e-05 
30 1 1.67676e-06 4.22e-06 4.43e-05 4.48e-05 
57 1 1.61506e-06 2.63318e-05 1.36932e-05 2.12021e-05 
16 1 1.51858e-06 1.36e-05 7.18e-05 2.39e-06 
1 1 1.92986e-06 1.66e-05 8.26e-05 2.38e-06 
8 1 1.77167e-06 4.3e-05 7.76e-05 3.26e-06 
48 1 1.5924e-06 1.18e-05 8.07e-05 7.32e-06 
25 1 1.8244e-06 2.1e-05 7.93e-05 1.37e-05 
4 1 1.52912e-06 4.02e-05 8.35e-05 1.37e-05 
43 1 1.4553e-06 3.08e-05 8.67e-05 1.54e-05 
9 1 1.7084e-06 4.93e-05 8.04e-05 1.81e-05 
22 1 1.94041e-06 2.01e-05 8.04e-05 2.19e-05 
13 1 1.59669e-06 4.91059e-05 6.66348e-05 2.61435e-05 
41 1 1.52814e-06 1.75285e-05 7.84945e-05 2.93218e-05 
36 1 1.84549e-06 2.18e-06 6.71e-05 3e-05 
28 1 1.87713e-06 3.94e-05 7.58e-05 3.36e-05 
24 1 1.85604e-06 3.44e-06 8.89e-05 4.18e-05 
55 1 1.63233e-06 1.62286e-05 7.80923e-05 3.0104e-05 
10 1 1.4553e-06 7.4e-05 1.62e-05 1.54e-06 
15 1 1.5524e-06 6.06439e-05 2.13992e-05 2.24257e-06 
37 1 1.71895e-06 7.45e-05 2.72e-05 1.18e-05 
35 1 1.56076e-06 6.35e-05 3.17e-05 1.22e-05 
14 1 1.66622e-06 9.53e-05 2.67e-05 1.63e-05 
51 1 1.65824e-06 5.93134e-05 2.09875e-05 3.04316e-06 
38 1 1.54431e-06 5.61277e-05 3.27942e-05 2.17223e-05 
12 1 1.85604e-06 6.22e-05 6.27e-06 2.85e-05 
49 1 1.64513e-06 7.4e-05 1.14e-05 3.36e-05 
19 1 1.67676e-06 9.39e-05 2.33e-05 3.49e-05 
27 1 1.79277e-06 8.9e-05 1.93e-05 3.78e-05 
34 1 1.63458e-06 7.44e-05 3.34e-05 3.95e-05 
21 1 1.60518e-06 5.66063e-05 1.07349e-05 4.49437e-05 
52 1 1.6496e-06 5.48295e-05 3.23925e-05 2.25035e-05 
56 1 1.55802e-06 5.79733e-05 1.10603e-05 4.56459e-05 
18 1 1.5924e-06 5e-05 9.49e-05 2.82e-06 
47 1 1.88768e-06 7.94e-05 6.26e-05 5.81e-06 
45 1 1.90877e-06 7.84e-05 6.07e-05 6.19e-06 
3 1 1.67676e-06 5.62e-05 7.31e-05 9.14e-06 
23 1 1.66622e-06 5.26e-05 8.04e-05 9.26e-06 
46 1 1.89822e-06 9.29e-05 8.84e-05 1.02e-05 
42 1 1.4764e-06 5.82e-05 9.79e-05 3.48e-05 
20 1 1.68731e-06 6.83e-05 8.81e-05 3.53e-05 
26 1 1.53623e-06 7.33281e-05 8.96944e-05 3.7122e-05 
7 1 1.77167e-06 9.62e-05 7.44e-05 4.28e-05 
32 1 1.78222e-06 8.18e-05 6.86e-05 4.46e-05 
6 1 1.58819e-06 5.14096e-05 8.84356e-05 4.43454e-05 
40 1 1.74004e-06 6.57e-05 7.91e-05 4.75e-05 
53 1 1.64097e-06 7.2029e-05 8.92924e-05 3.79037e-05 
59 1 1.54154e-06 5.27701e-05 8.87595e-05 4.50442e-05 
58 1 1.54978e-06 5.04737e-05 6.69604e-05 2.68461e-05 
ITEM: TIMESTEP
1000
ITEM: NUMBER OF ATOMS
60
ITEM: BOX BOUNDS ff ff ff
0.0000000000000000e+00 1.0000000000000000e-04
0.0000000000000000e+00 1.0000000000000000e-04
0.0000000000000000e+00 5.0000000000000002e-05
ITEM: ATOMS id type diameter x y z 
17 1 1.58905e-06 1.75092e-05 3.61356e-05 1.91516e-06 
60 1 1.54237e-06 1.88705e-05 3.64596e-05 2.61441e-06 
29 1 1.53719e-06 2.50285e-05 1.90945e-05 5.7218e-06 
5 1 1.46392e-06 4.59e-05 2.63e-05 5.76e-06 
54 1 1.642e-06 2.37286e-05 1.86923e-05 6.50399e-06 
2 1 1.63365e-06 4.48e-05 6.51e-06 8.19e-06 
50 1 1.76095e-06 4.96e-05 1.67e-05 1.14e-05 
44 1 1.52092e-06 2.76256e-05 1.40936e-05 2.04236e-05 
39 1 1.86703e-06 1.63e-05 1.2e-05 2.06e-05 
57 1 1.62462e-06 2.63318e-05 1.36932e-05 2.12021e-05 
31 1 1.9625e-06 4.92e-05 3.25e-05 3.4e-05 
33 1 1.88825e-06 3.95e-05 6.61e-06 3.99e-05 
11 1 1.86703e-06 2.7e-05 3.21e-05 3.98e-05 
30 1 1.68669e-06 4.22e-06 4.43e-05 4.48e-05 
16 1 1.52757e-06 1.36e-05 7.18e-05 2.39e-06 
1 1 1.94129e-06 1.66e-05 8.26e-05 2.38e-06 
8 1 1.78216e-06 4.3e-05 7.76e-05 3.26e-06 
48 1 1.60183e-06 1.18e-05 8.07e-05 7.32e-06 
25 1 1.83521e-06 2.1e-05 7.93e-05 1.37e-05 
4 1 1.53818e-06 4.02e-05 8.35e-05 1.37e-05 
43 1 1.46392e-06 3.08e-05 8.67e-05 1.54e-05 
9 1 1.71852e-06 4.93e-05 8.04e-05 1.81e-05 
22 1 1.95189e-06 2.01e-05 8.04e-05 2.19e-05 
13 1 1.60614e-06 4.90972e-05 6.66327e-05 2.6139e-05 
41 1 1.53719e-06 1.75285e-05 7.84945e-05 2.93218e-05 
36 1 1.85642e-06 2.18e-06 6.71e-05 3e-05 
55 1 1.642e-06 1.62286e-05 7.80923e-05 3.0104e-05 
28 1 1.88825e-06 3.94e-05 7.58e-05 3.36e-05 
24 1 1.86703e-06 3.44e-06 8.89e-05 4.18e-05 
10 1 1.46392e-06 7.4e-05 1.62e-05 1.54e-06 
15 1 1.56159e-06 6.06439e-05 2.13992e-05 2.24257e-06 
51 1 1.66806e-06 5.93134e-05 2.09875e-05 3.04316e-06 
37 1 1.72912e-06 7.45e-05 2.72e-05 1.18e-05 
35 1 1.57e-06 6.35e-05 3.17e-05 1.22e-05 
14 1 1.67608e-06 9.53e-05 2.67e-05 1.63e-05 
38 1 1.55346e-06 5.61443e-05 3.27993e-05 2.17123e-05 
52 1 1.65937e-06 5.48129e-05 3.23874e-05 2.25134e-05 
12 1 1.86703e-06 6.22e-05 6.27e-06 2.85e-05 
49 1 1.65487e-06 7.4e-05 1.14e-05 3.36e-05 
19 1 1.68669e-06 9.39e-05 2.33e-05 3.49e-05 
27 1 1.80338e-06 8.9e-05 1.93e-05 3.78e-05 
34 1 1.64426e-06 7.44e-05 3.34e-05 3.95e-05 
21 1 1.61468e-06 5.66063e-05 1.07349e-05 4.49437e-05 
56 1 1.56725e-06 5.79733e-05 1.10603e-05 4.56459e-05 
18 1 1.60183e-06 5e-05 9.49e-05 2.82e-06 
47 1 1.89885e-06 7.94e-05 6.26e-05 5.81e-06 
45 1 1.92007e-06 7.84e-05 6.07e-05 6.19e-06 
3 1 1.68669e-06 5.62e-05 7.31e-05 9.14e-06 
23 1 1.67608e-06 5.26e-05 8.04e-05 9.26e-06 
46 1 1.90946e-06 9.29e-05 8.84e-05 1.02e-05 
58 1 1.55895e-06 5.04824e-05 6.69625e-05 2.68505e-05 
42 1 1.48514e-06 5.82e-05 9.79e-05 3.48e-05 
20 1 1.6973e-06 6.83e-05 8.81e-05 3.53e-05 
26 1 1.54532e-06 7.33281e-05 8.96944e-05 3.7122e-05 
53 1 1.65068e-06 7.2029e-05 8.92924e-05 3.79037e-05 
7 1 1.78216e-06 9.62e-05 7.44e-05 4.28e-05 
6 1 1.5976e-06 5.14096e-05 8.84356e-05 4.43454e-05 
32 1 1.79277e-06 8.18e-05 6.86e-05 4.46e-05 
59 1 1.55066e-06 5.27701e-05 8.87595e-05 4.50442e-05 
40 1 1.75034e-06 6.57e-05 7.91e-05 4.75e-05 
ITEM: TIMESTEP
1100
ITEM: NUMBER OF ATOMS
61
ITEM: BOX BOUNDS ff ff ff
0.0000000000000000e+00 1.0000000000000000e-04
0.0000000000000000e+00 1.0000000000000000e-04
0.0000000000000000e+00 5.0000000000000002e-05
ITEM: ATOMS id type diameter x y z 
17 1 1.59846e-06 1.75092e-05 3.61356e-05 1.91516e-06 
60 1 1.5515e-06 1.88705e-05 3.64596e-05 2.61441e-06 
29 1 1.54629e-06 2.50285e-05 1.90945e-05 5.7218e-06 
5 1 1.47259e-06 4.59e-05 2.63e-05 5.76e-06 
54 1 1.65172e-06 2.37286e-05 1.86923e-05 6.50399e-06 
2 1 1.64332e-06 4.48e-05 6.51e-06 8.19e-06 
50 1 1.77138e-06 4.96e-05 1.67e-05 1.14e-05 
44 1 1.52993e-06 2.76256e-05 1.40936e-05 2.04236e-05 
39 1 1.87808e-06 1.63e-05 1.2e-05 2.06e-05 
57 1 1.63424e-06 2.63318e-05 1.36932e-05 2.12021e-05 
31 1 1.58987e-06 4.85089e-05 3.23355e-05 3.3645e-05 
33 1 1.89943e-06 3.95e-05 6.61e-06 3.99e-05 
11 1 1.87808e-06 2.7e-05 3.21e-05 3.98e-05 
30 1 1.69668e-06 4.22e-06 4.43e-05 4.48e-05 
61 1 1.54316e-06 4.98708e-05 3.26597e-05 3.43446e-05 
16 1 1.53661e-06 1.36e-05 7.18e-05 2.39e-06 
1 1 1.95278e-06 1.66e-05 8.26e-05 2.38e-06 
8 1 1.79272e-06 4.3e-05 7.76e-05 3.26e-06 