 NUFEB Simulation

     50 atoms 
     2 atom types 
     4 nutrients 

  0.0e-4   1.00e-04  xlo xhi 
  0.0e-4   1.00e-04  ylo yhi 
  0.0e-4   5.00e-05  zlo zhi 

 Atoms 

     1 1 1.59e-06  370 9.31e-05 4.14e-05 3.52e-05 1.59e-06 
     2 1 1.81e-06  370 2.67e-05 7.65e-05 4.47e-05 1.81e-06 
     3 1 1.81e-06  370 4.69e-05 7.48e-05 4.26e-05 1.81e-06 
     4 1 1.88e-06  370 5.15e-06 7.92e-06 1.64e-05 1.88e-06 
     5 1 1.60e-06  370 4.30e-05 3.38e-05 2.17e-05 1.60e-06 
     6 1 1.59e-06  370 6.52e-06 8.52e-05 3.64e-06 1.59e-06 
     7 1 1.80e-06  370 3.90e-05 3.32e-05 2.62e-06 1.80e-06 
     8 1 1.53e-06  370 8.60e-05 2.38e-05 3.25e-05 1.53e-06 
     9 1 1.65e-06  370 7.67e-05 9.30e-06 4.12e-05 1.65e-06 
     10 1 1.47e-06  370 8.80e-05 9.41e-05 7.47e-06 1.47e-06 
     11 1 1.80e-06  370 3.47e-05 5.23e-05 4.01e-05 1.80e-06 
     12 1 1.88e-06  370 5.30e-05 4.54e-05 1.73e-05 1.88e-06 
     13 1 1.70e-06  370 2.65e-05 4.03e-05 6.82e-06 1.70e-06 
     14 1 1.62e-06  370 9.06e-05 1.02e-05 1.10e-05 1.62e-06 
     15 1 1.73e-06  370 4.04e-05 2.60e-05 4.27e-06 1.73e-06 
     16 1 1.68e-06  370 4.77e-05 9.06e-05 4.78e-05 1.68e-06 
     17 1 1.60e-06  370 9.78e-05 4.11e-05 2.24e-05 1.60e-06 
     18 1 1.72e-06  370 3.01e-05 3.10e-05 6.74e-06 1.72e-06 
     19 1 1.64e-06  370 7.72e-05 1.47e-05 3.40e-06 1.64e-06 
     20 1 1.38e-06  370 9.47e-05 9.17e-05 2.98e-05 1.38e-06 
     21 1 1.73e-06  370 3.57e-05 5.10e-05 1.25e-05 1.73e-06 
     22 1 1.88e-06  370 6.56e-05 3.93e-05 9.24e-06 1.88e-06 
     23 1 1.81e-06  370 7.37e-05 9.66e-05 4.38e-05 1.81e-06 
     24 1 1.49e-06  370 1.70e-05 3.89e-05 2.22e-05 1.49e-06 
     25 1 1.88e-06  370 1.14e-05 2.98e-05 2.11e-05 1.88e-06 
     26 1 1.59e-06  370 8.50e-05 2.42e-06 5.23e-06 1.59e-06 
     27 1 1.37e-06  370 9.48e-05 1.07e-05 2.97e-05 1.37e-06 
     28 1 1.77e-06  370 4.99e-05 9.17e-05 3.27e-05 1.77e-06 
     29 1 1.38e-06  370 6.79e-05 1.19e-05 3.18e-05 1.38e-06 
     30 1 1.57e-06  370 1.53e-05 1.29e-05 2.24e-05 1.57e-06 
     31 1 1.92e-06  370 4.22e-05 6.92e-05 1.78e-05 1.92e-06 
     32 1 1.92e-06  370 5.96e-05 9.76e-05 7.97e-06 1.92e-06 
     33 1 1.80e-06  370 5.30e-06 4.57e-05 2.61e-05 1.80e-06 
     34 1 1.47e-06  370 5.49e-06 7.50e-06 6.95e-06 1.47e-06 
     35 1 1.43e-06  370 6.37e-05 1.28e-05 2.11e-05 1.43e-06 
     36 1 1.54e-06  370 8.22e-05 6.77e-05 6.08e-06 1.54e-06 
     37 1 1.91e-06  370 5.20e-05 1.22e-05 1.29e-05 1.91e-06 
     38 1 1.40e-06  370 8.53e-05 4.25e-05 2.72e-05 1.40e-06 
     39 1 1.72e-06  370 7.95e-05 4.12e-05 2.47e-05 1.72e-06 
     40 1 1.84e-06  370 4.29e-05 8.49e-05 2.59e-05 1.84e-06 
     41 1 1.76e-06  370 7.90e-05 7.96e-05 1.34e-05 1.76e-06 
     42 1 1.50e-06  370 5.23e-05 8.53e-05 3.22e-05 1.50e-06 
     43 1 1.87e-06  370 4.03e-05 1.44e-05 2.80e-05 1.87e-06 
     44 1 1.39e-06  370 4.23e-05 2.57e-05 2.78e-06 1.39e-06 
     45 1 1.52e-06  370 7.09e-05 5.91e-05 2.22e-05 1.52e-06 
     46 1 1.85e-06  370 1.88e-05 6.30e-05 1.21e-05 1.85e-06 
     47 1 1.67e-06  370 1.29e-05 6.76e-05 4.50e-05 1.67e-06 
     48 1 1.50e-06  370 4.39e-05 6.80e-05 4.45e-05 1.50e-06 
     49 1 1.87e-06  370 8.07e-06 8.83e-05 9.64e-06 1.87e-06 
     50 1 1.89e-06  370 7.92e-05 3.05e-05 1.01e-05 1.89e-06 

 Nutrients 

     1 sub g nn nn nn 1.00e-01 1.00e-01 
     2 o2 l nn nn nd 9.00e-03 9.00e-03 
     3 suc l nn nn nn 3.42e-20 3.42e-20 
     4 co2 l nn nn nd 2.99e-02 2.99e-02 

 Type Name 

     1 cyano  
     2 ecw  

 Diffusion Coeffs 

     sub 0 
     o2 2.3e-09 
     suc 5.2e-10 
     co2 1.9e-09 

 Growth Rate 

     cyano 2.047e-05 
     ecw 6.71e-05 

 Ks 

     cyano 0.00035 0.0002 0.01 0.000138 
     ecw 0 0.001 3.6 0.05 

 Yield 

     cyano 0.55 
     ecw 0.43 

 Maintenance 

     cyano 0 
     ecw 9.5e-07 

 Decay 

     cyano 0 
     ecw 0 



