LAMMPS (20 Nov 2019)
Reading data file ...
  orthogonal box = (0 0 0) to (0.0001 0.0001 5e-05)
  2 by 2 by 2 MPI processor grid
  reading atoms ...
  50 atoms
  4 nutrients
Lattice spacing in x,y,z = 100 100 100
50 atoms in group CYANO
0 atoms in group ECW
Model is defined as a closed system. 
Neighbor list info ...
  update every 1 steps, delay 0 steps, check yes
  max neighbors/atom: 5000, page size: 100000
  master list distance cutoff = 2.42e-06
  ghost atom cutoff = 2.42e-06
  binsize = 1.21e-06, bins = 83 83 42
  1 neighbor lists, perpetual/occasional/extra = 1 0 0
  (1) pair gran/hooke/history, perpetual
      attributes: half, newton off, size, history
      pair build: half/size/bin/newtoff
      stencil: half/bin/3d/newtoff
      bin: standard
Setting up Verlet run ...
  Unit style    : lj
  Current step  : 0
  Time step     : 10
Per MPI rank memory allocation (min/avg/max) = 6.973 | 10.28 | 12.35 Mbytes
Step CPU Atoms c_myNtypes[1] c_myNtypes[2] c_myMass[1] c_myMass[2] c_myCon[1] c_myCon[2] c_myCon[3] c_myCon[4] 
       0            0       50           50            0 4.6850737e-14            0          0.1        0.009     3.42e-20       0.0299 
number of iterations: 322715 
     100    4.9329323       50           50            0 4.7706906e-14            0          0.1 0.0090030701 0.0046402413  0.029894889 
number of iterations: 24264 
     200    5.5532604       50           50            0 4.857872e-14            0          0.1 0.0090031262 0.0092200505  0.029894795 
number of iterations: 24360 
     300    6.1566036       50           50            0 4.9466466e-14            0          0.1 0.0090031834  0.013882901    0.0298947 
number of iterations: 24456 
     400     6.760876       50           50            0 5.0370435e-14            0          0.1 0.0090032416  0.018630629  0.029894603 
number of iterations: 24552 
     500    7.3641339       52           52            0 5.1290923e-14            0          0.1 0.0090033008  0.023464978  0.029894504 
number of iterations: 24649 
     600    7.9728461       53           53            0 5.2228233e-14            0          0.1 0.0090033611  0.028387565  0.029894404 
number of iterations: 24745 
     700    8.6238855       53           53            0 5.3182671e-14            0          0.1 0.0090034226  0.033400027  0.029894302 
number of iterations: 25407 
     800    9.2490758       58           58            0 5.4154552e-14            0          0.1 0.0090034907  0.038504017  0.029894188 
number of iterations: 24474 
     900    9.8619348       60           60            0 5.5144192e-14            0          0.1 0.0090035501  0.043701135  0.029894089 
number of iterations: 25036 
    1000    10.487144       60           60            0 5.6151918e-14            0          0.1  0.009003615  0.048993178  0.029893981 
number of iterations: 25132 
    1100    11.100864       61           61            0 5.717806e-14            0          0.1  0.009003681  0.054381886  0.029893871 
number of iterations: 25229 
    1200    11.718466       62           62            0 5.8222953e-14            0          0.1 0.0090037483  0.059869031  0.029893759 
number of iterations: 25325 
    1300    12.344221       62           62            0 5.9286941e-14            0          0.1 0.0090038168  0.065456415  0.029893645 
number of iterations: 25421 
    1400    12.982362       62           62            0 6.0370373e-14            0          0.1 0.0090038866  0.071145873  0.029893529 
number of iterations: 25518 
    1500    13.632953       65           65            0 6.1473604e-14            0          0.1 0.0090039576  0.076939273  0.029893411 
number of iterations: 26713 
    1600    14.284378       68           68            0 6.2596996e-14            0          0.1 0.0090040469  0.082838523  0.029893262 
number of iterations: 25733 
    1700    14.909649       68           68            0 6.3740916e-14            0          0.1 0.0090041208  0.088845553  0.029893139 
number of iterations: 25829 
    1800    15.570228       69           69            0 6.4905742e-14            0          0.1 0.0090041961  0.094962334  0.029893014 
number of iterations: 25920 
    1900    16.193558       70           70            0 6.6091854e-14            0          0.1 0.0090042728   0.10119086  0.029892886 
number of iterations: 26022 
    2000    16.836194       70           70            0 6.7299641e-14            0          0.1 0.0090043509    0.1075332  0.029892756 
number of iterations: 26119 
    2100    17.459159       70           70            0 6.8529499e-14            0          0.1 0.0090044304   0.11399141  0.029892624 
number of iterations: 26215 
    2200    18.135536       72           72            0 6.9781833e-14            0          0.1 0.0090045114   0.12056763  0.029892489 
number of iterations: 26312 
    2300    18.928618       74           74            0 7.1057052e-14            0          0.1 0.0090045938     0.127264  0.029892351 
number of iterations: 26418 
    2400    19.557029       74           74            0 7.2355575e-14            0          0.1 0.0090046778   0.13408273  0.029892212 
number of iterations: 26523 
    2500    20.197155       75           75            0 7.3677828e-14            0          0.1 0.0090047633   0.14102606  0.029892069 
number of iterations: 26601 
    2600    20.821997       75           75            0 7.5024243e-14            0          0.1 0.0090048503   0.14809627  0.029891924 
number of iterations: 26698 
    2700     21.49665       76           76            0 7.6395264e-14            0          0.1  0.009004939   0.15529566  0.029891777 
number of iterations: 26795 
    2800    22.146478       77           77            0 7.7791339e-14            0          0.1 0.0090050292    0.1626266  0.029891626 
number of iterations: 26892 
    2900    22.804129       77           77            0 7.9212927e-14            0          0.1 0.0090051211    0.1700915  0.029891473 
number of iterations: 26988 
    3000    23.465571       78           78            0 8.0660493e-14            0          0.1 0.0090052147    0.1776928  0.029891318 
number of iterations: 27085 
    3100     24.10323       79           79            0 8.2134512e-14            0          0.1   0.00900531     0.185433  0.029891159 
number of iterations: 27182 
    3200    24.859726       79           79            0 8.3635469e-14            0          0.1 0.0090054071   0.19331463  0.029890997 
number of iterations: 27283 
    3300    25.534778       80           80            0 8.5163854e-14            0          0.1 0.0090055059   0.20134027  0.029890833 
number of iterations: 27376 
    3400    26.191472       80           80            0 8.6720169e-14            0          0.1 0.0090056065   0.20951256  0.029890665 
number of iterations: 27472 
    3500    26.883103       82           82            0 8.8304925e-14            0          0.1  0.009005709   0.21783419  0.029890495 
number of iterations: 27569 
    3600    27.569079       85           85            0 8.9918641e-14            0          0.1 0.0090058133   0.22630787  0.029890321 
number of iterations: 27666 
    3700    28.251783       86           86            0 9.1561847e-14            0          0.1 0.0090059195    0.2349364  0.029890144 
number of iterations: 27758 
    3800    28.917606       89           89            0 9.3235082e-14            0          0.1 0.0090060277    0.2437226  0.029889964 
number of iterations: 27860 
    3900    29.613164       91           91            0 9.4938893e-14            0          0.1 0.0090061379   0.25266934   0.02988978 
number of iterations: 27956 
    4000    30.265988       93           93            0 9.6673841e-14            0          0.1   0.00900625   0.26177958  0.029889594 
number of iterations: 28705 
    4100    30.940269       96           96            0 9.8440493e-14            0          0.1 0.0090063764   0.27105627  0.029889383 
number of iterations: 27856 
    4200    31.661467       97           97            0 1.0023943e-13            0          0.1 0.0090064876    0.2805025  0.029889198 
number of iterations: 28254 
    4300    32.430067       98           98            0 1.0207124e-13            0          0.1 0.0090066062   0.29012134  0.029889001 
number of iterations: 28351 
    4400    33.153075       99           99            0 1.0393653e-13            0          0.1 0.0090067269   0.29991595    0.0298888 
number of iterations: 28448 
    4500    33.846062      102          102            0 1.058359e-13            0          0.1 0.0090068498   0.30988954  0.029888595 
number of iterations: 28544 
    4600    34.526647      105          105            0 1.0776998e-13            0          0.1  0.009006975    0.3200454  0.029888387 
number of iterations: 28642 
    4700    35.200288      107          107            0 1.0973941e-13            0          0.1 0.0090071025   0.33038684  0.029888174 
number of iterations: 28739 
    4800    35.885345      108          108            0 1.1174483e-13            0          0.1 0.0090072323   0.34091726  0.029887958 
number of iterations: 28836 
    4900    36.550266      113          113            0 1.1378689e-13            0          0.1 0.0090073645    0.3516401  0.029887738 
number of iterations: 28933 
    5000    37.287958      117          117            0 1.1586627e-13            0          0.1  0.009007499    0.3625589  0.029887514 
number of iterations: 29335 
    5100    37.993204      118          118            0 1.1798366e-13            0          0.1 0.0090076423    0.3736772  0.029887275 
number of iterations: 29133 
    5200    38.762236      121          121            0 1.2013973e-13            0          0.1  0.009007782   0.38499868  0.029887043 
number of iterations: 29238 
    5300    39.482143      121          121            0 1.2233521e-13            0          0.1 0.0090079242   0.39652698  0.029886806 
number of iterations: 29327 
    5400    40.184066      123          123            0 1.245708e-13            0          0.1  0.009008069   0.40826595  0.029886565 
number of iterations: 29140 
    5500    40.882359      125          125            0 1.2684725e-13            0          0.1 0.0090082105   0.42021944  0.029886329 
number of iterations: 29743 
    5600    41.579365      130          130            0 1.291653e-13            0          0.1 0.0090083656   0.43239146  0.029886071 
number of iterations: 29300 
    5700    42.263035      133          133            0 1.3152571e-13            0          0.1 0.0090085115   0.44478592  0.029885828 
number of iterations: 29709 
    5800    42.986259      136          136            0 1.3392926e-13            0          0.1 0.0090086671   0.45740687  0.029885569 
number of iterations: 29806 
    5900    43.713851      138          138            0 1.3637673e-13            0          0.1 0.0090088255   0.47025845  0.029885305 
number of iterations: 29271 
    6000    44.402311      140          140            0 1.3886893e-13            0          0.1 0.0090089702   0.48334487  0.029885064 
number of iterations: 30601 
    6100    45.137398      143          143            0 1.4140666e-13            0          0.1 0.0090091544   0.49667043  0.029884758 
number of iterations: 30098 
    6200     45.85964      146          146            0 1.4399078e-13            0          0.1 0.0090093217   0.51023951  0.029884479 
number of iterations: 30195 
    6300    46.572014      146          146            0 1.4662211e-13            0          0.1  0.009009492   0.52405655  0.029884195 
number of iterations: 30292 
    6400    47.285286      147          147            0 1.4930154e-13            0          0.1 0.0090096655   0.53812608  0.029883907 
number of iterations: 30390 
    6500    48.019614      152          152            0 1.5202992e-13            0          0.1 0.0090098421   0.55245272  0.029883612 
number of iterations: 30487 
    6600    48.764246      153          153            0 1.5480817e-13            0          0.1  0.009010022   0.56704115  0.029883313 
number of iterations: 30584 
    6700    49.520129      155          155            0 1.5763719e-13            0          0.1 0.0090102051   0.58189617  0.029883008 
number of iterations: 30681 
    6800    50.274031      157          157            0 1.605179e-13            0          0.1 0.0090103916   0.59702265  0.029882698 
number of iterations: 30779 
    6900     51.10264      160          160            0 1.6345126e-13            0          0.1 0.0090105815   0.61242555  0.029882381 
number of iterations: 30619 
    7000    51.848784      162          162            0 1.6643822e-13            0          0.1 0.0090107677   0.62810979  0.029882071 
number of iterations: 30968 
    7100    52.690899      163          163            0 1.6947977e-13            0          0.1 0.0090109645   0.64408065  0.029881744 
number of iterations: 31069 
    7200    53.490299      166          166            0 1.725769e-13            0          0.1 0.0090111649   0.66034335   0.02988141 
number of iterations: 31165 
    7300    54.272022      169          169            0 1.7573063e-13            0          0.1 0.0090113689   0.67690323   0.02988107 
number of iterations: 31260 
    7400    55.112193      169          169            0 1.7894198e-13            0          0.1 0.0090115767   0.69376572  0.029880724 
number of iterations: 31508 
    7500    55.854756      175          175            0 1.8221203e-13            0          0.1  0.009011793   0.71093635  0.029880364 
number of iterations: 31457 
    7600    56.600813      179          179            0 1.8554183e-13            0          0.1 0.0090120085   0.72842074  0.029880005 
number of iterations: 31954 
    7700     57.49481      182          182            0 1.8893248e-13            0          0.1 0.0090122454   0.74622467  0.029879611 
number of iterations: 31663 
    7800    58.589235      185          185            0 1.9238509e-13            0          0.1 0.0090124692   0.76435393  0.029879238 
number of iterations: 31923 
    7900    59.372502      188          188            0 1.959008e-13            0          0.1 0.0090127027   0.78281448  0.029878849 
number of iterations: 31857 
    8000    60.148149      191          191            0 1.9948076e-13            0          0.1 0.0090129348   0.80161237  0.029878463 
number of iterations: 31955 
    8100    60.924766      194          194            0 2.0312613e-13            0          0.1 0.0090131712   0.82075376  0.029878069 
number of iterations: 32055 
    8200    61.688904      198          198            0 2.0683812e-13            0          0.1 0.0090134119   0.84024495  0.029877668 
number of iterations: 32149 
    8300    62.461455      204          204            0 2.1061795e-13            0          0.1  0.009013657   0.86009231   0.02987726 
number of iterations: 32093 
    8400    63.337109      208          208            0 2.1446684e-13            0          0.1  0.009013901   0.88030238  0.029876854 
number of iterations: 32342 
    8500    64.136525      214          214            0 2.1838608e-13            0          0.1  0.009014155   0.90088176  0.029876431 
number of iterations: 32440 
    8600    64.944461      221          221            0 2.2237693e-13            0          0.1 0.0090144137   0.92183721     0.029876 
number of iterations: 32663 
    8700    65.748766      224          224            0 2.2644072e-13            0          0.1 0.0090146821   0.94317557  0.029875554 
number of iterations: 32636 
    8800    66.553825      227          227            0 2.3057877e-13            0          0.1 0.0090149504   0.96490387  0.029875107 
number of iterations: 32733 
    8900    67.339493      232          232            0 2.3479243e-13            0          0.1 0.0090152236   0.98702925  0.029874652 
number of iterations: 32712 
    9000    68.199907      236          236            0 2.390831e-13            0          0.1 0.0090154948     1.009559    0.0298742 
number of iterations: 32925 
    9100    69.156081      242          242            0 2.4345218e-13            0          0.1  0.009015778    1.0325005  0.029873729 
number of iterations: 33023 
    9200    69.963908      245          245            0 2.479011e-13            0          0.1 0.0090160663    1.0558612  0.029873249 
number of iterations: 32769 
    9300    70.761332      250          250            0 2.5243131e-13            0          0.1 0.0090163432    1.0796488  0.029872788 
number of iterations: 32949 
    9400    71.579629      253          253            0 2.5704432e-13            0          0.1 0.0090166301     1.103871   0.02987231 
number of iterations: 33761 
    9500     72.45905      262          262            0 2.6174162e-13            0          0.1 0.0090169575     1.128536  0.029871765 
number of iterations: 33412 
    9600    73.364828      267          267            0 2.6652477e-13            0          0.1 0.0090172674    1.1536516  0.029871249 
number of iterations: 33511 
    9700    74.238754      269          269            0 2.7139532e-13            0          0.1  0.009017583    1.1792262  0.029870723 
number of iterations: 33604 
    9800    75.087552      274          274            0 2.7635487e-13            0          0.1 0.0090179043    1.2052682  0.029870188 
number of iterations: 33969 
    9900    75.893256      280          280            0 2.8140506e-13            0          0.1 0.0090182465    1.2317861  0.029869618 
number of iterations: 33212 
   10000    76.700976      285          285            0 2.8654754e-13            0          0.1 0.0090185443    1.2587885  0.029869123 
Loop time of 76.701 on 8 procs for 10000 steps with 285 atoms

Performance: 112645170.675 tau/day, 130.376 timesteps/s
88.4% CPU use with 8 MPI tasks x no OpenMP threads

MPI task timing breakdown:
Section |  min time  |  avg time  |  max time  |%varavg| %total
---------------------------------------------------------------
Pair    | 0.009925   | 0.011678   | 0.013357   |   1.1 |  0.02
Neigh   | 0.0076912  | 0.0088531  | 0.0099618  |   0.9 |  0.01
Comm    | 0.045431   | 0.05456    | 0.07317    |   4.5 |  0.07
Output  | 13.468     | 13.468     | 13.471     |   0.0 | 17.56
Modify  | 63.082     | 63.085     | 63.087     |   0.0 | 82.25
Other   |            | 0.07295    |            |       |  0.10

Nlocal:    35.625 ave 48 max 21 min
Histogram: 2 0 0 0 2 1 0 0 1 2
Nghost:    7.875 ave 25 max 2 min
Histogram: 3 1 2 1 0 0 0 0 0 1
Neighs:    42.5 ave 61 max 20 min
Histogram: 1 1 0 1 1 1 0 0 0 3

Total # of neighbors = 340
Ave neighs/atom = 1.19298
Neighbor list builds = 115
Dangerous builds = 0
Total wall time: 0:01:16
