ITEM: TIMESTEP
0
ITEM: NUMBER OF ATOMS
50
ITEM: BOX BOUNDS ff ff ff
0.0000000000000000e+00 1.0000000000000000e-04
0.0000000000000000e+00 1.0000000000000000e-04
0.0000000000000000e+00 5.0000000000000002e-05
ITEM: ATOMS id type diameter x y z 
44 1 1.39e-06 4.23e-05 2.57e-05 2.78e-06 
7 1 1.8e-06 3.9e-05 3.32e-05 2.62e-06 
15 1 1.73e-06 4.04e-05 2.6e-05 4.27e-06 
34 1 1.47e-06 5.49e-06 7.5e-06 6.95e-06 
18 1 1.72e-06 3.01e-05 3.1e-05 6.74e-06 
13 1 1.7e-06 2.65e-05 4.03e-05 6.82e-06 
4 1 1.88e-06 5.15e-06 7.92e-06 1.64e-05 
25 1 1.88e-06 1.14e-05 2.98e-05 2.11e-05 
5 1 1.6e-06 4.3e-05 3.38e-05 2.17e-05 
30 1 1.57e-06 1.53e-05 1.29e-05 2.24e-05 
24 1 1.49e-06 1.7e-05 3.89e-05 2.22e-05 
33 1 1.8e-06 5.3e-06 4.57e-05 2.61e-05 
43 1 1.87e-06 4.03e-05 1.44e-05 2.8e-05 
6 1 1.59e-06 6.52e-06 8.52e-05 3.64e-06 
49 1 1.87e-06 8.07e-06 8.83e-05 9.64e-06 
46 1 1.85e-06 1.88e-05 6.3e-05 1.21e-05 
21 1 1.73e-06 3.57e-05 5.1e-05 1.25e-05 
31 1 1.92e-06 4.22e-05 6.92e-05 1.78e-05 
40 1 1.84e-06 4.29e-05 8.49e-05 2.59e-05 
28 1 1.77e-06 4.99e-05 9.17e-05 3.27e-05 
11 1 1.8e-06 3.47e-05 5.23e-05 4.01e-05 
3 1 1.81e-06 4.69e-05 7.48e-05 4.26e-05 
48 1 1.5e-06 4.39e-05 6.8e-05 4.45e-05 
2 1 1.81e-06 2.67e-05 7.65e-05 4.47e-05 
47 1 1.67e-06 1.29e-05 6.76e-05 4.5e-05 
16 1 1.68e-06 4.77e-05 9.06e-05 4.78e-05 
19 1 1.64e-06 7.72e-05 1.47e-05 3.4e-06 
26 1 1.59e-06 8.5e-05 2.42e-06 5.23e-06 
22 1 1.88e-06 6.56e-05 3.93e-05 9.24e-06 
50 1 1.89e-06 7.92e-05 3.05e-05 1.01e-05 
14 1 1.62e-06 9.06e-05 1.02e-05 1.1e-05 
37 1 1.91e-06 5.2e-05 1.22e-05 1.29e-05 
12 1 1.88e-06 5.3e-05 4.54e-05 1.73e-05 
35 1 1.43e-06 6.37e-05 1.28e-05 2.11e-05 
17 1 1.6e-06 9.78e-05 4.11e-05 2.24e-05 
39 1 1.72e-06 7.95e-05 4.12e-05 2.47e-05 
38 1 1.4e-06 8.53e-05 4.25e-05 2.72e-05 
27 1 1.37e-06 9.48e-05 1.07e-05 2.97e-05 
29 1 1.38e-06 6.79e-05 1.19e-05 3.18e-05 
8 1 1.53e-06 8.6e-05 2.38e-05 3.25e-05 
1 1 1.59e-06 9.31e-05 4.14e-05 3.52e-05 
9 1 1.65e-06 7.67e-05 9.3e-06 4.12e-05 
36 1 1.54e-06 8.22e-05 6.77e-05 6.08e-06 
10 1 1.47e-06 8.8e-05 9.41e-05 7.47e-06 
32 1 1.92e-06 5.96e-05 9.76e-05 7.97e-06 
41 1 1.76e-06 7.9e-05 7.96e-05 1.34e-05 
45 1 1.52e-06 7.09e-05 5.91e-05 2.22e-05 
20 1 1.38e-06 9.47e-05 9.17e-05 2.98e-05 
42 1 1.5e-06 5.23e-05 8.53e-05 3.22e-05 
23 1 1.81e-06 7.37e-05 9.66e-05 4.38e-05 
ITEM: TIMESTEP
100
ITEM: NUMBER OF ATOMS
50
ITEM: BOX BOUNDS ff ff ff
0.0000000000000000e+00 1.0000000000000000e-04
0.0000000000000000e+00 1.0000000000000000e-04
0.0000000000000000e+00 5.0000000000000002e-05
ITEM: ATOMS id type diameter x y z 
44 1 1.39842e-06 4.23e-05 2.57e-05 2.78e-06 
7 1 1.8109e-06 3.9e-05 3.32e-05 2.62e-06 
15 1 1.74047e-06 4.04e-05 2.6e-05 4.27e-06 
34 1 1.4789e-06 5.49e-06 7.5e-06 6.95e-06 
18 1 1.73041e-06 3.01e-05 3.1e-05 6.74e-06 
13 1 1.71029e-06 2.65e-05 4.03e-05 6.82e-06 
4 1 1.89138e-06 5.15e-06 7.92e-06 1.64e-05 
25 1 1.89138e-06 1.14e-05 2.98e-05 2.11e-05 
5 1 1.60969e-06 4.3e-05 3.38e-05 2.17e-05 
30 1 1.57951e-06 1.53e-05 1.29e-05 2.24e-05 
24 1 1.49902e-06 1.7e-05 3.89e-05 2.22e-05 
33 1 1.8109e-06 5.3e-06 4.57e-05 2.61e-05 
43 1 1.88132e-06 4.03e-05 1.44e-05 2.8e-05 
6 1 1.59963e-06 6.52e-06 8.52e-05 3.64e-06 
49 1 1.88132e-06 8.07e-06 8.83e-05 9.64e-06 
46 1 1.8612e-06 1.88e-05 6.3e-05 1.21e-05 
21 1 1.74047e-06 3.57e-05 5.1e-05 1.25e-05 
31 1 1.93163e-06 4.22e-05 6.92e-05 1.78e-05 
40 1 1.85114e-06 4.29e-05 8.49e-05 2.59e-05 
28 1 1.78072e-06 4.99e-05 9.17e-05 3.27e-05 
11 1 1.8109e-06 3.47e-05 5.23e-05 4.01e-05 
3 1 1.82096e-06 4.69e-05 7.48e-05 4.26e-05 
48 1 1.50908e-06 4.39e-05 6.8e-05 4.45e-05 
2 1 1.82096e-06 2.67e-05 7.65e-05 4.47e-05 
47 1 1.68011e-06 1.29e-05 6.76e-05 4.5e-05 
16 1 1.69017e-06 4.77e-05 9.06e-05 4.78e-05 
19 1 1.64993e-06 7.72e-05 1.47e-05 3.4e-06 
26 1 1.59963e-06 8.5e-05 2.42e-06 5.23e-06 
22 1 1.89138e-06 6.56e-05 3.93e-05 9.24e-06 
50 1 1.90144e-06 7.92e-05 3.05e-05 1.01e-05 
14 1 1.62981e-06 9.06e-05 1.02e-05 1.1e-05 
37 1 1.92156e-06 5.2e-05 1.22e-05 1.29e-05 
12 1 1.89138e-06 5.3e-05 4.54e-05 1.73e-05 
35 1 1.43866e-06 6.37e-05 1.28e-05 2.11e-05 
17 1 1.60969e-06 9.78e-05 4.11e-05 2.24e-05 
39 1 1.73041e-06 7.95e-05 4.12e-05 2.47e-05 
38 1 1.40848e-06 8.53e-05 4.25e-05 2.72e-05 
27 1 1.37829e-06 9.48e-05 1.07e-05 2.97e-05 
29 1 1.38836e-06 6.79e-05 1.19e-05 3.18e-05 
8 1 1.53926e-06 8.6e-05 2.38e-05 3.25e-05 
1 1 1.59963e-06 9.31e-05 4.14e-05 3.52e-05 
9 1 1.65999e-06 7.67e-05 9.3e-06 4.12e-05 
36 1 1.54932e-06 8.22e-05 6.77e-05 6.08e-06 
10 1 1.4789e-06 8.8e-05 9.41e-05 7.47e-06 
32 1 1.93163e-06 5.96e-05 9.76e-05 7.97e-06 
41 1 1.77066e-06 7.9e-05 7.96e-05 1.34e-05 
45 1 1.5292e-06 7.09e-05 5.91e-05 2.22e-05 
20 1 1.38836e-06 9.47e-05 9.17e-05 2.98e-05 
42 1 1.50908e-06 5.23e-05 8.53e-05 3.22e-05 
23 1 1.82096e-06 7.37e-05 9.66e-05 4.38e-05 
ITEM: TIMESTEP
200
ITEM: NUMBER OF ATOMS
50
ITEM: BOX BOUNDS ff ff ff
0.0000000000000000e+00 1.0000000000000000e-04
0.0000000000000000e+00 1.0000000000000000e-04
0.0000000000000000e+00 5.0000000000000002e-05
ITEM: ATOMS id type diameter x y z 
44 1 1.40688e-06 4.23e-05 2.57e-05 2.78e-06 
7 1 1.82186e-06 3.9e-05 3.32e-05 2.62e-06 
15 1 1.75101e-06 4.04e-05 2.6e-05 4.27e-06 
34 1 1.48785e-06 5.49e-06 7.5e-06 6.95e-06 
18 1 1.74089e-06 3.01e-05 3.1e-05 6.74e-06 
13 1 1.72065e-06 2.65e-05 4.03e-05 6.82e-06 
4 1 1.90283e-06 5.15e-06 7.92e-06 1.64e-05 
25 1 1.90283e-06 1.14e-05 2.98e-05 2.11e-05 
5 1 1.61943e-06 4.3e-05 3.38e-05 2.17e-05 
30 1 1.58907e-06 1.53e-05 1.29e-05 2.24e-05 
24 1 1.5081e-06 1.7e-05 3.89e-05 2.22e-05 
33 1 1.82186e-06 5.3e-06 4.57e-05 2.61e-05 
43 1 1.89271e-06 4.03e-05 1.44e-05 2.8e-05 
6 1 1.60931e-06 6.52e-06 8.52e-05 3.64e-06 
49 1 1.89271e-06 8.07e-06 8.83e-05 9.64e-06 
46 1 1.87247e-06 1.88e-05 6.3e-05 1.21e-05 
21 1 1.75101e-06 3.57e-05 5.1e-05 1.25e-05 
31 1 1.94332e-06 4.22e-05 6.92e-05 1.78e-05 
40 1 1.86235e-06 4.29e-05 8.49e-05 2.59e-05 
28 1 1.7915e-06 4.99e-05 9.17e-05 3.27e-05 
11 1 1.82186e-06 3.47e-05 5.23e-05 4.01e-05 
3 1 1.83198e-06 4.69e-05 7.48e-05 4.26e-05 
48 1 1.51822e-06 4.39e-05 6.8e-05 4.45e-05 
2 1 1.83198e-06 2.67e-05 7.65e-05 4.47e-05 
47 1 1.69028e-06 1.29e-05 6.76e-05 4.5e-05 
16 1 1.70041e-06 4.77e-05 9.06e-05 4.78e-05 
19 1 1.65992e-06 7.72e-05 1.47e-05 3.4e-06 
26 1 1.60931e-06 8.5e-05 2.42e-06 5.23e-06 
22 1 1.90283e-06 6.56e-05 3.93e-05 9.24e-06 
50 1 1.91296e-06 7.92e-05 3.05e-05 1.01e-05 
14 1 1.63968e-06 9.06e-05 1.02e-05 1.1e-05 
37 1 1.9332e-06 5.2e-05 1.22e-05 1.29e-05 
12 1 1.90283e-06 5.3e-05 4.54e-05 1.73e-05 
35 1 1.44737e-06 6.37e-05 1.28e-05 2.11e-05 
17 1 1.61943e-06 9.78e-05 4.11e-05 2.24e-05 
39 1 1.74089e-06 7.95e-05 4.12e-05 2.47e-05 
38 1 1.417e-06 8.53e-05 4.25e-05 2.72e-05 
27 1 1.38664e-06 9.48e-05 1.07e-05 2.97e-05 
29 1 1.39676e-06 6.79e-05 1.19e-05 3.18e-05 
8 1 1.54858e-06 8.6e-05 2.38e-05 3.25e-05 
1 1 1.60931e-06 9.31e-05 4.14e-05 3.52e-05 
9 1 1.67004e-06 7.67e-05 9.3e-06 4.12e-05 
36 1 1.55871e-06 8.22e-05 6.77e-05 6.08e-06 
10 1 1.48785e-06 8.8e-05 9.41e-05 7.47e-06 
32 1 1.94332e-06 5.96e-05 9.76e-05 7.97e-06 
41 1 1.78138e-06 7.9e-05 7.96e-05 1.34e-05 
45 1 1.53846e-06 7.09e-05 5.91e-05 2.22e-05 
20 1 1.39676e-06 9.47e-05 9.17e-05 2.98e-05 
42 1 1.51822e-06 5.23e-05 8.53e-05 3.22e-05 
23 1 1.83198e-06 7.37e-05 9.66e-05 4.38e-05 
ITEM: TIMESTEP
300
ITEM: NUMBER OF ATOMS
50
ITEM: BOX BOUNDS ff ff ff
0.0000000000000000e+00 1.0000000000000000e-04
0.0000000000000000e+00 1.0000000000000000e-04
0.0000000000000000e+00 5.0000000000000002e-05
ITEM: ATOMS id type diameter x y z 
44 1 1.4154e-06 4.23e-05 2.57e-05 2.78e-06 
7 1 1.83289e-06 3.9e-05 3.32e-05 2.62e-06 
15 1 1.76161e-06 4.04e-05 2.6e-05 4.27e-06 
34 1 1.49686e-06 5.49e-06 7.5e-06 6.95e-06 
18 1 1.75143e-06 3.01e-05 3.1e-05 6.74e-06 
13 1 1.73107e-06 2.65e-05 4.03e-05 6.82e-06 
4 1 1.91436e-06 5.15e-06 7.92e-06 1.64e-05 
25 1 1.91436e-06 1.14e-05 2.98e-05 2.11e-05 
5 1 1.62924e-06 4.3e-05 3.38e-05 2.17e-05 
30 1 1.59869e-06 1.53e-05 1.29e-05 2.24e-05 
24 1 1.51723e-06 1.7e-05 3.89e-05 2.22e-05 
33 1 1.83289e-06 5.3e-06 4.57e-05 2.61e-05 
43 1 1.90417e-06 4.03e-05 1.44e-05 2.8e-05 
6 1 1.61906e-06 6.52e-06 8.52e-05 3.64e-06 
49 1 1.90417e-06 8.07e-06 8.83e-05 9.64e-06 
46 1 1.88381e-06 1.88e-05 6.3e-05 1.21e-05 
21 1 1.76161e-06 3.57e-05 5.1e-05 1.25e-05 
31 1 1.95509e-06 4.22e-05 6.92e-05 1.78e-05 
40 1 1.87362e-06 4.29e-05 8.49e-05 2.59e-05 
28 1 1.80235e-06 4.99e-05 9.17e-05 3.27e-05 
11 1 1.83289e-06 3.47e-05 5.23e-05 4.01e-05 
3 1 1.84308e-06 4.69e-05 7.48e-05 4.26e-05 
48 1 1.52741e-06 4.39e-05 6.8e-05 4.45e-05 
2 1 1.84308e-06 2.67e-05 7.65e-05 4.47e-05 
47 1 1.70052e-06 1.29e-05 6.76e-05 4.5e-05 
16 1 1.7107e-06 4.77e-05 9.06e-05 4.78e-05 
19 1 1.66997e-06 7.72e-05 1.47e-05 3.4e-06 
26 1 1.61906e-06 8.5e-05 2.42e-06 5.23e-06 
22 1 1.91436e-06 6.56e-05 3.93e-05 9.24e-06 
50 1 1.92454e-06 7.92e-05 3.05e-05 1.01e-05 
14 1 1.6496e-06 9.06e-05 1.02e-05 1.1e-05 
37 1 1.9449e-06 5.2e-05 1.22e-05 1.29e-05 
12 1 1.91436e-06 5.3e-05 4.54e-05 1.73e-05 
35 1 1.45613e-06 6.37e-05 1.28e-05 2.11e-05 
17 1 1.62924e-06 9.78e-05 4.11e-05 2.24e-05 
39 1 1.75143e-06 7.95e-05 4.12e-05 2.47e-05 
38 1 1.42558e-06 8.53e-05 4.25e-05 2.72e-05 
27 1 1.39504e-06 9.48e-05 1.07e-05 2.97e-05 
29 1 1.40522e-06 6.79e-05 1.19e-05 3.18e-05 
8 1 1.55796e-06 8.6e-05 2.38e-05 3.25e-05 
1 1 1.61906e-06 9.31e-05 4.14e-05 3.52e-05 
9 1 1.68015e-06 7.67e-05 9.3e-06 4.12e-05 
36 1 1.56814e-06 8.22e-05 6.77e-05 6.08e-06 
10 1 1.49686e-06 8.8e-05 9.41e-05 7.47e-06 
32 1 1.95509e-06 5.96e-05 9.76e-05 7.97e-06 
41 1 1.79216e-06 7.9e-05 7.96e-05 1.34e-05 
45 1 1.54778e-06 7.09e-05 5.91e-05 2.22e-05 
20 1 1.40522e-06 9.47e-05 9.17e-05 2.98e-05 
42 1 1.52741e-06 5.23e-05 8.53e-05 3.22e-05 
23 1 1.84308e-06 7.37e-05 9.66e-05 4.38e-05 
ITEM: TIMESTEP
400
ITEM: NUMBER OF ATOMS
50
ITEM: BOX BOUNDS ff ff ff
0.0000000000000000e+00 1.0000000000000000e-04
0.0000000000000000e+00 1.0000000000000000e-04
0.0000000000000000e+00 5.0000000000000002e-05
ITEM: ATOMS id type diameter x y z 
44 1 1.42397e-06 4.23e-05 2.57e-05 2.78e-06 
7 1 1.84399e-06 3.9e-05 3.32e-05 2.62e-06 
15 1 1.77228e-06 4.04e-05 2.6e-05 4.27e-06 
34 1 1.50593e-06 5.49e-06 7.5e-06 6.95e-06 
18 1 1.76204e-06 3.01e-05 3.1e-05 6.74e-06 
13 1 1.74155e-06 2.65e-05 4.03e-05 6.82e-06 
4 1 1.92595e-06 5.15e-06 7.92e-06 1.64e-05 
25 1 1.92595e-06 1.14e-05 2.98e-05 2.11e-05 
5 1 1.6391e-06 4.3e-05 3.38e-05 2.17e-05 
30 1 1.60837e-06 1.53e-05 1.29e-05 2.24e-05 
24 1 1.52642e-06 1.7e-05 3.89e-05 2.22e-05 
33 1 1.84399e-06 5.3e-06 4.57e-05 2.61e-05 
43 1 1.9157e-06 4.03e-05 1.44e-05 2.8e-05 
6 1 1.62886e-06 6.52e-06 8.52e-05 3.64e-06 
49 1 1.9157e-06 8.07e-06 8.83e-05 9.64e-06 
46 1 1.89521e-06 1.88e-05 6.3e-05 1.21e-05 
21 1 1.77228e-06 3.57e-05 5.1e-05 1.25e-05 
31 1 1.96692e-06 4.22e-05 6.92e-05 1.78e-05 
40 1 1.88497e-06 4.29e-05 8.49e-05 2.59e-05 
28 1 1.81326e-06 4.99e-05 9.17e-05 3.27e-05 
11 1 1.84399e-06 3.47e-05 5.23e-05 4.01e-05 
3 1 1.85424e-06 4.69e-05 7.48e-05 4.26e-05 
48 1 1.53666e-06 4.39e-05 6.8e-05 4.45e-05 
2 1 1.85424e-06 2.67e-05 7.65e-05 4.47e-05 
47 1 1.71081e-06 1.29e-05 6.76e-05 4.5e-05 
16 1 1.72106e-06 4.77e-05 9.06e-05 4.78e-05 
19 1 1.68008e-06 7.72e-05 1.47e-05 3.4e-06 
26 1 1.62886e-06 8.5e-05 2.42e-06 5.23e-06 
22 1 1.92595e-06 6.56e-05 3.93e-05 9.24e-06 
50 1 1.93619e-06 7.92e-05 3.05e-05 1.01e-05 
14 1 1.65959e-06 9.06e-05 1.02e-05 1.1e-05 
37 1 1.95668e-06 5.2e-05 1.22e-05 1.29e-05 
12 1 1.92595e-06 5.3e-05 4.54e-05 1.73e-05 
35 1 1.46495e-06 6.37e-05 1.28e-05 2.11e-05 
17 1 1.6391e-06 9.78e-05 4.11e-05 2.24e-05 
39 1 1.76204e-06 7.95e-05 4.12e-05 2.47e-05 
38 1 1.43422e-06 8.53e-05 4.25e-05 2.72e-05 
27 1 1.40348e-06 9.48e-05 1.07e-05 2.97e-05 
29 1 1.41373e-06 6.79e-05 1.19e-05 3.18e-05 
8 1 1.56739e-06 8.6e-05 2.38e-05 3.25e-05 
1 1 1.62886e-06 9.31e-05 4.14e-05 3.52e-05 
9 1 1.69033e-06 7.67e-05 9.3e-06 4.12e-05 
36 1 1.57764e-06 8.22e-05 6.77e-05 6.08e-06 
10 1 1.50593e-06 8.8e-05 9.41e-05 7.47e-06 
32 1 1.96692e-06 5.96e-05 9.76e-05 7.97e-06 
41 1 1.80301e-06 7.9e-05 7.96e-05 1.34e-05 
45 1 1.55715e-06 7.09e-05 5.91e-05 2.22e-05 
20 1 1.41373e-06 9.47e-05 9.17e-05 2.98e-05 
42 1 1.53666e-06 5.23e-05 8.53e-05 3.22e-05 
23 1 1.85424e-06 7.37e-05 9.66e-05 4.38e-05 
ITEM: TIMESTEP
500
ITEM: NUMBER OF ATOMS
52
ITEM: BOX BOUNDS ff ff ff
0.0000000000000000e+00 1.0000000000000000e-04
0.0000000000000000e+00 1.0000000000000000e-04
0.0000000000000000e+00 5.0000000000000002e-05
ITEM: ATOMS id type diameter x y z 
44 1 1.43259e-06 4.23e-05 2.57e-05 2.78e-06 
7 1 1.85516e-06 3.9e-05 3.32e-05 2.62e-06 
15 1 1.78301e-06 4.04e-05 2.6e-05 4.27e-06 
34 1 1.51504e-06 5.49e-06 7.5e-06 6.95e-06 
18 1 1.7727e-06 3.01e-05 3.1e-05 6.74e-06 
13 1 1.75209e-06 2.65e-05 4.03e-05 6.82e-06 
4 1 1.93761e-06 5.15e-06 7.92e-06 1.64e-05 
25 1 1.93761e-06 1.14e-05 2.98e-05 2.11e-05 
5 1 1.64903e-06 4.3e-05 3.38e-05 2.17e-05 
30 1 1.61811e-06 1.53e-05 1.29e-05 2.24e-05 
24 1 1.53566e-06 1.7e-05 3.89e-05 2.22e-05 
33 1 1.85516e-06 5.3e-06 4.57e-05 2.61e-05 
43 1 1.9273e-06 4.03e-05 1.44e-05 2.8e-05 
6 1 1.63872e-06 6.52e-06 8.52e-05 3.64e-06 
49 1 1.9273e-06 8.07e-06 8.83e-05 9.64e-06 
46 1 1.90669e-06 1.88e-05 6.3e-05 1.21e-05 
21 1 1.78301e-06 3.57e-05 5.1e-05 1.25e-05 
31 1 1.51668e-06 4.21673e-05 6.88439e-05 1.84678e-05 
51 1 1.62105e-06 4.2235e-05 6.95806e-05 1.70862e-05 
40 1 1.89638e-06 4.29e-05 8.49e-05 2.59e-05 
28 1 1.82424e-06 4.99e-05 9.17e-05 3.27e-05 
11 1 1.85516e-06 3.47e-05 5.23e-05 4.01e-05 
3 1 1.86546e-06 4.69e-05 7.48e-05 4.26e-05 
48 1 1.54596e-06 4.39e-05 6.8e-05 4.45e-05 
2 1 1.86546e-06 2.67e-05 7.65e-05 4.47e-05 
47 1 1.72117e-06 1.29e-05 6.76e-05 4.5e-05 
16 1 1.73148e-06 4.77e-05 9.06e-05 4.78e-05 
19 1 1.69025e-06 7.72e-05 1.47e-05 3.4e-06 
26 1 1.63872e-06 8.5e-05 2.42e-06 5.23e-06 
22 1 1.93761e-06 6.56e-05 3.93e-05 9.24e-06 
50 1 1.94791e-06 7.92e-05 3.05e-05 1.01e-05 
14 1 1.66964e-06 9.06e-05 1.02e-05 1.1e-05 
37 1 1.96853e-06 5.2e-05 1.22e-05 1.29e-05 
12 1 1.93761e-06 5.3e-05 4.54e-05 1.73e-05 
35 1 1.47382e-06 6.37e-05 1.28e-05 2.11e-05 
17 1 1.64903e-06 9.78e-05 4.11e-05 2.24e-05 
39 1 1.77271e-06 7.95e-05 4.12e-05 2.47e-05 
38 1 1.4429e-06 8.53e-05 4.25e-05 2.72e-05 
27 1 1.41198e-06 9.48e-05 1.07e-05 2.97e-05 
29 1 1.42229e-06 6.79e-05 1.19e-05 3.18e-05 
8 1 1.57688e-06 8.6e-05 2.38e-05 3.25e-05 
1 1 1.63872e-06 9.31e-05 4.14e-05 3.52e-05 
9 1 1.70056e-06 7.67e-05 9.3e-06 4.12e-05 
36 1 1.58719e-06 8.22e-05 6.77e-05 6.08e-06 
10 1 1.51504e-06 8.8e-05 9.41e-05 7.47e-06 
32 1 1.51668e-06 5.95673e-05 9.72439e-05 8.63782e-06 
41 1 1.81393e-06 7.9e-05 7.96e-05 1.34e-05 
52 1 1.62105e-06 5.9635e-05 9.79806e-05 7.25622e-06 
45 1 1.56658e-06 7.09e-05 5.91e-05 2.22e-05 
20 1 1.42229e-06 9.47e-05 9.17e-05 2.98e-05 
42 1 1.54596e-06 5.23e-05 8.53e-05 3.22e-05 
23 1 1.86546e-06 7.37e-05 9.66e-05 4.38e-05 
ITEM: TIMESTEP
600
ITEM: NUMBER OF ATOMS
53
ITEM: BOX BOUNDS ff ff ff
0.0000000000000000e+00 1.0000000000000000e-04
0.0000000000000000e+00 1.0000000000000000e-04
0.0000000000000000e+00 5.0000000000000002e-05
ITEM: ATOMS id type diameter x y z 
44 1 1.44127e-06 4.23e-05 2.57e-05 2.78e-06 
7 1 1.86639e-06 3.9e-05 3.32e-05 2.62e-06 
15 1 1.79381e-06 4.04e-05 2.6e-05 4.27e-06 
34 1 1.52422e-06 5.49e-06 7.5e-06 6.95e-06 
18 1 1.78344e-06 3.01e-05 3.1e-05 6.74e-06 
13 1 1.7627e-06 2.65e-05 4.03e-05 6.82e-06 
4 1 1.94934e-06 5.15e-06 7.92e-06 1.64e-05 
25 1 1.94934e-06 1.14e-05 2.98e-05 2.11e-05 
5 1 1.65901e-06 4.3e-05 3.38e-05 2.17e-05 
30 1 1.62791e-06 1.53e-05 1.29e-05 2.24e-05 
24 1 1.54496e-06 1.7e-05 3.89e-05 2.22e-05 
33 1 1.86639e-06 5.3e-06 4.57e-05 2.61e-05 
43 1 1.93897e-06 4.03e-05 1.44e-05 2.8e-05 
6 1 1.64864e-06 6.52e-06 8.52e-05 3.64e-06 
49 1 1.93897e-06 8.07e-06 8.83e-05 9.64e-06 
46 1 1.91823e-06 1.88e-05 6.3e-05 1.21e-05 
21 1 1.79381e-06 3.57e-05 5.1e-05 1.25e-05 
31 1 1.52586e-06 4.21673e-05 6.88439e-05 1.84678e-05 
51 1 1.63087e-06 4.2235e-05 6.95806e-05 1.70862e-05 
40 1 1.90786e-06 4.29e-05 8.49e-05 2.59e-05 
28 1 1.83528e-06 4.99e-05 9.17e-05 3.27e-05 
11 1 1.86639e-06 3.47e-05 5.23e-05 4.01e-05 
3 1 1.87676e-06 4.69e-05 7.48e-05 4.26e-05 
48 1 1.55532e-06 4.39e-05 6.8e-05 4.45e-05 
2 1 1.87676e-06 2.67e-05 7.65e-05 4.47e-05 
47 1 1.73159e-06 1.29e-05 6.76e-05 4.5e-05 
16 1 1.74196e-06 4.77e-05 9.06e-05 4.78e-05 
19 1 1.70049e-06 7.72e-05 1.47e-05 3.4e-06 
26 1 1.64864e-06 8.5e-05 2.42e-06 5.23e-06 
22 1 1.94934e-06 6.56e-05 3.93e-05 9.24e-06 
50 1 1.95971e-06 7.92e-05 3.05e-05 1.01e-05 
14 1 1.67975e-06 9.06e-05 1.02e-05 1.1e-05 
37 1 1.51792e-06 5.19673e-05 1.18436e-05 1.35684e-05 
12 1 1.94934e-06 5.3e-05 4.54e-05 1.73e-05 
53 1 1.62238e-06 5.2035e-05 1.25809e-05 1.21856e-05 
35 1 1.48274e-06 6.37e-05 1.28e-05 2.11e-05 
17 1 1.65901e-06 9.78e-05 4.11e-05 2.24e-05 
39 1 1.78344e-06 7.95e-05 4.12e-05 2.47e-05 
38 1 1.45164e-06 8.53e-05 4.25e-05 2.72e-05 
27 1 1.42053e-06 9.48e-05 1.07e-05 2.97e-05 
29 1 1.4309e-06 6.79e-05 1.19e-05 3.18e-05 
8 1 1.58643e-06 8.6e-05 2.38e-05 3.25e-05 
1 1 1.64864e-06 9.31e-05 4.14e-05 3.52e-05 
9 1 1.71086e-06 7.67e-05 9.3e-06 4.12e-05 
36 1 1.5968e-06 8.22e-05 6.77e-05 6.08e-06 
10 1 1.52422e-06 8.8e-05 9.41e-05 7.47e-06 
32 1 1.52586e-06 5.95673e-05 9.72439e-05 8.63782e-06 
41 1 1.82491e-06 7.9e-05 7.96e-05 1.34e-05 
52 1 1.63087e-06 5.9635e-05 9.79806e-05 7.25622e-06 
45 1 1.57606e-06 7.09e-05 5.91e-05 2.22e-05 
20 1 1.4309e-06 9.47e-05 9.17e-05 2.98e-05 
42 1 1.55532e-06 5.23e-05 8.53e-05 3.22e-05 
23 1 1.87676e-06 7.37e-05 9.66e-05 4.38e-05 
ITEM: TIMESTEP
700
ITEM: NUMBER OF ATOMS
53
ITEM: BOX BOUNDS ff ff ff
0.0000000000000000e+00 1.0000000000000000e-04
0.0000000000000000e+00 1.0000000000000000e-04
0.0000000000000000e+00 5.0000000000000002e-05
ITEM: ATOMS id type diameter x y z 
44 1 1.44999e-06 4.23e-05 2.57e-05 2.78e-06 
7 1 1.87769e-06 3.9e-05 3.32e-05 2.62e-06 
15 1 1.80467e-06 4.04e-05 2.6e-05 4.27e-06 
34 1 1.53345e-06 5.49e-06 7.5e-06 6.95e-06 
18 1 1.79424e-06 3.01e-05 3.1e-05 6.74e-06 
13 1 1.77337e-06 2.65e-05 4.03e-05 6.82e-06 
4 1 1.96114e-06 5.15e-06 7.92e-06 1.64e-05 
25 1 1.96114e-06 1.14e-05 2.98e-05 2.11e-05 
5 1 1.66906e-06 4.3e-05 3.38e-05 2.17e-05 
30 1 1.63776e-06 1.53e-05 1.29e-05 2.24e-05 
24 1 1.55431e-06 1.7e-05 3.89e-05 2.22e-05 
33 1 1.87769e-06 5.3e-06 4.57e-05 2.61e-05 
43 1 1.95071e-06 4.03e-05 1.44e-05 2.8e-05 
6 1 1.65863e-06 6.52e-06 8.52e-05 3.64e-06 
49 1 1.95071e-06 8.07e-06 8.83e-05 9.64e-06 
46 1 1.92985e-06 1.88e-05 6.3e-05 1.21e-05 
21 1 1.80467e-06 3.57e-05 5.1e-05 1.25e-05 
31 1 1.5351e-06 4.21673e-05 6.88439e-05 1.84678e-05 
51 1 1.64074e-06 4.2235e-05 6.95806e-05 1.70862e-05 
40 1 1.91942e-06 4.29e-05 8.49e-05 2.59e-05 
28 1 1.84639e-06 4.99e-05 9.17e-05 3.27e-05 
11 1 1.87769e-06 3.47e-05 5.23e-05 4.01e-05 
3 1 1.88812e-06 4.69e-05 7.48e-05 4.26e-05 
48 1 1.56474e-06 4.39e-05 6.8e-05 4.45e-05 
2 1 1.88812e-06 2.67e-05 7.65e-05 4.47e-05 
47 1 1.74208e-06 1.29e-05 6.76e-05 4.5e-05 
16 1 1.75251e-06 4.77e-05 9.06e-05 4.78e-05 
19 1 1.71078e-06 7.72e-05 1.47e-05 3.4e-06 
26 1 1.65863e-06 8.5e-05 2.42e-06 5.23e-06 
22 1 1.96114e-06 6.56e-05 3.93e-05 9.24e-06 
50 1 1.97157e-06 7.92e-05 3.05e-05 1.01e-05 
14 1 1.68992e-06 9.06e-05 1.02e-05 1.1e-05 
37 1 1.52711e-06 5.19673e-05 1.18436e-05 1.35684e-05 
12 1 1.96114e-06 5.3e-05 4.54e-05 1.73e-05 
53 1 1.6322e-06 5.2035e-05 1.25809e-05 1.21856e-05 
35 1 1.49172e-06 6.37e-05 1.28e-05 2.11e-05 
17 1 1.66906e-06 9.78e-05 4.11e-05 2.24e-05 
39 1 1.79424e-06 7.95e-05 4.12e-05 2.47e-05 
38 1 1.46043e-06 8.53e-05 4.25e-05 2.72e-05 
27 1 1.42913e-06 9.48e-05 1.07e-05 2.97e-05 
29 1 1.43956e-06 6.79e-05 1.19e-05 3.18e-05 
8 1 1.59604e-06 8.6e-05 2.38e-05 3.25e-05 
1 1 1.65863e-06 9.31e-05 4.14e-05 3.52e-05 
9 1 1.72122e-06 7.67e-05 9.3e-06 4.12e-05 
36 1 1.60647e-06 8.22e-05 6.77e-05 6.08e-06 
10 1 1.53345e-06 8.8e-05 9.41e-05 7.47e-06 
32 1 1.5351e-06 5.95673e-05 9.72439e-05 8.63782e-06 
41 1 1.83596e-06 7.9e-05 7.96e-05 1.34e-05 
52 1 1.64074e-06 5.9635e-05 9.79806e-05 7.25622e-06 
45 1 1.5856e-06 7.09e-05 5.91e-05 2.22e-05 
20 1 1.43956e-06 9.47e-05 9.17e-05 2.98e-05 
42 1 1.56474e-06 5.23e-05 8.53e-05 3.22e-05 
23 1 1.88812e-06 7.37e-05 9.66e-05 4.38e-05 
ITEM: TIMESTEP
800
ITEM: NUMBER OF ATOMS
58
ITEM: BOX BOUNDS ff ff ff
0.0000000000000000e+00 1.0000000000000000e-04
0.0000000000000000e+00 1.0000000000000000e-04
0.0000000000000000e+00 5.0000000000000002e-05
ITEM: ATOMS id type diameter x y z 
44 1 1.45877e-06 4.23e-05 2.57e-05 2.78e-06 
7 1 1.88906e-06 3.9e-05 3.32e-05 2.62e-06 
15 1 1.81559e-06 4.04e-05 2.6e-05 4.27e-06 
34 1 1.54273e-06 5.49e-06 7.5e-06 6.95e-06 
18 1 1.8051e-06 3.01e-05 3.1e-05 6.74e-06 
13 1 1.78411e-06 2.65e-05 4.03e-05 6.82e-06 
4 1 1.51222e-06 5.11738e-06 7.56494e-06 1.70659e-05 
54 1 1.61629e-06 5.18487e-06 8.2995e-06 1.56883e-05 
25 1 1.51222e-06 1.13674e-05 2.94449e-05 2.17659e-05 
5 1 1.67916e-06 4.3e-05 3.38e-05 2.17e-05 
30 1 1.64768e-06 1.53e-05 1.29e-05 2.24e-05 
24 1 1.56372e-06 1.7e-05 3.89e-05 2.22e-05 
33 1 1.88906e-06 5.3e-06 4.57e-05 2.61e-05 
43 1 1.96252e-06 4.03e-05 1.44e-05 2.8e-05 
55 1 1.61629e-06 1.14349e-05 3.01795e-05 2.03883e-05 
6 1 1.66867e-06 6.52e-06 8.52e-05 3.64e-06 
49 1 1.96252e-06 8.07e-06 8.83e-05 9.64e-06 
46 1 1.94153e-06 1.88e-05 6.3e-05 1.21e-05 
21 1 1.81559e-06 3.57e-05 5.1e-05 1.25e-05 
31 1 1.5444e-06 4.21664e-05 6.88345e-05 1.84855e-05 
51 1 1.65068e-06 4.22358e-05 6.959e-05 1.70686e-05 
40 1 1.93104e-06 4.29e-05 8.49e-05 2.59e-05 
28 1 1.85757e-06 4.99e-05 9.17e-05 3.27e-05 
11 1 1.88906e-06 3.47e-05 5.23e-05 4.01e-05 
3 1 1.89955e-06 4.69e-05 7.48e-05 4.26e-05 
48 1 1.57422e-06 4.39e-05 6.8e-05 4.45e-05 
2 1 1.89955e-06 2.67e-05 7.65e-05 4.47e-05 
47 1 1.75263e-06 1.29e-05 6.76e-05 4.5e-05 
16 1 1.76312e-06 4.77e-05 9.06e-05 4.78e-05 
19 1 1.72114e-06 7.72e-05 1.47e-05 3.4e-06 
26 1 1.66867e-06 8.5e-05 2.42e-06 5.23e-06 
22 1 1.48885e-06 6.53872e-05 3.87108e-05 9.64069e-06 
50 1 1.53228e-06 7.93961e-05 3.08877e-05 1.073e-05 
14 1 1.70015e-06 9.06e-05 1.02e-05 1.1e-05 
37 1 1.53635e-06 5.19673e-05 1.18436e-05 1.35684e-05 
12 1 1.65694e-06 5.30899e-05 4.48968e-05 1.79509e-05 
53 1 1.64208e-06 5.2035e-05 1.25809e-05 1.21856e-05 
56 1 1.63618e-06 6.58338e-05 3.99475e-05 8.79966e-06 
57 1 1.61421e-06 7.89934e-05 3.00915e-05 9.43628e-06 
58 1 1.46302e-06 5.29206e-05 4.58443e-05 1.67253e-05 
35 1 1.50075e-06 6.37e-05 1.28e-05 2.11e-05 
17 1 1.67916e-06 9.78e-05 4.11e-05 2.24e-05 
39 1 1.8051e-06 7.95e-05 4.12e-05 2.47e-05 
38 1 1.46927e-06 8.53e-05 4.25e-05 2.72e-05 
27 1 1.43778e-06 9.48e-05 1.07e-05 2.97e-05 
29 1 1.44828e-06 6.79e-05 1.19e-05 3.18e-05 
8 1 1.6057e-06 8.6e-05 2.38e-05 3.25e-05 
1 1 1.66867e-06 9.31e-05 4.14e-05 3.52e-05 
9 1 1.73164e-06 7.67e-05 9.3e-06 4.12e-05 
36 1 1.61619e-06 8.22e-05 6.77e-05 6.08e-06 
10 1 1.54273e-06 8.8e-05 9.41e-05 7.47e-06 
32 1 1.5444e-06 5.95664e-05 9.72345e-05 8.65546e-06 
41 1 1.84708e-06 7.9e-05 7.96e-05 1.34e-05 
52 1 1.65068e-06 5.96358e-05 9.799e-05 7.23859e-06 
45 1 1.5952e-06 7.09e-05 5.91e-05 2.22e-05 
20 1 1.44828e-06 9.47e-05 9.17e-05 2.98e-05 
42 1 1.57422e-06 5.23e-05 8.53e-05 3.22e-05 
23 1 1.89955e-06 7.37e-05 9.66e-05 4.38e-05 
ITEM: TIMESTEP
900
ITEM: NUMBER OF ATOMS
60
ITEM: BOX BOUNDS ff ff ff
0.0000000000000000e+00 1.0000000000000000e-04
0.0000000000000000e+00 1.0000000000000000e-04
0.0000000000000000e+00 5.0000000000000002e-05
ITEM: ATOMS id type diameter x y z 
44 1 1.46761e-06 4.23e-05 2.57e-05 2.78e-06 
7 1 1.9005e-06 3.9e-05 3.32e-05 2.62e-06 
15 1 1.82659e-06 4.04e-05 2.6e-05 4.27e-06 
34 1 1.55207e-06 5.49e-06 7.5e-06 6.95e-06 
18 1 1.81603e-06 3.01e-05 3.1e-05 6.74e-06 
13 1 1.79491e-06 2.65e-05 4.03e-05 6.82e-06 
4 1 1.52138e-06 5.11738e-06 7.56494e-06 1.70659e-05 
54 1 1.62608e-06 5.18487e-06 8.2995e-06 1.56883e-05 
25 1 1.52138e-06 1.13674e-05 2.94449e-05 2.17659e-05 
5 1 1.68933e-06 4.3e-05 3.38e-05 2.17e-05 
30 1 1.65765e-06 1.53e-05 1.29e-05 2.24e-05 
24 1 1.57319e-06 1.7e-05 3.89e-05 2.22e-05 
33 1 1.9005e-06 5.3e-06 4.57e-05 2.61e-05 
43 1 1.4899e-06 4.00871e-05 1.38104e-05 2.8401e-05 
55 1 1.62608e-06 1.14349e-05 3.01795e-05 2.03883e-05 
59 1 1.63734e-06 4.0534e-05 1.5048e-05 2.75594e-05 
6 1 1.67877e-06 6.52e-06 8.52e-05 3.64e-06 
49 1 1.4899e-06 7.85708e-06 8.77104e-05 1.0041e-05 
46 1 1.95329e-06 1.88e-05 6.3e-05 1.21e-05 
21 1 1.82659e-06 3.57e-05 5.1e-05 1.25e-05 
31 1 1.55375e-06 4.21664e-05 6.88345e-05 1.84855e-05 
51 1 1.66067e-06 4.22358e-05 6.959e-05 1.70686e-05 
60 1 1.63734e-06 8.30399e-06 8.8948e-05 9.19935e-06 
40 1 1.94273e-06 4.29e-05 8.49e-05 2.59e-05 
28 1 1.86882e-06 4.99e-05 9.17e-05 3.27e-05 
11 1 1.9005e-06 3.47e-05 5.23e-05 4.01e-05 
3 1 1.91105e-06 4.69e-05 7.48e-05 4.26e-05 
48 1 1.58375e-06 4.39e-05 6.8e-05 4.45e-05 
2 1 1.91105e-06 2.67e-05 7.65e-05 4.47e-05 
47 1 1.76324e-06 1.29e-05 6.76e-05 4.5e-05 
16 1 1.7738e-06 4.77e-05 9.06e-05 4.78e-05 
19 1 1.73156e-06 7.72e-05 1.47e-05 3.4e-06 
26 1 1.67877e-06 8.5e-05 2.42e-06 5.23e-06 
22 1 1.49787e-06 6.53872e-05 3.87108e-05 9.64069e-06 
50 1 1.54156e-06 7.93961e-05 3.08877e-05 1.073e-05 
14 1 1.71045e-06 9.06e-05 1.02e-05 1.1e-05 
37 1 1.54565e-06 5.19664e-05 1.18342e-05 1.3586e-05 
12 1 1.66698e-06 5.30899e-05 4.48968e-05 1.79509e-05 
53 1 1.65202e-06 5.20359e-05 1.25903e-05 1.2168e-05 
56 1 1.64609e-06 6.58338e-05 3.99475e-05 8.79966e-06 
57 1 1.62399e-06 7.89934e-05 3.00915e-05 9.43628e-06 
58 1 1.47187e-06 5.29206e-05 4.58443e-05 1.67253e-05 
35 1 1.50984e-06 6.37e-05 1.28e-05 2.11e-05 
17 1 1.68933e-06 9.78e-05 4.11e-05 2.24e-05 
39 1 1.81603e-06 7.95e-05 4.12e-05 2.47e-05 
38 1 1.47816e-06 8.53e-05 4.25e-05 2.72e-05 
27 1 1.44649e-06 9.48e-05 1.07e-05 2.97e-05 
29 1 1.45705e-06 6.79e-05 1.19e-05 3.18e-05 
8 1 1.61542e-06 8.6e-05 2.38e-05 3.25e-05 
1 1 1.67877e-06 9.31e-05 4.14e-05 3.52e-05 
9 1 1.74212e-06 7.67e-05 9.3e-06 4.12e-05 
36 1 1.62598e-06 8.22e-05 6.77e-05 6.08e-06 
10 1 1.55207e-06 8.8e-05 9.41e-05 7.47e-06 
32 1 1.55375e-06 5.95664e-05 9.72345e-05 8.65546e-06 
41 1 1.85826e-06 7.9e-05 7.96e-05 1.34e-05 
52 1 1.66067e-06 5.96358e-05 9.799e-05 7.23859e-06 
45 1 1.60486e-06 7.09e-05 5.91e-05 2.22e-05 
20 1 1.45705e-06 9.47e-05 9.17e-05 2.98e-05 
42 1 1.58375e-06 5.23e-05 8.53e-05 3.22e-05 
23 1 1.91105e-06 7.37e-05 9.66e-05 4.38e-05 
ITEM: TIMESTEP
1000
ITEM: NUMBER OF ATOMS
60
ITEM: BOX BOUNDS ff ff ff
0.0000000000000000e+00 1.0000000000000000e-04
0.0000000000000000e+00 1.0000000000000000e-04
0.0000000000000000e+00 5.0000000000000002e-05
ITEM: ATOMS id type diameter x y z 
44 1 1.47649e-06 4.23e-05 2.57e-05 2.78e-06 
7 1 1.912e-06 3.9e-05 3.32e-05 2.62e-06 
15 1 1.83765e-06 4.04e-05 2.6e-05 4.27e-06 
34 1 1.56147e-06 5.49e-06 7.5e-06 6.95e-06 
18 1 1.82702e-06 3.01e-05 3.1e-05 6.74e-06 
13 1 1.80578e-06 2.65e-05 4.03e-05 6.82e-06 
54 1 1.63592e-06 5.18487e-06 8.2995e-06 1.56883e-05 
4 1 1.53059e-06 5.11738e-06 7.56494e-06 1.70659e-05 
55 1 1.63592e-06 1.14349e-05 3.01795e-05 2.03883e-05 
25 1 1.53059e-06 1.13674e-05 2.94449e-05 2.17659e-05 
5 1 1.69956e-06 4.3e-05 3.38e-05 2.17e-05 
30 1 1.66769e-06 1.53e-05 1.29e-05 2.24e-05 
24 1 1.58271e-06 1.7e-05 3.89e-05 2.22e-05 
33 1 1.912e-06 5.3e-06 4.57e-05 2.61e-05 
59 1 1.64725e-06 4.0534e-05 1.5048e-05 2.75594e-05 
43 1 1.49892e-06 4.00871e-05 1.38104e-05 2.8401e-05 
6 1 1.68894e-06 6.52e-06 8.52e-05 3.64e-06 
60 1 1.64725e-06 8.30399e-06 8.8948e-05 9.19935e-06 
49 1 1.49892e-06 7.85708e-06 8.77104e-05 1.0041e-05 
46 1 1.96511e-06 1.88e-05 6.3e-05 1.21e-05 
21 1 1.83765e-06 3.57e-05 5.1e-05 1.25e-05 
51 1 1.67073e-06 4.22358e-05 6.959e-05 1.70686e-05 
31 1 1.56315e-06 4.21664e-05 6.88345e-05 1.84855e-05 
40 1 1.95449e-06 4.29e-05 8.49e-05 2.59e-05 
28 1 1.88014e-06 4.99e-05 9.17e-05 3.27e-05 
11 1 1.912e-06 3.47e-05 5.23e-05 4.01e-05 
3 1 1.92263e-06 4.69e-05 7.48e-05 4.26e-05 
48 1 1.59334e-06 4.39e-05 6.8e-05 4.45e-05 
2 1 1.92263e-06 2.67e-05 7.65e-05 4.47e-05 
47 1 1.77391e-06 1.29e-05 6.76e-05 4.5e-05 
16 1 1.78454e-06 4.77e-05 9.06e-05 4.78e-05 
19 1 1.74205e-06 7.72e-05 1.47e-05 3.4e-06 
26 1 1.68894e-06 8.5e-05 2.42e-06 5.23e-06 
56 1 1.65606e-06 6.58338e-05 3.99475e-05 8.79966e-06 
57 1 1.63382e-06 7.89934e-05 3.00915e-05 9.43628e-06 
22 1 1.50694e-06 6.53872e-05 3.87108e-05 9.64069e-06 
14 1 1.7208e-06 9.06e-05 1.02e-05 1.1e-05 
50 1 1.55089e-06 7.93961e-05 3.08877e-05 1.073e-05 
53 1 1.66203e-06 5.20359e-05 1.25903e-05 1.2168e-05 
37 1 1.55501e-06 5.19664e-05 1.18342e-05 1.3586e-05 
58 1 1.48079e-06 5.29206e-05 4.58443e-05 1.67253e-05 
12 1 1.67707e-06 5.30899e-05 4.48968e-05 1.79509e-05 
35 1 1.51898e-06 6.37e-05 1.28e-05 2.11e-05 
17 1 1.69956e-06 9.78e-05 4.11e-05 2.24e-05 
39 1 1.82703e-06 7.95e-05 4.12e-05 2.47e-05 
38 1 1.48711e-06 8.53e-05 4.25e-05 2.72e-05 
27 1 1.45525e-06 9.48e-05 1.07e-05 2.97e-05 
29 1 1.46587e-06 6.79e-05 1.19e-05 3.18e-05 
8 1 1.6252e-06 8.6e-05 2.38e-05 3.25e-05 
1 1 1.68894e-06 9.31e-05 4.14e-05 3.52e-05 
9 1 1.75267e-06 7.67e-05 9.3e-06 4.12e-05 
36 1 1.63582e-06 8.22e-05 6.77e-05 6.08e-06 
10 1 1.56147e-06 8.8e-05 9.41e-05 7.47e-06 
52 1 1.67073e-06 5.96358e-05 9.799e-05 7.23859e-06 
32 1 1.56315e-06 5.95664e-05 9.72345e-05 8.65546e-06 
41 1 1.86951e-06 7.9e-05 7.96e-05 1.34e-05 
45 1 1.61458e-06 7.09e-05 5.91e-05 2.22e-05 
20 1 1.46587e-06 9.47e-05 9.17e-05 2.98e-05 
42 1 1.59334e-06 5.23e-05 8.53e-05 3.22e-05 
23 1 1.92263e-06 7.37e-05 9.66e-05 4.38e-05 
ITEM: TIMESTEP
1100
ITEM: NUMBER OF ATOMS
61
ITEM: BOX BOUNDS ff ff ff
0.0000000000000000e+00 1.0000000000000000e-04
0.0000000000000000e+00 1.0000000000000000e-04
0.0000000000000000e+00 5.0000000000000002e-05
ITEM: ATOMS id type diameter x y z 
44 1 1.48543e-06 4.23e-05 2.57e-05 2.78e-06 
7 1 1.92358e-06 3.9e-05 3.32e-05 2.62e-06 
15 1 1.84877e-06 4.04e-05 2.6e-05 4.27e-06 
34 1 1.57092e-06 5.49e-06 7.5e-06 6.95e-06 
18 1 1.83809e-06 3.01e-05 3.1e-05 6.74e-06 
13 1 1.81671e-06 2.65e-05 4.03e-05 6.82e-06 
54 1 1.64583e-06 5.18573e-06 8.3089e-06 1.56707e-05 
4 1 1.53986e-06 5.11651e-06 7.55553e-06 1.70835e-05 
55 1 1.64583e-06 1.14357e-05 3.01889e-05 2.03707e-05 
25 1 1.53986e-06 1.13665e-05 2.94355e-05 2.17835e-05 
5 1 1.70985e-06 4.3e-05 3.38e-05 2.17e-05 
30 1 1.67779e-06 1.53e-05 1.29e-05 2.24e-05 
24 1 1.5923e-06 1.7e-05 3.89e-05 2.22e-05 