 NUFEB Simulation

     100 atoms 
     2 atom types 
     4 nutrients 

  0.0e-4   1.00e-04  xlo xhi 
  0.0e-4   1.00e-04  ylo yhi 
  0.0e-4   1.00e-04  zlo zhi 

 Atoms 

     1 1 1.54e-06  370 7.14e-05 6.26e-05 3.99e-05 1.54e-06 
     2 1 1.83e-06  370 9.15e-05 4.05e-05 8.25e-05 1.83e-06 
     3 1 1.67e-06  370 4.46e-05 1.53e-05 3.72e-06 1.67e-06 
     4 1 1.63e-06  370 7.20e-05 3.78e-05 3.20e-05 1.63e-06 
     5 1 1.77e-06  370 1.75e-05 2.35e-05 6.92e-05 1.77e-06 
     6 1 1.84e-06  370 5.46e-05 1.45e-05 6.58e-05 1.84e-06 
     7 1 1.54e-06  370 3.61e-05 7.31e-05 7.08e-06 1.54e-06 
     8 1 1.93e-06  370 5.29e-05 1.33e-05 4.60e-05 1.93e-06 
     9 1 1.74e-06  370 9.03e-05 3.23e-05 5.95e-05 1.74e-06 
     10 1 1.65e-06  370 5.06e-05 5.19e-05 7.52e-05 1.65e-06 
     11 1 1.66e-06  370 1.23e-05 6.49e-05 8.40e-06 1.66e-06 
     12 1 1.57e-06  370 2.90e-05 8.85e-05 4.55e-05 1.57e-06 
     13 1 1.39e-06  370 1.92e-05 7.53e-05 5.09e-05 1.39e-06 
     14 1 1.69e-06  370 9.01e-05 7.09e-06 3.43e-05 1.69e-06 
     15 1 1.71e-06  370 4.53e-05 7.77e-05 8.92e-05 1.71e-06 
     16 1 1.70e-06  370 2.22e-05 7.52e-05 1.23e-05 1.70e-06 
     17 1 1.68e-06  370 2.60e-05 4.31e-05 6.74e-05 1.68e-06 
     18 1 1.45e-06  370 6.86e-05 8.32e-05 9.30e-06 1.45e-06 
     19 1 1.39e-06  370 2.47e-05 6.74e-05 4.34e-05 1.39e-06 
     20 1 1.68e-06  370 1.72e-05 5.71e-06 8.97e-05 1.68e-06 
     21 1 1.83e-06  370 5.32e-05 1.57e-05 1.82e-05 1.83e-06 
     22 1 1.47e-06  370 4.45e-05 7.30e-05 6.03e-05 1.47e-06 
     23 1 1.51e-06  370 5.23e-05 6.49e-05 2.26e-05 1.51e-06 
     24 1 1.47e-06  370 4.14e-05 6.11e-05 5.48e-05 1.47e-06 
     25 1 1.83e-06  370 8.46e-05 6.66e-05 7.05e-06 1.83e-06 
     26 1 1.82e-06  370 8.95e-05 9.25e-05 4.11e-05 1.82e-06 
     27 1 1.52e-06  370 1.03e-05 6.75e-05 1.97e-05 1.52e-06 
     28 1 1.57e-06  370 6.10e-05 1.99e-05 1.48e-05 1.57e-06 
     29 1 1.44e-06  370 1.50e-05 3.79e-05 5.44e-05 1.44e-06 
     30 1 1.45e-06  370 1.70e-05 6.50e-05 5.73e-05 1.45e-06 
     31 1 1.46e-06  370 1.91e-05 1.53e-05 6.61e-05 1.46e-06 
     32 1 1.60e-06  370 2.99e-05 7.43e-05 7.71e-05 1.60e-06 
     33 1 1.74e-06  370 4.29e-05 6.56e-05 2.98e-05 1.74e-06 
     34 1 1.49e-06  370 2.24e-05 3.10e-05 7.30e-05 1.49e-06 
     35 1 1.41e-06  370 2.81e-05 6.49e-05 5.11e-05 1.41e-06 
     36 1 1.93e-06  370 4.77e-05 3.60e-05 1.18e-05 1.93e-06 
     37 1 1.60e-06  370 8.98e-05 3.77e-05 6.87e-05 1.60e-06 
     38 1 1.65e-06  370 8.54e-05 6.02e-05 6.21e-05 1.65e-06 
     39 1 1.64e-06  370 9.36e-05 1.59e-05 3.23e-05 1.64e-06 
     40 1 1.61e-06  370 2.59e-05 6.82e-05 9.21e-05 1.61e-06 
     41 1 1.81e-06  370 2.44e-05 5.56e-05 9.00e-05 1.81e-06 
     42 1 1.49e-06  370 9.01e-05 5.74e-05 6.82e-05 1.49e-06 
     43 1 1.49e-06  370 2.04e-05 8.49e-06 8.46e-05 1.49e-06 
     44 1 1.85e-06  370 5.78e-05 7.77e-06 1.02e-05 1.85e-06 
     45 1 1.46e-06  370 2.74e-05 3.46e-05 8.37e-05 1.46e-06 
     46 1 1.78e-06  370 2.52e-05 5.93e-05 3.83e-05 1.78e-06 
     47 1 1.63e-06  370 8.13e-05 2.61e-05 3.78e-05 1.63e-06 
     48 1 1.63e-06  370 3.79e-06 4.45e-05 3.11e-05 1.63e-06 
     49 1 1.49e-06  370 1.72e-05 5.15e-05 2.73e-05 1.49e-06 
     50 1 1.62e-06  370 2.55e-05 3.18e-06 6.92e-05 1.62e-06 
     51 1 1.63e-06  370 5.35e-05 9.05e-05 4.44e-05 1.63e-06 
     52 1 1.86e-06  370 1.36e-05 5.07e-05 9.75e-05 1.86e-06 
     53 1 1.42e-06  370 5.09e-05 8.28e-05 7.54e-05 1.42e-06 
     54 1 1.57e-06  370 4.34e-05 4.27e-05 8.93e-05 1.57e-06 
     55 1 1.62e-06  370 9.52e-05 4.63e-05 8.82e-05 1.62e-06 
     56 1 1.79e-06  370 3.07e-05 8.20e-05 2.41e-05 1.79e-06 
     57 1 1.85e-06  370 1.04e-05 5.05e-05 8.43e-05 1.85e-06 
     58 1 1.44e-06  370 8.57e-05 2.38e-05 4.46e-05 1.44e-06 
     59 1 1.65e-06  370 9.73e-05 2.36e-05 5.81e-05 1.65e-06 
     60 1 1.39e-06  370 3.44e-06 7.06e-05 4.56e-06 1.39e-06 
     61 1 1.86e-06  370 5.27e-05 6.97e-05 7.31e-05 1.86e-06 
     62 1 1.77e-06  370 5.95e-05 2.11e-05 5.27e-06 1.77e-06 
     63 1 1.64e-06  370 9.60e-05 7.78e-05 8.97e-05 1.64e-06 
     64 1 1.61e-06  370 6.01e-05 4.20e-06 5.45e-06 1.61e-06 
     65 1 1.70e-06  370 9.20e-06 8.03e-05 6.17e-05 1.70e-06 
     66 1 1.38e-06  370 1.01e-05 4.83e-05 3.44e-05 1.38e-06 
     67 1 1.57e-06  370 4.75e-05 2.55e-05 1.50e-05 1.57e-06 
     68 1 1.49e-06  370 7.68e-05 3.92e-05 5.46e-05 1.49e-06 
     69 1 1.89e-06  370 9.39e-05 8.85e-05 5.99e-05 1.89e-06 
     70 1 1.68e-06  370 5.30e-05 2.81e-05 6.42e-06 1.68e-06 
     71 1 1.67e-06  370 7.87e-05 3.25e-05 2.73e-05 1.67e-06 
     72 1 1.87e-06  370 5.41e-06 4.95e-05 6.45e-05 1.87e-06 
     73 1 1.57e-06  370 2.26e-05 1.49e-05 4.54e-05 1.57e-06 
     74 1 1.42e-06  370 9.80e-05 8.34e-05 3.33e-05 1.42e-06 
     75 1 1.92e-06  370 4.21e-05 7.88e-05 5.87e-05 1.92e-06 
     76 1 1.92e-06  370 4.21e-05 8.66e-05 2.65e-05 1.92e-06 
     77 1 1.83e-06  370 8.24e-05 3.06e-05 6.20e-05 1.83e-06 
     78 1 1.58e-06  370 3.39e-05 3.34e-05 1.59e-05 1.58e-06 
     79 1 1.56e-06  370 4.60e-06 2.61e-05 4.79e-05 1.56e-06 
     80 1 1.58e-06  370 3.12e-05 9.77e-05 2.74e-05 1.58e-06 
     81 1 1.71e-06  370 5.88e-05 2.34e-05 4.87e-05 1.71e-06 
     82 1 1.66e-06  370 7.87e-05 4.31e-05 1.78e-05 1.66e-06 
     83 1 1.69e-06  370 9.32e-05 1.65e-05 9.26e-05 1.69e-06 
     84 1 1.38e-06  370 3.95e-05 4.70e-05 9.60e-05 1.38e-06 
     85 1 1.66e-06  370 7.35e-05 9.82e-05 2.78e-05 1.66e-06 
     86 1 1.67e-06  370 9.04e-05 6.78e-05 5.12e-05 1.67e-06 
     87 1 1.89e-06  370 2.56e-05 7.47e-05 7.19e-05 1.89e-06 
     88 1 1.44e-06  370 4.82e-05 6.25e-05 2.22e-05 1.44e-06 
     89 1 1.68e-06  370 3.73e-05 9.79e-05 9.05e-05 1.68e-06 
     90 1 1.79e-06  370 4.74e-05 4.00e-05 4.95e-05 1.79e-06 
     91 1 1.51e-06  370 5.03e-05 8.45e-05 9.21e-05 1.51e-06 
     92 1 1.69e-06  370 3.45e-05 1.38e-05 2.03e-05 1.69e-06 
     93 1 1.58e-06  370 1.91e-05 3.83e-05 6.59e-05 1.58e-06 
     94 1 1.49e-06  370 8.56e-06 4.91e-05 9.42e-05 1.49e-06 
     95 1 1.90e-06  370 2.61e-05 5.68e-06 2.50e-05 1.90e-06 
     96 1 1.73e-06  370 5.68e-06 4.65e-05 9.03e-05 1.73e-06 
     97 1 1.45e-06  370 6.19e-05 6.98e-05 8.47e-05 1.45e-06 
     98 1 1.61e-06  370 6.27e-05 1.03e-05 4.98e-06 1.61e-06 
     99 1 1.76e-06  370 3.16e-06 3.64e-05 4.44e-05 1.76e-06 
     100 1 1.56e-06  370 6.12e-05 4.28e-05 5.13e-05 1.56e-06 

 Nutrients 

     1 sub g nn nn nn 1.00e-01 1.00e-01 
     2 o2 l nn nn nd 9.00e-03 9.00e-03 
     3 suc l nn nn nn 3.42e-20 3.42e-20 
     4 co2 l nn nn nd 2.99e-02 2.99e-02 

 Type Name 

     1 cyano  
     2 ecw  

 Diffusion Coeffs 

     sub 0 
     o2 2.3e-09 
     suc 5.2e-10 
     co2 1.9e-09 

 Growth Rate 

     cyano 1.89e-05 
     ecw 6.71e-05 

 Ks 

     cyano 0.00035 0.0002 0.01 0.000138 
     ecw 0 0.001 3.6 0.05 

 Yield 

     cyano 0.55 
     ecw 0.43 

 Maintenance 

     cyano 0 
     ecw 9.5e-07 

 Decay 

     cyano 0 
     ecw 0 



