LAMMPS (20 Nov 2019)
Reading data file ...
  orthogonal box = (0 0 0) to (0.0001 0.0001 0.0001)
  2 by 4 by 4 MPI processor grid
  reading atoms ...
  100 atoms
  4 nutrients
Lattice spacing in x,y,z = 100 100 100
100 atoms in group CYANO
0 atoms in group ECW
Model is defined as a closed system. 
Neighbor list info ...
  update every 1 steps, delay 0 steps, check yes
  max neighbors/atom: 5000, page size: 100000
  master list distance cutoff = 2.43e-06
  ghost atom cutoff = 2.43e-06
  binsize = 1.215e-06, bins = 83 83 83
  1 neighbor lists, perpetual/occasional/extra = 1 0 0
  (1) pair gran/hooke/history, perpetual
      attributes: half, newton off, size, history
      pair build: half/size/bin/newtoff
      stencil: half/bin/3d/newtoff
      bin: standard
Setting up Verlet run ...
  Unit style    : lj
  Current step  : 0
  Time step     : 10
Per MPI rank memory allocation (min/avg/max) = 5.856 | 9.47 | 10.91 Mbytes
Step CPU Atoms c_myNtypes[1] c_myNtypes[2] c_myMass[1] c_myMass[2] c_myCon[1] c_myCon[2] c_myCon[3] c_myCon[4] 
       0            0      100          100            0 8.7506545e-14            0          0.1        0.009     3.42e-20       0.0299 
number of iterations: 123993 
     100    1.3270039      100          100            0 8.9179858e-14            0          0.1  0.009000439 2.8024856e-06  0.029899269 
number of iterations: 109491 
     200    2.4547834      100          100            0 9.0885168e-14            0          0.1 0.0090004474 7.1206679e-06  0.029899255 
number of iterations: 97636 
     300    3.4819171      100          100            0 9.2623087e-14            0          0.1 0.0090004559 1.3765953e-05  0.029899241 
number of iterations: 87007 
     400    4.4013794      102          102            0 9.439424e-14            0          0.1 0.0090004647 2.4004629e-05  0.029899226 
number of iterations: 76987 
     500    5.2261044      104          104            0 9.619926e-14            0          0.1 0.0090004735 3.9842058e-05  0.029899212 
number of iterations: 67228 
     600    6.0223834      105          105            0 9.8038796e-14            0          0.1 0.0090004826 6.4523741e-05  0.029899197 
number of iterations: 57632 
     700    6.6548374      107          107            0 9.9913508e-14            0          0.1 0.0090004902 0.00010349884  0.029899184 
number of iterations: 47604 
     800    7.1946388      107          107            0 1.0182407e-13            0          0.1 0.0090004996 0.00016644044  0.029899168 
number of iterations: 38048 
     900    7.6437683      108          108            0 1.0377116e-13            0          0.1 0.0090005091 0.0002668899  0.029899152 
number of iterations: 28920 
    1000    8.0030105      110          110            0 1.0575549e-13            0          0.1 0.0090005189 0.00042594957  0.029899136 
number of iterations: 18890 
    1100    8.2641477      112          112            0 1.0777776e-13            0          0.1 0.0090005288 0.00069617884   0.02989912 
number of iterations: 13961 
    1200    8.4731052      117          117            0 1.098387e-13            0          0.1 0.0090005386 0.0010577463  0.029899103 
number of iterations: 13502 
    1300    8.6762462      118          118            0 1.1193906e-13            0          0.1 0.0090005489 0.0015052487  0.029899086 
number of iterations: 13552 
    1400    8.8728458      119          119            0 1.1407957e-13            0          0.1 0.0090005594 0.0020189789  0.029899069 
number of iterations: 13609 
    1500    9.0675022      119          119            0 1.1626102e-13            0          0.1 0.0090005701 0.0025900406  0.029899051 
number of iterations: 13670 
    1600    9.2605527      121          121            0 1.1848418e-13            0          0.1  0.009000581 0.0032129683  0.029899033 
number of iterations: 13732 
    1700    9.4538253      122          122            0 1.2074985e-13            0          0.1 0.0090005921 0.0038874797  0.029899014 
number of iterations: 13793 
    1800    9.6448197      124          124            0 1.2305884e-13            0          0.1 0.0090006036 0.0046144185  0.029898995 
number of iterations: 13854 
    1900    9.8363219      125          125            0 1.2541199e-13            0          0.1 0.0090006151 0.0053941361  0.029898976 
number of iterations: 13916 
    2000    10.030083      127          127            0 1.2781014e-13            0          0.1 0.0090006269 0.0062277751  0.029898956 
number of iterations: 13977 
    2100    10.219607      128          128            0 1.3025414e-13            0          0.1 0.0090006389 0.0071167585  0.029898936 
number of iterations: 14039 
    2200    10.408252      128          128            0 1.3274488e-13            0          0.1 0.0090006511 0.0080627675  0.029898916 
number of iterations: 14100 
    2300    10.598453      130          130            0 1.3528325e-13            0          0.1 0.0090006635 0.0090676218  0.029898895 
number of iterations: 14161 
    2400    10.790181      132          132            0 1.3787015e-13            0          0.1 0.0090006762  0.010133298  0.029898874 
number of iterations: 14223 
    2500    10.980278      135          135            0 1.4050653e-13            0          0.1 0.0090006892  0.011248212  0.029898853 
number of iterations: 14284 
    2600    11.169918      139          139            0 1.4319331e-13            0          0.1 0.0090007023  0.012410453  0.029898831 
number of iterations: 14345 
    2700    11.360227      142          142            0 1.4593148e-13            0          0.1 0.0090007158  0.013620411  0.029898808 
number of iterations: 14407 
    2800    11.552359      145          145            0  1.48722e-13            0          0.1 0.0090007295  0.014878741  0.029898785 
number of iterations: 14468 
    2900    11.746868      148          148            0 1.5156588e-13            0          0.1 0.0090007434  0.016186105  0.029898762 
number of iterations: 14529 
    3000    11.939301      150          150            0 1.5446415e-13            0          0.1 0.0090007576  0.017543187  0.029898739 
number of iterations: 14591 
    3100    12.130376      154          154            0 1.5741783e-13            0          0.1 0.0090007721  0.018950728  0.029898714 
number of iterations: 14652 
    3200    12.325559      156          156            0  1.60428e-13            0          0.1 0.0090007872  0.020410941  0.029898689 
number of iterations: 14714 
    3300    12.521693      159          159            0 1.6349573e-13            0          0.1 0.0090008022  0.021923135  0.029898664 
number of iterations: 14775 
    3400     12.71539      161          161            0 1.6662211e-13            0          0.1 0.0090008176  0.023488365  0.029898639 
number of iterations: 15344 
    3500    12.914685      161          161            0 1.6980829e-13            0          0.1 0.0090008377  0.025111426  0.029898605 
number of iterations: 14908 
    3600    13.108797      164          164            0 1.7305538e-13            0          0.1 0.0090008537  0.026789348  0.029898579 
number of iterations: 14969 
    3700    13.303776      169          169            0 1.7636457e-13            0          0.1 0.0090008697  0.028525406  0.029898552 
number of iterations: 15031 
    3800    13.499039      173          173            0 1.7973704e-13            0          0.1 0.0090008863  0.030319246  0.029898524 
number of iterations: 16488 
    3900    13.712105      176          176            0  1.83174e-13            0          0.1 0.0090009097  0.032174865  0.029898485 
number of iterations: 14597 
    4000    13.905925      180          180            0 1.8667668e-13            0          0.1 0.0090009271  0.034090364  0.029898456 
number of iterations: 15238 
    4100    14.102984      181          181            0 1.9024634e-13            0          0.1 0.0090009449  0.036066891  0.029898427 
number of iterations: 15352 
    4200     14.30111      183          183            0 1.9388426e-13            0          0.1  0.009000963  0.038106001  0.029898397 
number of iterations: 16328 
    4300    14.512016      187          187            0 1.9759174e-13            0          0.1  0.009000982   0.04020854  0.029898365 
number of iterations: 16153 
    4400    14.719984      194          194            0 2.0137011e-13            0          0.1 0.0090010026  0.042376506  0.029898331 
number of iterations: 15520 
    4500    14.919531      201          201            0 2.0522074e-13            0          0.1 0.0090010218  0.044610868  0.029898299 
number of iterations: 15582 
    4600     15.11848      206          206            0  2.09145e-13            0          0.1 0.0090010413  0.046912339  0.029898266 
number of iterations: 15643 
    4700    15.319176      209          209            0 2.131443e-13            0          0.1 0.0090010612   0.04928275  0.029898233 
number of iterations: 15704 
    4800    15.565893      211          211            0 2.1722008e-13            0          0.1 0.0090010815  0.051723123  0.029898199 
number of iterations: 13699 
    4900    15.781057      217          217            0 2.2137379e-13            0          0.1 0.0090011005  0.054235328  0.029898168 
number of iterations: 15801 
    5000    15.987312      224          224            0 2.2560693e-13            0          0.1 0.0090011215   0.05682029  0.029898133 
number of iterations: 15860 
    5100    16.191677      228          228            0 2.2992102e-13            0          0.1  0.009001143  0.059479843  0.029898097 
number of iterations: 15921 
    5200    16.400057      233          233            0 2.343176e-13            0          0.1 0.0090011648   0.06221536  0.029898061 
number of iterations: 15983 
    5300    16.603876      235          235            0 2.3879826e-13            0          0.1 0.0090011871  0.065028693  0.029898023 
number of iterations: 15751 
    5400    16.807556      238          238            0 2.4336459e-13            0          0.1 0.0090012065  0.067920308  0.029897991 
number of iterations: 16100 
    5500    17.014107      244          244            0 2.4801824e-13            0          0.1 0.0090012295  0.070892509  0.029897953 
number of iterations: 15925 
    5600    17.217712      252          252            0 2.5276088e-13            0          0.1 0.0090012485  0.073946537  0.029897921 
number of iterations: 16218 
    5700    17.424543      258          258            0 2.5759421e-13            0          0.1 0.0090012727  0.077085218  0.029897881 
number of iterations: 16280 
    5800    17.630968      262          262            0 2.6251996e-13            0          0.1  0.009001297   0.08031015   0.02989784 
number of iterations: 16341 
    5900    17.838605      267          267            0 2.6753991e-13            0          0.1 0.0090013216  0.083526149  0.029897799 
number of iterations: 16402 
    6000    18.050207      271          271            0 2.7265584e-13            0          0.1 0.0090013469  0.086826643  0.029897757 
number of iterations: 16464 
    6100    18.261855      276          276            0 2.778696e-13            0          0.1 0.0090013727  0.090213975  0.029897714 
number of iterations: 16525 
    6200    18.472756      280          280            0 2.8318307e-13            0          0.1 0.0090013989  0.093689263  0.029897671 
number of iterations: 16587 
    6300    18.685417      282          282            0 2.8859813e-13            0          0.1 0.0090014257  0.097254909  0.029897626 
number of iterations: 16648 
    6400    18.897299      286          286            0 2.9411674e-13            0          0.1 0.0090014529    0.1009127  0.029897581 
number of iterations: 16709 
    6500    19.110789      292          292            0 2.9974089e-13            0          0.1 0.0090014808   0.10466451  0.029897534 
number of iterations: 16677 
    6600    19.322899      296          296            0 3.0547257e-13            0          0.1 0.0090015077   0.10851194   0.02989749 
number of iterations: 16830 
    6700    19.537402      300          300            0 3.1131386e-13            0          0.1 0.0090015363   0.11245686  0.029897442 
number of iterations: 16892 
    6800    19.753874      303          303            0 3.1726685e-13            0          0.1 0.0090015656    0.1165004  0.029897393 
number of iterations: 16953 
    6900    19.971065      308          308            0 3.2333367e-13            0          0.1 0.0090015956   0.12062126  0.029897343 
number of iterations: 17014 
    7000    20.190739      317          317            0 3.295165e-13            0          0.1 0.0090016259   0.12482091  0.029897293 
number of iterations: 17076 
    7100    20.406925      323          323            0 3.3581756e-13            0          0.1  0.009001657   0.12910087  0.029897241 
number of iterations: 17137 
    7200    20.624157      328          328            0 3.4223911e-13            0          0.1 0.0090016887   0.13346267  0.029897188 
number of iterations: 17445 
    7300    20.846724      335          335            0 3.4878345e-13            0          0.1  0.009001721   0.13790788  0.029897134 
number of iterations: 16995 
    7400     21.06092      341          341            0 3.5545294e-13            0          0.1 0.0090017539   0.14243809   0.02989708 
number of iterations: 16777 
    7500    21.273124      351          351            0 3.6224996e-13            0          0.1 0.0090017876   0.14705493  0.029897024 
number of iterations: 17373 
    7600    21.493295      360          360            0 3.6917695e-13            0          0.1 0.0090018218   0.15176005  0.029896967 
number of iterations: 17338 
    7700    21.712551      365          365            0 3.762364e-13            0          0.1 0.0090018572   0.15655515  0.029896908 
number of iterations: 18381 
    7800    21.945787      376          376            0 3.8343084e-13            0          0.1 0.0090018948   0.16144194  0.029896845 
number of iterations: 17574 
    7900    22.168412      386          386            0 3.9076286e-13            0          0.1 0.0090019311   0.16642218  0.029896785 
number of iterations: 16586 
    8000    22.381105      395          395            0 3.9823508e-13            0          0.1 0.0090019662   0.17149765  0.029896726 
number of iterations: 17681 
    8100    22.605016      399          399            0 4.0585019e-13            0          0.1 0.0090020038   0.17667017  0.029896664 
number of iterations: 17827 
    8200    22.829945      408          408            0 4.1361091e-13            0          0.1 0.0090020405    0.1819416  0.029896602 
number of iterations: 17805 
    8300     23.05446      415          415            0 4.2152003e-13            0          0.1 0.0090020796   0.18731383  0.029896537 
number of iterations: 17866 
    8400    23.280166      420          420            0 4.2958039e-13            0          0.1 0.0090021193   0.19278879  0.029896471 
number of iterations: 18380 
    8500    23.512127      430          430            0 4.3779489e-13            0          0.1 0.0090021604   0.19836844  0.029896403 
number of iterations: 17998 
    8600    23.739836      439          439            0 4.4616646e-13            0          0.1 0.0090022017   0.20405478  0.029896334 
number of iterations: 18059 
    8700    23.966869      446          446            0 4.5469811e-13            0          0.1 0.0090022438   0.20984986  0.029896264 
Loop time of 23.9669 on 32 procs for 8700 steps with 446 atoms

Performance: 313632698.557 tau/day, 363.001 timesteps/s
98.5% CPU use with 32 MPI tasks x no OpenMP threads

MPI task timing breakdown:
Section |  min time  |  avg time  |  max time  |%varavg| %total
---------------------------------------------------------------
Pair    | 0.00041391 | 0.0023123  | 0.005357   |   2.8 |  0.01
Neigh   | 0.0010541  | 0.0019842  | 0.0047905  |   1.8 |  0.01
Comm    | 0.0092492  | 0.028839   | 0.050646   |   7.1 |  0.12
Output  | 0.88046    | 0.88086    | 0.88222    |   0.0 |  3.68
Modify  | 22.995     | 23         | 23.005     |   0.0 | 95.97
Other   |            | 0.05259    |            |       |  0.22

Nlocal:    13.9375 ave 41 max 0 min
Histogram: 8 3 6 6 1 3 0 3 0 2
Nghost:    5.25 ave 15 max 0 min
Histogram: 11 3 2 4 3 0 2 2 1 4
Neighs:    15.0312 ave 46 max 0 min
Histogram: 8 4 7 3 2 2 3 0 2 1

Total # of neighbors = 481
Ave neighs/atom = 1.07848
Neighbor list builds = 102
Dangerous builds = 0
Total wall time: 0:00:24
