 NUFEB Simulation

     50 atoms 
     2 atom types 
     4 nutrients 

  0.0e-4   1.00e-04  xlo xhi 
  0.0e-4   1.00e-04  ylo yhi 
  0.0e-4   5.00e-05  zlo zhi 

 Atoms 

     1 1 1.77e-06  370 5.26e-05 2.76e-05 3.29e-05 1.77e-06 
     2 1 1.40e-06  370 7.90e-05 2.06e-05 4.19e-06 1.40e-06 
     3 1 1.40e-06  370 2.95e-05 5.38e-05 3.42e-05 1.40e-06 
     4 1 1.89e-06  370 3.28e-05 3.36e-05 4.55e-05 1.89e-06 
     5 1 1.56e-06  370 5.81e-05 3.19e-05 2.94e-05 1.56e-06 
     6 1 1.47e-06  370 3.74e-05 6.84e-05 2.22e-05 1.47e-06 
     7 1 1.76e-06  370 6.91e-05 2.81e-05 4.50e-05 1.76e-06 
     8 1 1.70e-06  370 5.50e-05 2.29e-05 4.65e-05 1.70e-06 
     9 1 1.54e-06  370 9.55e-05 8.78e-05 1.11e-05 1.54e-06 
     10 1 1.40e-06  370 4.68e-05 2.72e-05 3.32e-05 1.40e-06 
     11 1 1.91e-06  370 9.53e-05 3.54e-06 1.42e-05 1.91e-06 
     12 1 1.64e-06  370 1.12e-05 9.46e-05 3.28e-05 1.64e-06 
     13 1 1.80e-06  370 8.15e-06 2.18e-05 2.62e-05 1.80e-06 
     14 1 1.57e-06  370 5.16e-05 1.43e-05 3.70e-05 1.57e-06 
     15 1 1.81e-06  370 9.50e-05 8.08e-06 4.35e-05 1.81e-06 
     16 1 1.67e-06  370 6.37e-05 9.52e-05 4.13e-05 1.67e-06 
     17 1 1.51e-06  370 3.41e-06 2.23e-05 4.23e-05 1.51e-06 
     18 1 1.54e-06  370 8.71e-05 9.08e-05 9.62e-06 1.54e-06 
     19 1 1.88e-06  370 4.31e-06 4.05e-05 3.27e-05 1.88e-06 
     20 1 1.71e-06  370 7.84e-05 1.03e-05 1.98e-05 1.71e-06 
     21 1 1.88e-06  370 3.96e-05 4.90e-05 5.81e-06 1.88e-06 
     22 1 1.84e-06  370 8.65e-05 9.62e-05 3.59e-05 1.84e-06 
     23 1 1.73e-06  370 7.99e-05 2.48e-06 2.21e-05 1.73e-06 
     24 1 1.77e-06  370 1.61e-05 1.02e-05 4.35e-05 1.77e-06 
     25 1 1.55e-06  370 2.70e-06 5.67e-05 1.04e-05 1.55e-06 
     26 1 1.55e-06  370 8.45e-05 3.44e-05 2.48e-05 1.55e-06 
     27 1 1.63e-06  370 9.42e-05 4.50e-06 1.08e-05 1.63e-06 
     28 1 1.81e-06  370 5.99e-05 5.35e-06 3.61e-05 1.81e-06 
     29 1 1.67e-06  370 1.56e-05 5.69e-05 3.69e-05 1.67e-06 
     30 1 1.81e-06  370 7.12e-06 6.69e-05 3.86e-06 1.81e-06 
     31 1 1.84e-06  370 2.26e-05 9.66e-05 2.28e-05 1.84e-06 
     32 1 1.89e-06  370 7.34e-05 9.07e-05 8.53e-06 1.89e-06 
     33 1 1.41e-06  370 7.05e-05 5.24e-05 4.76e-05 1.41e-06 
     34 1 1.41e-06  370 7.28e-05 7.22e-06 4.46e-05 1.41e-06 
     35 1 1.93e-06  370 7.17e-05 4.50e-05 2.21e-05 1.93e-06 
     36 1 1.55e-06  370 3.55e-05 1.44e-05 2.12e-05 1.55e-06 
     37 1 1.80e-06  370 3.80e-05 5.58e-05 2.60e-05 1.80e-06 
     38 1 1.61e-06  370 3.21e-05 1.48e-05 2.05e-05 1.61e-06 
     39 1 1.52e-06  370 9.57e-05 2.76e-05 1.72e-05 1.52e-06 
     40 1 1.44e-06  370 1.75e-05 9.99e-06 4.82e-05 1.44e-06 
     41 1 1.72e-06  370 2.40e-05 5.56e-05 4.50e-05 1.72e-06 
     42 1 1.81e-06  370 6.96e-05 1.07e-05 3.27e-05 1.81e-06 
     43 1 1.81e-06  370 8.16e-05 7.82e-05 4.54e-05 1.81e-06 
     44 1 1.75e-06  370 5.37e-05 2.92e-05 4.72e-05 1.75e-06 
     45 1 1.87e-06  370 3.87e-05 5.38e-05 4.31e-05 1.87e-06 
     46 1 1.65e-06  370 7.21e-05 3.46e-05 1.39e-05 1.65e-06 
     47 1 1.93e-06  370 7.82e-05 9.08e-06 4.66e-05 1.93e-06 
     48 1 1.52e-06  370 8.73e-05 8.94e-05 2.07e-05 1.52e-06 
     49 1 1.77e-06  370 7.75e-05 9.02e-05 3.73e-05 1.77e-06 
     50 1 1.62e-06  370 8.24e-05 4.59e-05 3.85e-05 1.62e-06 

 Nutrients 

     1 sub g nn nn nn 1.00e-01 1.00e-01 
     2 o2 l nn nn nd 9.00e-03 9.00e-03 
     3 suc l nn nn nn 3.42e-20 3.42e-20 
     4 co2 l nn nn nd 2.99e-02 2.99e-02 

 Type Name 

     1 cyano  
     2 ecw  

 Diffusion Coeffs 

     sub 0 
     o2 2.3e-09 
     suc 5.2e-10 
     co2 1.9e-09 

 Growth Rate 

     cyano 2.047e-05 
     ecw 6.71e-05 

 Ks 

     cyano 0.00035 0.0002 0.01 0.000138 
     ecw 0 0.001 3.6 0.05 

 Yield 

     cyano 0.55 
     ecw 0.43 

 Maintenance 

     cyano 0 
     ecw 9.5e-07 

 Decay 

     cyano 0 
     ecw 0 



