LAMMPS (20 Nov 2019)
Reading data file ...
  orthogonal box = (0 0 0) to (0.0001 0.0001 1e-05)
  8 by 4 by 1 MPI processor grid
  reading atoms ...
  100 atoms
  4 nutrients
Lattice spacing in x,y,z = 100 100 100
50 atoms in group CYANO
50 atoms in group ECW
Model is defined as a closed system. 
Neighbor list info ...
  update every 1 steps, delay 0 steps, check yes
  max neighbors/atom: 5000, page size: 100000
  master list distance cutoff = 2.44e-06
  ghost atom cutoff = 2.44e-06
  binsize = 1.22e-06, bins = 82 82 9
  1 neighbor lists, perpetual/occasional/extra = 1 0 0
  (1) pair gran/hooke/history, perpetual
      attributes: half, newton off, size, history
      pair build: half/size/bin/newtoff
      stencil: half/bin/3d/newtoff
      bin: standard
Setting up Verlet run ...
  Unit style    : lj
  Current step  : 0
  Time step     : 10
Per MPI rank memory allocation (min/avg/max) = 5.789 | 10.92 | 12.11 Mbytes
Step CPU Atoms c_myNtypes[1] c_myNtypes[2] c_myMass[1] c_myMass[2] c_myCon[1] c_myCon[2] c_myCon[3] c_myCon[4] 
       0            0      100           50           50 4.7727279e-14 9.5464724e-15          0.1        0.009     3.42e-20       0.0299 
number of iterations: 325299 
     100    15.851165      134           50           84 4.8359771e-14 9.5398497e-15          0.1 0.0090008498  0.038349869  0.029898584 
number of iterations: 4507 
     200     16.19533      152           50          102 4.9000646e-14 9.5347229e-15          0.1  0.009000861   0.07596844  0.029898566 
number of iterations: 3030 
     300    16.469543      152           50          102 4.9650013e-14 9.5310681e-15          0.1 0.0090008723   0.11404684  0.029898547 
number of iterations: 2281 
     400    16.716516      153           51          102 5.0307985e-14 9.5288698e-15          0.1 0.0090008838   0.15259436  0.029898528 
number of iterations: 1738 
     500    16.922486      154           52          102 5.0974677e-14 9.5281138e-15          0.1 0.0090008954   0.19161871  0.029898508 
number of iterations: 1473 
     600    17.132556      156           54          102 5.1650205e-14 9.5287842e-15          0.1 0.0090009045    0.2311279  0.029898493 
number of iterations: 1418 
     700    17.327396      157           55          102 5.2334684e-14 9.5308691e-15          0.1 0.0090009164   0.27112948  0.029898473 
number of iterations: 1396 
     800    17.508383      157           55          102 5.3028235e-14 9.5343575e-15          0.1 0.0090009285    0.3116308  0.029898453 
number of iterations: 1399 
     900    17.692631      159           57          102 5.3730976e-14 9.5392405e-15          0.1 0.0090009379   0.35263922  0.029898437 
number of iterations: 1402 
    1000    17.894242      159           57          102 5.4443031e-14 9.5455069e-15          0.1 0.0090009503   0.39416215  0.029898416 
number of iterations: 1407 
    1100    18.074105      162           60          102 5.5164522e-14 9.5531492e-15          0.1 0.0090009628   0.43620711  0.029898395 
number of iterations: 1509 
    1200    18.261493      164           62          102 5.5895574e-14 9.5621583e-15          0.1 0.0090009783   0.47878164  0.029898369 
number of iterations: 1436 
    1300    18.458209      165           63          102 5.6636314e-14 9.5725242e-15          0.1 0.0090009912   0.52189326  0.029898348 
number of iterations: 1413 
    1400    18.632956      165           63          102 5.738687e-14 9.5842409e-15          0.1 0.0090010043   0.56554973  0.029898326 
number of iterations: 1416 
    1500     18.96148      166           63          103 5.8147373e-14 9.5973018e-15          0.1 0.0090010176   0.60975883  0.029898304 
number of iterations: 1419 
    1600    19.146896      166           63          103 5.8917955e-14 9.6117009e-15          0.1  0.009001031   0.65452842  0.029898281 
number of iterations: 1428 
    1700    19.322781      167           64          103 5.9698748e-14 9.6274334e-15          0.1 0.0090010446   0.69986651  0.029898259 
number of iterations: 1563 
    1800     19.53417      168           65          103 6.0489889e-14 9.6444939e-15          0.1 0.0090010543   0.74578112  0.029898242 
number of iterations: 1419 
    1900    19.711128      168           65          103 6.1291514e-14 9.6628778e-15          0.1 0.0090010682   0.79228036  0.029898219 
number of iterations: 1422 
    2000    19.924853      169           65          104 6.2103762e-14 9.6825807e-15          0.1 0.0090010823   0.83937249  0.029898196 
number of iterations: 1542 
    2100    20.118398      170           66          104 6.2926774e-14 9.7035999e-15          0.1  0.009001098   0.88706582  0.029898169 
number of iterations: 1429 
    2200    20.299275      171           67          104 6.3760693e-14 9.7259331e-15          0.1 0.0090011097   0.93536879   0.02989815 
number of iterations: 1432 
    2300    20.466074      172           68          104 6.4605663e-14 9.7495749e-15          0.1 0.0090011244   0.98428992  0.029898125 
number of iterations: 1435 
    2400    20.640478      172           68          104 6.5461831e-14 9.7745259e-15          0.1 0.0090011392    1.0338378    0.0298981 
number of iterations: 1455 
    2500    20.822536      173           69          104 6.6329345e-14 9.8007851e-15          0.1 0.0090011502    1.0840213  0.029898082 
number of iterations: 1639 
    2600    21.022469      175           70          105 6.7208356e-14 9.8283516e-15          0.1 0.0090011589    1.1348491  0.029898067 
number of iterations: 1440 
    2700    21.206834      175           70          105 6.8099015e-14 9.8572246e-15          0.1 0.0090011742    1.1863301  0.029898042 
number of iterations: 1443 
    2800    21.379197      177           70          107 6.9001478e-14 9.8874043e-15          0.1 0.0090011898    1.2384735  0.029898016 
number of iterations: 1446 
    2900    21.583358      177           70          107  6.99159e-14 9.918891e-15          0.1 0.0090012055    1.2912884   0.02989799 
number of iterations: 1413 
    3000    21.796409      181           74          107 7.084244e-14 9.9516848e-15          0.1 0.0090012104     1.344784  0.029897981 
number of iterations: 1458 
    3100    21.982673      182           75          107 7.1781259e-14 9.9857872e-15          0.1 0.0090012264    1.3989698  0.029897955 
number of iterations: 1488 
    3200    22.158084      182           75          107 7.273252e-14 1.0021201e-14          0.1 0.0090012426    1.4538551  0.029897928 
number of iterations: 1453 
    3300    22.343558      182           75          107 7.3696386e-14 1.0057928e-14          0.1 0.0090012591    1.5094497    0.0298979 
number of iterations: 1455 
    3400    22.547202      184           75          109 7.4673026e-14 1.0095971e-14          0.1 0.0090012757    1.5657633  0.029897872 
number of iterations: 1458 
    3500    22.715309      185           76          109 7.5662609e-14 1.0135332e-14          0.1 0.0090012926    1.6228057  0.029897844 
number of iterations: 1461 
    3600    22.883414      187           76          111 7.6665306e-14 1.0176017e-14          0.1 0.0090013096    1.6805869  0.029897816 
number of iterations: 1641 
    3700    23.066216      187           76          111 7.7681291e-14 1.0218028e-14          0.1  0.009001331     1.739117   0.02989778 
number of iterations: 1569 
    3800    23.270479      188           77          111 7.8710739e-14 1.0261371e-14          0.1 0.0090013528    1.7984062  0.029897744 
number of iterations: 1466 
    3900    23.445565      189           78          111 7.9753831e-14 1.0306049e-14          0.1 0.0090013643    1.8584648  0.029897724 
number of iterations: 1472 
    4000    23.673436      189           78          111 8.0810745e-14 1.0352067e-14          0.1 0.0090013824    1.9193034  0.029897694 
number of iterations: 1718 
    4100    23.999468      192           81          111 8.1881666e-14 1.0399432e-14          0.1 0.0090014078    1.9809322  0.029897652 
number of iterations: 1478 
    4200    24.177662      192           81          111 8.2966779e-14 1.044815e-14          0.1 0.0090014264    2.0433624  0.029897621 
number of iterations: 1481 
    4300    24.350494      195           81          114 8.4066272e-14 1.0498226e-14          0.1 0.0090014452    2.1066047  0.029897589 
number of iterations: 1483 
    4400    24.548829      195           81          114 8.5180336e-14 1.0549666e-14          0.1 0.0090014644    2.1706701  0.029897557 
number of iterations: 1482 
    4500    24.741075      197           82          115 8.6309163e-14 1.0602476e-14          0.1 0.0090014805      2.23557   0.02989753 
number of iterations: 1488 
    4600    24.955843      198           82          116 8.745295e-14 1.0656663e-14          0.1 0.0090015001    2.3013155  0.029897498 
number of iterations: 1491 
    4700    25.138501      198           82          116 8.8611895e-14 1.0712238e-14          0.1   0.00900152    2.3679181  0.029897464 
number of iterations: 1494 
    4800    25.313563      198           82          116 8.9786198e-14 1.0769207e-14          0.1 0.0090015401    2.4353893  0.029897431 
number of iterations: 1495 
    4900    25.493545      200           83          117 9.0976063e-14 1.0827579e-14          0.1 0.0090015572     2.503741  0.029897402 
number of iterations: 1495 
    5000    25.714122      204           84          120 9.2181697e-14 1.0887364e-14          0.1 0.0090015751    2.5729849  0.029897372 
number of iterations: 1500 
    5100    25.881091      205           85          120 9.3403307e-14 1.094857e-14          0.1 0.0090015959    2.6431332  0.029897338 
number of iterations: 1502 
    5200    26.090873      208           86          122 9.4641107e-14 1.1011208e-14          0.1 0.0090016116    2.7141981  0.029897311 
number of iterations: 1505 
    5300    26.279731      208           86          122 9.5895311e-14 1.1075287e-14          0.1 0.0090016329    2.7861918  0.029897276 
number of iterations: 1650 
    5400    26.481597      209           87          122 9.7166135e-14 1.1140817e-14          0.1 0.0090016581    2.8591272  0.029897234 
number of iterations: 1607 
    5500    26.657417      211           89          122  9.84538e-14 1.1207809e-14          0.1 0.0090016837    2.9330166  0.029897191 
number of iterations: 1606 
    5600    26.834587      213           91          122 9.975853e-14 1.1276273e-14          0.1 0.0090017083    3.0078729   0.02989715 
number of iterations: 1553 
    5700    27.022134      215           92          123 1.0108055e-13 1.1346222e-14          0.1 0.0090017324    3.0837091   0.02989711 
number of iterations: 1635 
    5800    27.207353      219           95          124 1.0242009e-13 1.1417667e-14          0.1 0.0090017634    3.1605382  0.029897058 
number of iterations: 1529 
    5900    27.389955      220           96          124 1.0377738e-13 1.1490621e-14          0.1 0.0090017867    3.2383738  0.029897019 
number of iterations: 1632 
    6000    27.597745      224          100          124 1.0515266e-13 1.1565096e-14          0.1 0.0090018132     3.317229  0.029896975 
number of iterations: 1528 
    6100    27.765592      225          101          124 1.0654617e-13 1.1641106e-14          0.1 0.0090018324    3.3971177  0.029896943 
number of iterations: 1546 
    6200    27.939909      230          104          126 1.0795814e-13 1.1718667e-14          0.1 0.0090018506    3.4780535  0.029896912 
number of iterations: 1549 
    6300    28.116692      233          107          126 1.0938882e-13 1.1797787e-14          0.1 0.0090018731    3.5600506  0.029896875 
number of iterations: 1528 
    6400    28.292474      236          109          127 1.1083846e-13 1.1878484e-14          0.1 0.0090018947    3.6431234  0.029896839 
number of iterations: 1543 
    6500    28.488246      241          113          128 1.1230732e-13 1.1960771e-14          0.1 0.0090019169    3.7272863  0.029896802 
number of iterations: 1660 
    6600    28.671953      244          115          129 1.1379564e-13 1.2044662e-14          0.1 0.0090019341    3.8125539  0.029896773 
number of iterations: 1703 
    6700    28.978087      246          117          129 1.1530368e-13 1.2130172e-14          0.1 0.0090019661    3.8989404   0.02989672 
number of iterations: 1768 
    6800    29.172777      247          118          129 1.1683171e-13 1.2217318e-14          0.1 0.0090019977    3.9864613  0.029896667 
number of iterations: 1560 
    6900    29.341636      248          119          129 1.1837998e-13 1.2306113e-14          0.1 0.0090020241    4.0751317  0.029896623 
number of iterations: 1581 
    7000    29.508663      250          121          129 1.1994878e-13 1.2396578e-14          0.1 0.0090020426    4.1649669  0.029896592 
number of iterations: 1597 
    7100    29.718357      251          122          129 1.2153836e-13 1.2488729e-14          0.1 0.0090020697    4.2559821  0.029896547 
number of iterations: 1592 
    7200    29.906175      259          129          130 1.2314902e-13 1.2582581e-14          0.1 0.0090020984    4.3481938  0.029896499 
number of iterations: 1568 
    7300    30.079571      262          129          133 1.2478101e-13 1.2678151e-14          0.1 0.0090021262    4.4416177  0.029896452 
number of iterations: 1571 
    7400    30.253169      265          130          135 1.2643463e-13 1.2775457e-14          0.1 0.0090021543    4.5362698  0.029896405 
number of iterations: 1574 
    7500    30.433605      269          133          136 1.2811017e-13 1.2874519e-14          0.1 0.0090021829    4.6321667  0.029896358 
number of iterations: 1586 
    7600     30.61024      271          135          136 1.2980791e-13 1.2975352e-14          0.1 0.0090022118     4.729325  0.029896309 
number of iterations: 1585 
    7700    30.787616      277          139          138 1.3152815e-13 1.3077978e-14          0.1 0.0090022348    4.8277609  0.029896271 
number of iterations: 1626 
    7800    30.967252      281          141          140 1.3327119e-13 1.3182414e-14          0.1 0.0090022673    4.9274918  0.029896217 
number of iterations: 1585 
    7900    31.158534      282          142          140 1.3503733e-13 1.328868e-14          0.1 0.0090022973    5.0285351  0.029896166 
number of iterations: 1603 
    8000    31.326455      285          142          143 1.3682687e-13 1.3396797e-14          0.1 0.0090023293    5.1309081  0.029896113 
number of iterations: 1640 
    8100    31.571194      289          144          145 1.3864012e-13 1.3506788e-14          0.1 0.0090023646    5.2346289  0.029896054 
number of iterations: 1676 
    8200    31.753834      291          145          146 1.4047741e-13 1.3618671e-14          0.1 0.0090024016    5.3397151  0.029895992 
number of iterations: 1761 
    8300    31.954724      293          147          146 1.4233905e-13 1.3732468e-14          0.1 0.0090024397    5.4461853  0.029895929 
number of iterations: 1599 
    8400    32.134269      298          149          149 1.4422535e-13  1.38482e-14          0.1 0.0090024692    5.5540574   0.02989588 
number of iterations: 1609 
    8500    32.317452      300          150          150 1.4613665e-13 1.396589e-14          0.1 0.0090025019    5.6633503  0.029895825 
number of iterations: 1608 
    8600     32.50513      303          150          153 1.4807328e-13 1.4085561e-14          0.1  0.009002535    5.7740828   0.02989577 
number of iterations: 1611 
    8700    32.689291      305          151          154 1.5003558e-13 1.4207237e-14          0.1 0.0090025686    5.8862741  0.029895714 
number of iterations: 1623 
    8800    32.917197      307          151          156 1.5202388e-13 1.433094e-14          0.1 0.0090026026    5.9999434  0.029895657 
number of iterations: 1617 
    8900    33.112623      307          151          156 1.5403853e-13 1.4456696e-14          0.1 0.0090026371    6.1151106  0.029895599 
number of iterations: 1618 
    9000    33.304113      311          152          159 1.5607988e-13 1.4584527e-14          0.1 0.0090026672    6.2317954  0.029895549 
number of iterations: 1673 
    9100    33.501469      313          154          159 1.5814828e-13 1.4714459e-14          0.1 0.0090027055    6.3500181  0.029895485 
number of iterations: 1623 
    9200    33.673737      317          157          160 1.6024409e-13 1.4846518e-14          0.1 0.0090027336    6.4697991  0.029895438 
number of iterations: 1629 
    9300    33.998876      319          157          162 1.6236768e-13 1.498073e-14          0.1 0.0090027698    6.5911591  0.029895378 
number of iterations: 1632 
    9400    34.218273      320          158          162 1.6451941e-13 1.511712e-14          0.1 0.0090028065     6.714119  0.029895316 
number of iterations: 1670 
    9500    34.404959      326          162          164 1.6669965e-13 1.5255715e-14          0.1 0.0090028471    6.8387003  0.029895249 
number of iterations: 1637 
    9600    34.599181      329          163          166 1.6890879e-13 1.5396543e-14          0.1 0.0090028797    6.9649243  0.029895194 
number of iterations: 1637 
    9700    34.825039      333          165          168 1.711472e-13 1.5539631e-14          0.1 0.0090029178    7.0928129  0.029895131 
number of iterations: 1643 
    9800    35.003288      334          165          169 1.7341527e-13 1.5685008e-14          0.1 0.0090029564    7.2223881  0.029895066 
number of iterations: 1642 
    9900    35.189189      338          167          171 1.757134e-13 1.5832704e-14          0.1  0.009002993    7.3536717  0.029895005 
number of iterations: 1594 
   10000     35.37614      342          170          172 1.7804199e-13 1.5982746e-14          0.1 0.0090030195    7.4866871  0.029894961 
number of iterations: 1769 
   10100    35.556136      343          170          173 1.8040144e-13 1.6135165e-14          0.1 0.0090030645    7.6214571  0.029894886 
number of iterations: 1770 
   10200    35.740545      354          176          178 1.8279215e-13 1.6289988e-14          0.1 0.0090031125     7.758005  0.029894806 
number of iterations: 1734 
   10300    35.929566      356          178          178 1.8521455e-13 1.6447246e-14          0.1 0.0090031582    7.8963544  0.029894729 
number of iterations: 1657 
   10400    36.119882      360          182          178 1.8766905e-13 1.6606972e-14          0.1 0.0090031922    8.0365293  0.029894672 
number of iterations: 1664 
   10500    36.303554      363          185          178 1.9015607e-13 1.6769197e-14          0.1 0.0090032373    8.1785538  0.029894597 
number of iterations: 1679 
   10600     36.48003      367          188          179 1.9267606e-13 1.6933952e-14          0.1 0.0090032815    8.3224531  0.029894524 
number of iterations: 1659 
   10700     36.65388      373          191          182 1.9522944e-13 1.7101271e-14          0.1 0.0090033135    8.4682514   0.02989447 
number of iterations: 1766 
   10800    36.842303      375          193          182 1.9781665e-13 1.7271189e-14          0.1 0.0090033492    8.6159736   0.02989441 
number of iterations: 1761 
   10900    37.066159      377          194          183 2.0043816e-13 1.7443737e-14          0.1  0.009003398    8.7656456  0.029894329 
number of iterations: 1673 
   11000    37.263962      382          197          185 2.030944e-13 1.761895e-14          0.1  0.009003443    8.9172931  0.029894254 
number of iterations: 1657 
   11100    37.486468      385          199          186 2.0578585e-13 1.7796864e-14          0.1  0.009003483    9.0709423  0.029894187 
number of iterations: 1675 
   11200    37.683503      389          202          187 2.0851296e-13 1.7977512e-14          0.1 0.0090035291    9.2266199   0.02989411 
number of iterations: 1713 
   11300    37.875355      391          204          187 2.1127621e-13 1.8160932e-14          0.1 0.0090035783    9.3843525  0.029894028 
number of iterations: 1713 
   11400    38.066441      397          207          190 2.1407608e-13 1.8347159e-14          0.1   0.00900363    9.5441675  0.029893942 
number of iterations: 1688 
   11500    38.248403      402          209          193 2.1691306e-13 1.8536231e-14          0.1  0.009003678    9.7060924  0.029893861 
number of iterations: 1691 
   11600    38.455885      406          209          197 2.1978763e-13 1.8728186e-14          0.1 0.0090037268    9.8701551   0.02989378 
number of iterations: 1712 
   11700     38.63691      414          215          199 2.227003e-13 1.8923063e-14          0.1 0.0090037726    10.036384  0.029893704 
number of iterations: 1755 
   11800     38.94152      421          218          203 2.2565156e-13 1.9120899e-14          0.1 0.0090038223    10.204808   0.02989362 
number of iterations: 1675 
   11900    39.119714      426          223          203 2.2864194e-13 1.9321735e-14          0.1 0.0090038601    10.375456  0.029893557 
number of iterations: 1774 
   12000    39.324423      439          232          207 2.3167194e-13 1.9525613e-14          0.1 0.0090039157    10.548357  0.029893465 
number of iterations: 1833 
   12100    39.539533      444          236          208 2.347421e-13 1.973257e-14          0.1 0.0090039706    10.723541  0.029893373 
number of iterations: 1858 
   12200    39.737857      446          238          208 2.3785295e-13 1.9942649e-14          0.1 0.0090040295    10.901039  0.029893275 
number of iterations: 1762 
   12300    39.932468      453          242          211 2.4100502e-13 2.0155894e-14          0.1 0.0090040864    11.080881   0.02989318 
number of iterations: 1717 
   12400     40.11478      459          243          216 2.4419886e-13 2.0372346e-14          0.1 0.0090041405    11.263098  0.029893089 
number of iterations: 1782 
   12500    40.302277      465          247          218 2.4743503e-13 2.0592048e-14          0.1 0.0090041948    11.447721  0.029892999 
number of iterations: 1719 
   12600    40.481043      471          250          221 2.5071408e-13 2.0815045e-14          0.1 0.0090042488    11.634782  0.029892909 
number of iterations: 1759 
   12700    40.671718      479          256          223 2.5403659e-13 2.1041382e-14          0.1 0.0090043066    11.824315  0.029892812 
number of iterations: 1727 
   12800    40.879087      486          261          225 2.5740313e-13 2.1271101e-14          0.1 0.0090043586    12.016351  0.029892725 
number of iterations: 1756 
   12900    41.078988      490          264          226 2.6081428e-13 2.1504252e-14          0.1 0.0090044214    12.210923   0.02989262 
number of iterations: 1735 
   13000    41.274176      499          270          229 2.6427064e-13 2.1740883e-14          0.1 0.0090044706    12.408066  0.029892538 
number of iterations: 1748 
   13100    41.484666      505          273          232 2.677728e-13 2.1981041e-14          0.1 0.0090045282    12.607814  0.029892442 
number of iterations: 1750 
   13200    41.680387      510          275          235 2.7132137e-13 2.2224773e-14          0.1 0.0090045903      12.8102  0.029892338 
number of iterations: 1810 
   13300    41.863746      518          279          239 2.7491697e-13 2.247213e-14          0.1 0.0090046469     13.01526  0.029892244 
number of iterations: 1744 
   13400    42.052259      524          283          241 2.7856022e-13 2.272316e-14          0.1 0.0090046954    13.223029  0.029892163 
number of iterations: 1823 
   13500    42.238166      529          285          244 2.8225175e-13 2.2977915e-14          0.1 0.0090047761    13.433543  0.029892028 
number of iterations: 1758 
   13600    42.426886      537          290          247 2.859922e-13 2.3236445e-14          0.1  0.009004844    13.646838  0.029891915 
number of iterations: 1833 
   13700    42.614076      544          294          250 2.8978221e-13 2.3498802e-14          0.1 0.0090049153    13.862951  0.029891796 
number of iterations: 1796 
   13800    42.835661      549          296          253 2.9362246e-13 2.3765041e-14          0.1  0.009004984    14.081919  0.029891681 
number of iterations: 1762 
   13900    43.051721      555          298          257 2.9751359e-13 2.4035216e-14          0.1   0.00900505    14.303779  0.029891571 
number of iterations: 1782 
   14000    43.249511      566          304          262 3.014563e-13 2.4309378e-14          0.1 0.0090051084     14.52857  0.029891473 
number of iterations: 1775 
   14100    43.457225      571          306          265 3.0545125e-13 2.4587585e-14          0.1  0.009005176    14.756331   0.02989136 
number of iterations: 1799 
   14200    43.657594      577          309          268 3.0949914e-13 2.4869892e-14          0.1 0.0090052372    14.987102  0.029891258 
number of iterations: 1864 
   14300    44.013839      580          311          269 3.1360068e-13 2.5156356e-14          0.1 0.0090053209    15.220922  0.029891119 
number of iterations: 1795 
   14400    44.212313      583          312          271 3.1775657e-13 2.5447035e-14          0.1 0.0090053948    15.457832  0.029890995 
number of iterations: 1771 
   14500    44.417562      590          316          274 3.2196753e-13 2.5741989e-14          0.1 0.0090054575    15.697871  0.029890891 
number of iterations: 1957 
   14600    44.628418      595          317          278 3.262343e-13 2.6041277e-14          0.1  0.009005535    15.941083  0.029890761 
number of iterations: 1794 
   14700    44.855335      607          324          283 3.3055761e-13 2.6344961e-14          0.1 0.0090056109    16.187508  0.029890635 
number of iterations: 1785 
   14800    45.041448      612          325          287 3.3493822e-13  2.66531e-14          0.1 0.0090056825     16.43719  0.029890515 
number of iterations: 1774 
   14900    45.221028      622          331          291 3.3937687e-13 2.6965752e-14          0.1 0.0090057462    16.690172  0.029890409 
number of iterations: 1885 
   15000    45.450131      632          336          296 3.4387435e-13 2.7282986e-14          0.1 0.0090058345    16.946497  0.029890261 
number of iterations: 1846 
   15100    45.666091      641          339          302 3.4843143e-13 2.7604864e-14          0.1 0.0090059085    17.206209  0.029890138 
number of iterations: 1804 
   15200    45.856706      646          340          306 3.530489e-13 2.7931453e-14          0.1  0.009005987    17.469353  0.029890006 
number of iterations: 1805 
   15300     46.07001      650          341          309 3.5772757e-13 2.8262819e-14          0.1 0.0090060648    17.735975  0.029889877 
number of iterations: 1806 
   15400    46.261245      655          344          311 3.6246823e-13 2.8599029e-14          0.1 0.0090061421     18.00612  0.029889748 
number of iterations: 1814 
   15500     46.46407      661          348          313 3.6727172e-13 2.8940151e-14          0.1 0.0090062285    18.279834  0.029889603 
number of iterations: 1836 
   15600    46.665831      668          353          315 3.7213886e-13 2.9286254e-14          0.1 0.0090063049    18.557166  0.029889476 
number of iterations: 1858 
   15700    46.858046      682          364          318 3.7707051e-13 2.963741e-14          0.1 0.0090063897    18.838163  0.029889334 
number of iterations: 1825 
   15800    47.043805      688          369          319 3.8206751e-13 2.9993691e-14          0.1 0.0090064764    19.122873   0.02988919 
number of iterations: 1829 
   15900    47.254306      697          374          323 3.8713073e-13 3.0355166e-14          0.1 0.0090065613    19.411347  0.029889048 
number of iterations: 1832 
   16000    47.483201      708          383          325 3.9226105e-13 3.0721909e-14          0.1 0.0090066452    19.703633  0.029888908 
number of iterations: 1823 
   16100    47.675183      714          387          327 3.9745935e-13 3.1093996e-14          0.1 0.0090067349    19.999781  0.029888758 
number of iterations: 1873 
   16200    47.894097      720          391          329 4.0272655e-13 3.1471501e-14          0.1 0.0090068351    20.299843  0.029888591 
number of iterations: 1857 
   16300    48.079396      729          398          331 4.0806354e-13 3.1854501e-14          0.1 0.0090069284    20.603871  0.029888435 
number of iterations: 1837 
   16400    48.289716      736          402          334 4.1347127e-13 3.2243074e-14          0.1 0.0090070258    20.911917  0.029888272 
number of iterations: 1836 
   16500    48.465701      748          409          339 4.1895065e-13 3.2637297e-14          0.1 0.0090071135    21.224033  0.029888126 
number of iterations: 1827 
   16600    48.681391      763          418          345 4.2450265e-13 3.3037253e-14          0.1 0.0090072038    21.540275  0.029887975 
number of iterations: 1811 
   16700    48.975831      769          422          347 4.3012823e-13 3.3443021e-14          0.1 0.0090072896    21.860696  0.029887832 
number of iterations: 1850 
   16800    49.188879      782          429          353 4.3582835e-13 3.3854685e-14          0.1 0.0090073713    22.185351  0.029887695 
number of iterations: 1913 
   16900    49.381141      797          439          358 4.4160402e-13 3.427233e-14          0.1 0.0090074626    22.514296  0.029887543 
number of iterations: 1936 
   17000     49.63275      813          448          365 4.4745622e-13 3.4696036e-14          0.1 0.0090075594    22.847588  0.029887381 
number of iterations: 1854 
   17100    49.828878      821          454          367 4.5338598e-13 3.5125893e-14          0.1 0.0090076623    23.185287  0.029887209 
number of iterations: 1869 
   17200    50.030459      834          461          373 4.5939432e-13 3.5561987e-14          0.1 0.0090077669    23.527448  0.029887035 
number of iterations: 1859 
   17300    50.229671      842          465          377 4.6548229e-13 3.6004408e-14          0.1 0.0090078688    23.874132  0.029886865 
number of iterations: 1829 
   17400    50.426181      853          472          381 4.7165093e-13 3.6453244e-14          0.1 0.0090079629    24.225397  0.029886708 
number of iterations: 1883 
   17500    50.628594      860          476          384 4.7790132e-13 3.6908589e-14          0.1 0.0090080669    24.581304  0.029886534 
number of iterations: 1864 
   17600    50.829155      874          483          391 4.8423454e-13 3.7370533e-14          0.1 0.0090081734    24.941916  0.029886356 
number of iterations: 1901 
   17700     51.03292      888          490          398 4.9065168e-13 3.783917e-14          0.1 0.0090082845    25.307294  0.029886171 
number of iterations: 1878 
   17800    51.261964      902          500          402 4.9715387e-13 3.8314595e-14          0.1 0.0090083867    25.677501     0.029886 
number of iterations: 1938 
   17900    51.517494      913          506          407 5.0374223e-13 3.8796907e-14          0.1 0.0090084974    26.052599  0.029885815 
number of iterations: 1971 
   18000    51.724613      924          512          412 5.104179e-13 3.9286202e-14          0.1 0.0090086219    26.432656  0.029885607 
number of iterations: 1899 
   18100    51.950336      933          518          415 5.1718203e-13 3.9782582e-14          0.1  0.009008742    26.817736  0.029885407 
number of iterations: 1884 
   18200    52.144935      944          524          420 5.240358e-13 4.0286147e-14          0.1 0.0090088626    27.207904  0.029885206 
number of iterations: 1895 
   18300    52.357845      956          527          429 5.309804e-13 4.0797002e-14          0.1  0.009008983    27.603229  0.029885005 
number of iterations: 1897 
   18400    52.568162      966          534          432 5.3801702e-13 4.1315247e-14          0.1 0.0090090964    28.003779  0.029884815 
number of iterations: 1916 
   18500    52.810572      981          543          438 5.451469e-13 4.1840989e-14          0.1 0.0090092138    28.409623  0.029884619 
number of iterations: 1878 
   18600    53.003306      997          551          446 5.5237127e-13 4.2374337e-14          0.1 0.0090093322     28.82083  0.029884421 
number of iterations: 1904 
   18700    53.233754     1010          556          454 5.5969137e-13 4.2915396e-14          0.1 0.0090094567    29.237472  0.029884214 
number of iterations: 1936 
   18800    53.456165     1023          562          461 5.6710848e-13 4.3464279e-14          0.1  0.009009585     29.65962  0.029883999 
number of iterations: 1873 
   18900    53.647615     1043          574          469 5.7462388e-13 4.4021096e-14          0.1 0.0090097015    30.087347  0.029883805 
number of iterations: 1901 
   19000    53.864118     1057          582          475 5.8223887e-13 4.4585961e-14          0.1 0.0090098147    30.520727  0.029883616 
number of iterations: 1880 
   19100    54.107504     1068          588          480 5.8995478e-13 4.5158988e-14          0.1 0.0090099242    30.959834  0.029883433 
number of iterations: 1965 
   19200    54.347922     1089          596          493 5.9777294e-13 4.5740297e-14          0.1 0.0090100571    31.404746  0.029883211 
number of iterations: 1911 
   19300    54.576647     1101          601          500 6.0569471e-13 4.6330006e-14          0.1  0.009010187    31.855536  0.029882994 
number of iterations: 1923 
   19400    54.814293     1117          610          507 6.1372146e-13 4.6928233e-14          0.1 0.0090103253    32.312285  0.029882763 
number of iterations: 1925 
   19500    55.031126     1128          616          512 6.2185458e-13 4.7535102e-14          0.1 0.0090104695    32.775069  0.029882522 
number of iterations: 1938 
   19600    55.235615     1141          624          517 6.3009548e-13 4.8150735e-14          0.1 0.0090106157    33.243969  0.029882278 
number of iterations: 1888 
   19700    55.459389     1154          629          525 6.3741513e-13 4.8775256e-14          0.1 0.0090107136    33.718276  0.029882115 
number of iterations: 1935 
   19800    55.730984     1176          642          534 6.4586224e-13 4.9408794e-14          0.1 0.0090108578    34.198851  0.029881874 
number of iterations: 1908 
   19900    55.937457     1191          651          540 6.5442129e-13 5.0051478e-14          0.1 0.0090109941    34.685778  0.029881646 
number of iterations: 1947 
   20000     56.16632     1207          657          550 6.6309377e-13 5.070344e-14          0.1 0.0090111382    35.179139  0.029881406 
number of iterations: 1926 
   20100    56.376231     1218          662          556 6.7188117e-13 5.1364812e-14          0.1 0.0090112775    35.679021  0.029881173 
number of iterations: 1943 
   20200    56.585355     1235          672          563 6.8078503e-13 5.203573e-14          0.1 0.0090114195    36.185509  0.029880936 
number of iterations: 1947 
   20300    56.810713     1247          675          572 6.8980687e-13 5.2716332e-14          0.1 0.0090115733    36.698691  0.029880679 
number of iterations: 1942 
   20400     57.02688     1260          683          577 6.9894828e-13 5.3406753e-14          0.1  0.009011713    37.218655  0.029880446 
number of iterations: 1954 
   20500    57.240638     1273          691          582 7.0821083e-13 5.4107136e-14          0.1 0.0090118609    37.745492  0.029880199 
number of iterations: 1955 
   20600     57.46765     1283          697          586 7.1759613e-13 5.4817625e-14          0.1 0.0090120271    38.279291  0.029879921 
number of iterations: 1993 
   20700    57.705333     1296          706          590 7.271058e-13 5.5538366e-14          0.1 0.0090121852    38.820145  0.029879657 
number of iterations: 1969 
   20800    57.919021     1310          711          599 7.3674149e-13 5.6269503e-14          0.1 0.0090123492    39.368147  0.029879383 
number of iterations: 1936 
   20900    58.128011     1328          721          607 7.4650488e-13 5.7011189e-14          0.1 0.0090124907    39.923391  0.029879147 
number of iterations: 1992 
   21000    58.348453     1342          728          614 7.5639765e-13 5.7763573e-14          0.1 0.0090126671    40.485972  0.029878853 
number of iterations: 2044 
   21100    58.591834     1352          734          618 7.6642152e-13 5.8526813e-14          0.1 0.0090128499    41.055987  0.029878547 
number of iterations: 1966 
   21200    58.810014     1367          745          622 7.7657822e-13 5.9301059e-14          0.1 0.0090130151    41.633535  0.029878272 
number of iterations: 1993 
   21300    59.024781     1384          758          626 7.8686953e-13 6.0086471e-14          0.1 0.0090131894    42.218717  0.029877981 
number of iterations: 2002 
   21400     59.26444     1412          774          638 7.9729721e-13 6.0883211e-14          0.1 0.0090133627    42.811631  0.029877691 
number of iterations: 2007 
   21500    59.497637     1433          786          647 8.0786308e-13 6.169144e-14          0.1 0.0090135353    43.412383  0.029877403 
number of iterations: 2029 
   21600    59.724438     1447          795          652 8.1856897e-13 6.2511324e-14          0.1 0.0090137133    44.021075  0.029877106 
number of iterations: 1995 
   21700    59.944744     1474          810          664 8.2941674e-13 6.3343032e-14          0.1  0.009013907    44.637811  0.029876782 
number of iterations: 2017 
   21800    60.169233     1496          826          670 8.4040826e-13 6.4186733e-14          0.1 0.0090141048    45.262697  0.029876452 
number of iterations: 2054 
   21900    60.385554     1516          834          682 8.5154544e-13  6.50426e-14          0.1  0.009014293    45.895841  0.029876138 
number of iterations: 1992 
   22000    60.598643     1540          845          695 8.6283021e-13 6.5910807e-14          0.1 0.0090144884    46.537352  0.029875811 
number of iterations: 2025 
   22100    60.808034     1561          854          707 8.7426453e-13 6.6791532e-14          0.1 0.0090146882    47.187341  0.029875478 
number of iterations: 2041 
   22200    61.032422     1582          865          717 8.8585037e-13 6.7684955e-14          0.1 0.0090148944    47.845919  0.029875134 
number of iterations: 2017 
   22300    61.252396     1599          875          724 8.9758975e-13 6.8591262e-14          0.1 0.0090151005    48.513201  0.029874789 
number of iterations: 2014 
   22400    61.496092     1632          899          733 9.094847e-13 6.9510634e-14          0.1 0.0090153082      49.1893  0.029874443 
number of iterations: 2005 
   22500    61.720622     1653          910          743 9.2153728e-13 7.0443262e-14          0.1 0.0090154859    49.874334  0.029874146 
number of iterations: 2017 
   22600     61.93253     1676          928          748 9.3374958e-13 7.1389334e-14          0.1 0.0090156897    50.568422  0.029873805 
number of iterations: 2022 
   22700    62.159877     1699          940          759 9.4612372e-13 7.2349044e-14          0.1 0.0090159052     51.27168  0.029873446 
number of iterations: 2023 
   22800    62.377238     1726          958          768 9.5866184e-13 7.3322591e-14          0.1 0.0090161161    51.984231  0.029873093 
number of iterations: 2069 
   22900    62.599971     1752          969          783 9.7136612e-13 7.431017e-14          0.1 0.0090163414    52.706197  0.029872717 
number of iterations: 2049 
   23000    62.817755     1764          975          789 9.8423876e-13 7.5311987e-14          0.1 0.0090165579    53.437704  0.029872355 
number of iterations: 2027 
   23100    63.049273     1784          987          797 9.9728198e-13 7.6328244e-14          0.1 0.0090167773    54.178878  0.029871989 
number of iterations: 2112 
   23200    63.283205     1808          997          811 1.010498e-12 7.7359151e-14          0.1 0.0090170217    54.929846  0.029871581 
number of iterations: 2049 
   23300    63.514391     1842         1016          826 1.0238893e-12 7.8404919e-14          0.1  0.009017263    55.690738  0.029871178 
number of iterations: 2065 
   23400    63.777848     1873         1040          833 1.0374579e-12 7.946576e-14          0.1 0.0090174741    56.461685  0.029870826 
number of iterations: 2035 
   23500     64.01261     1895         1050          845 1.0512064e-12 8.0541893e-14          0.1   0.00901769     57.24282  0.029870465 
number of iterations: 2050 
   23600    64.244608     1928         1066          862 1.0651371e-12 8.1633538e-14          0.1 0.0090179366    58.034276  0.029870053 
number of iterations: 2050 
   23700    64.485878     1952         1077          875 1.0780927e-12 8.2740917e-14          0.1 0.0090181533    58.835303  0.029869691 
number of iterations: 2037 
   23800    64.741132     1972         1090          882 1.0923797e-12 8.3864257e-14          0.1 0.0090183744    59.646915  0.029869322 
number of iterations: 2042 
   23900    64.979589     2008         1107          901 1.106856e-12 8.5003791e-14          0.1 0.0090186213    60.469251  0.029868909 
number of iterations: 2009 
   24000    65.229289     2031         1117          914 1.1194013e-12 8.6159747e-14          0.1 0.0090188244    61.300828   0.02986857 
number of iterations: 2063 
   24100    65.455426     2053         1126          927 1.1342357e-12 8.7332365e-14          0.1 0.0090190732    62.143392  0.029868155 
number of iterations: 2034 
   24200    65.676535     2069         1131          938 1.1492666e-12 8.8521884e-14          0.1 0.0090193102    62.997088  0.029867759 
number of iterations: 2133 
   24300    65.948103     2101         1148          953 1.1644968e-12 8.9728547e-14          0.1 0.0090195743    63.862064  0.029867318 
number of iterations: 2077 
   24400     66.17857     2128         1161          967 1.1799288e-12 9.0952601e-14          0.1 0.0090198461    64.738471  0.029866864 
number of iterations: 2057 
   24500    66.412646     2162         1179          983 1.1955653e-12 9.2194297e-14          0.1  0.009020097    65.626457  0.029866445 
number of iterations: 2087 
   24600    66.640069     2191         1192          999 1.2103744e-12 9.3453888e-14          0.1 0.0090203347    66.525385  0.029866048 
number of iterations: 2063 
   24700    66.890318     2225         1210         1015 1.2264144e-12 9.4731634e-14          0.1 0.0090205958     67.43619  0.029865612 
number of iterations: 2085 
   24800    67.123126     2257         1226         1031 1.2426669e-12 9.6027795e-14          0.1 0.0090208387     68.35903  0.029865206 
number of iterations: 2077 
   24900    67.378198     2283         1242         1041 1.2591348e-12 9.7342638e-14          0.1 0.0090211207    69.294063  0.029864735 
number of iterations: 2105 
   25000    67.604502     2315         1255         1060 1.2758209e-12 9.8676432e-14          0.1 0.0090213809    70.241452    0.0298643 
number of iterations: 2111 
   25100    67.853777     2342         1272         1070 1.2927282e-12 1.0002945e-13          0.1 0.0090216921    71.201356  0.029863781 
number of iterations: 2057 
   25200    68.121015     2366         1285         1081 1.3098595e-12 1.0140197e-13          0.1 0.0090219577    72.173943  0.029863337 
number of iterations: 2108 
   25300    68.370156     2391         1297         1094 1.3272178e-12 1.0279428e-13          0.1 0.0090222374    73.159382   0.02986287 
number of iterations: 2128 
   25400    68.621873     2427         1319         1108 1.3448062e-12 1.0420665e-13          0.1 0.0090225121    74.157841  0.029862411 
number of iterations: 2078 
   25500    68.845495     2473         1337         1136 1.3626276e-12 1.0563939e-13          0.1 0.0090228042    75.169492  0.029861923 
number of iterations: 2106 
   25600    69.098119     2503         1354         1149 1.3806852e-12 1.0709278e-13          0.1 0.0090231038    76.194506  0.029861423 
number of iterations: 2113 
   25700    69.348874     2536         1376         1160 1.3989821e-12 1.0856712e-13          0.1 0.0090234322    77.233065  0.029860874 
number of iterations: 2130 
   25800    69.589497     2561         1391         1170 1.4175215e-12 1.1006271e-13          0.1 0.0090237338    78.285345  0.029860371 
number of iterations: 2203 
   25900    69.875041     2597         1405         1192 1.4363066e-12 1.1157987e-13          0.1 0.0090240626    79.351529  0.029859822 
number of iterations: 2130 
   26000    70.120916     2624         1419         1205 1.4553406e-12 1.131189e-13          0.1 0.0090243866      80.4318   0.02985928 
number of iterations: 2158 
   26100    70.397413     2657         1437         1220 1.4746268e-12 1.1468011e-13          0.1 0.0090247139    81.526345  0.029858734 
number of iterations: 2119 
   26200    70.644406     2689         1455         1234 1.4941686e-12 1.1626384e-13          0.1 0.0090250332    82.635351  0.029858201 
number of iterations: 2121 
   26300    70.910339     2719         1468         1251 1.5139694e-12 1.1787039e-13          0.1 0.0090253199    83.759012  0.029857721 
number of iterations: 2123 
   26400     71.14248     2755         1494         1261 1.5340326e-12 1.1950011e-13          0.1 0.0090256635    84.897519  0.029857148 
number of iterations: 2133 
   26500    71.381043     2791         1517         1274 1.5543616e-12 1.2115333e-13          0.1 0.0090260109    86.051072  0.029856568 
number of iterations: 2143 
   26600     71.67792     2825         1537         1288 1.5749601e-12 1.2283038e-13          0.1 0.0090263851    87.219861  0.029855943 
number of iterations: 2140 
   26700    71.903142     2870         1560         1310 1.5958315e-12 1.2453161e-13          0.1 0.0090267353    88.404094  0.029855358 
number of iterations: 2139 
   26800    72.184465     2914         1583         1331 1.6169795e-12 1.2625737e-13          0.1 0.0090270954    89.603972  0.029854756 
number of iterations: 2134 
   26900    72.421421     2959         1610         1349 1.6384077e-12 1.2800801e-13          0.1 0.0090274326    90.819703  0.029854193 
number of iterations: 2161 
   27000    72.660178     3008         1632         1376  1.66012e-12 1.2978389e-13          0.1 0.0090278181    92.051495  0.029853549 
number of iterations: 2141 
   27100    72.896539     3043         1649         1394 1.6821199e-12 1.3158538e-13          0.1 0.0090281763    93.299562  0.029852951 
number of iterations: 2162 
   27200    73.131572     3089         1677         1412 1.7044114e-12 1.3341285e-13          0.1  0.009028565    94.564117  0.029852302 
number of iterations: 2129 
   27300    73.380396     3124         1694         1430 1.7269983e-12 1.3526668e-13          0.1  0.009028931    95.845379  0.029851691 
number of iterations: 2192 
   27400    73.628249     3173         1727         1446 1.7498845e-12 1.3714724e-13          0.1 0.0090293484    97.143569  0.029850994 
number of iterations: 2190 
   27500    73.901182     3215         1745         1470 1.773074e-12 1.3905491e-13          0.1 0.0090297513    98.458914  0.029850321 
number of iterations: 2164 
   27600     74.49016     3257         1770         1487 1.7939453e-12 1.409901e-13          0.1 0.0090301244    99.789626  0.029849698 
number of iterations: 2180 
   27700    74.790832     3291         1788         1503 1.8177186e-12 1.4295319e-13          0.1 0.0090305019    101.13792  0.029849067 
number of iterations: 2169 
   27800     75.05127     3331         1815         1516 1.841807e-12 1.449446e-13          0.1 0.0090308985    102.50402  0.029848405 
number of iterations: 2200 
   27900    75.315636     3389         1849         1540 1.8662147e-12 1.4696472e-13          0.1 0.0090313307    103.88817  0.029847683 
number of iterations: 2210 
   28000    75.582533     3456         1885         1571 1.8909458e-12 1.4901398e-13          0.1 0.0090317246    105.29061  0.029847025 
number of iterations: 2139 
   28100    75.837871     3504         1909         1595 1.9150061e-12 1.5109279e-13          0.1 0.0090320985     106.7108    0.0298464 
number of iterations: 2164 
   28200    76.088485     3551         1930         1621 1.9403837e-12 1.5320158e-13          0.1 0.0090325125    108.14976  0.029845708 
number of iterations: 2155 
   28300    76.384448     3585         1950         1635 1.9660977e-12 1.5534078e-13          0.1 0.0090329238    109.60774  0.029845021 
number of iterations: 2167 
   28400    76.647609     3640         1971         1669 1.9921524e-12 1.5751084e-13          0.1 0.0090333679    111.08497   0.02984428 
number of iterations: 2201 
   28500    76.928136     3686         1990         1696 2.0185524e-12 1.597122e-13          0.1 0.0090338227    112.58171   0.02984352 
number of iterations: 2174 
   28600    77.189551     3734         2019         1715 2.0453022e-12 1.6194531e-13          0.1 0.0090342697    114.09823  0.029842774 
number of iterations: 2217 
   28700     77.43065     3794         2048         1746 2.0724065e-12 1.6421064e-13          0.1 0.0090347312    115.63479  0.029842003 
number of iterations: 2187 
   28800    77.689755     3850         2076         1774  2.09987e-12 1.6650864e-13          0.1 0.0090351578    117.19164   0.02984129 
number of iterations: 2253 
   28900    77.929556     3902         2104         1798 2.1276975e-12 1.688398e-13          0.1 0.0090356242    118.76907  0.029840511 
number of iterations: 2173 
   29000    78.178003     3961         2137         1824 2.1558937e-12 1.7120458e-13          0.1 0.0090360785    120.36733  0.029839752 
number of iterations: 2209 
   29100    78.456826     4004         2166         1838 2.1844635e-12 1.7360347e-13          0.1 0.0090365466    121.98672   0.02983897 
number of iterations: 2198 
   29200    78.709855     4064         2197         1867 2.213412e-12 1.7603698e-13          0.1 0.0090370252    123.62749   0.02983817 
number of iterations: 2224 
   29300    79.230867     4121         2226         1895 2.242744e-12 1.7850558e-13          0.1 0.0090374738    125.28994  0.029837421 
number of iterations: 2214 
   29400    79.490528     4182         2258         1924 2.2724648e-12 1.8100981e-13          0.1 0.0090379621    126.97434  0.029836605 
number of iterations: 2250 
   29500    79.743578     4233         2282         1951 2.3025794e-12 1.8355017e-13          0.1 0.0090384515      128.681  0.029835788 
number of iterations: 2265 
   29600    80.043092     4288         2311         1977 2.3330931e-12 1.8612717e-13          0.1 0.0090389898     130.4102  0.029834889 
number of iterations: 2179 
   29700     80.29509     4342         2338         2004 2.3640112e-12 1.8874136e-13          0.1 0.0090394548    132.16225  0.029834112 
number of iterations: 2226 
   29800    80.612411     4405         2361         2044 2.3943124e-12 1.9139327e-13          0.1 0.0090399817    133.93666  0.029833232 
number of iterations: 2195 
   29900    80.859382     4474         2401         2073 2.4260417e-12 1.9408345e-13          0.1 0.0090404811     135.7345  0.029832398 
number of iterations: 2265 
   30000    81.137185     4533         2426         2107 2.4581915e-12 1.9681244e-13          0.1 0.0090409559    137.55609  0.029831604 
number of iterations: 2258 
   30100    81.402995     4577         2448         2129 2.4907674e-12 1.9958081e-13          0.1 0.0090415214    139.40175   0.02983066 
number of iterations: 2242 
   30200    81.690192     4632         2481         2151 2.5237749e-12 2.0238913e-13          0.1 0.0090420723    141.27179   0.02982974 
number of iterations: 2280 
   30300    81.991681     4696         2522         2174 2.5557497e-12 2.0523798e-13          0.1 0.0090425844    143.16541  0.029828884 
number of iterations: 2266 
   30400     82.25305     4750         2550         2200 2.5896183e-12 2.0812794e-13          0.1 0.0090431841    145.08404  0.029827882 
number of iterations: 2234 
   30500    82.537125     4808         2576         2232 2.6239358e-12 2.1105961e-13          0.1 0.0090437389    147.02801  0.029826955 
number of iterations: 2238 
   30600    82.816262     4882         2616         2266 2.658708e-12 2.1403359e-13          0.1  0.009044339    148.99766  0.029825953 
number of iterations: 2262 
   30700     83.07803     4943         2646         2297 2.693941e-12 2.170505e-13          0.1 0.0090448693    150.99333  0.029825067 
number of iterations: 2228 
   30800    83.338884     5017         2684         2333 2.729641e-12 2.2011094e-13          0.1 0.0090454372    153.01536  0.029824118 
number of iterations: 2277 
   30900    83.604993     5074         2712         2362 2.765814e-12 2.2321556e-13          0.1 0.0090460323    155.06409  0.029823124 
number of iterations: 2238 
   31000    83.866364     5143         2746         2397 2.8024663e-12 2.2636498e-13          0.1 0.0090466272    157.13989   0.02982213 
number of iterations: 2272 
   31100     84.33698     5218         2785         2433 2.8396044e-12 2.2955987e-13          0.1 0.0090472173     159.2431  0.029821144 
number of iterations: 2261 
   31200    84.632342     5292         2824         2468 2.8762942e-12 2.3280087e-13          0.1 0.0090478166    161.37338  0.029820143 
number of iterations: 2251 
   31300    84.961959     5355         2857         2498 2.9144106e-12 2.3608866e-13          0.1  0.009048442    163.53179  0.029819099 
number of iterations: 2306 
   31400    85.233491     5447         2905         2542 2.9530321e-12 2.394239e-13          0.1 0.0090490606    165.71872  0.029818065 
number of iterations: 2250 
   31500    85.498885     5525         2949         2576 2.9906788e-12 2.4280729e-13          0.1 0.0090496777     167.9334  0.029817034 
number of iterations: 2276 
   31600    85.802012     5584         2979         2605 3.030311e-12 2.4623952e-13          0.1 0.0090503102    170.17734  0.029815977 
number of iterations: 2314 
   31700    86.096507     5657         3016         2641 3.0704684e-12 2.497213e-13          0.1 0.0090509297    172.45092  0.029814942 
number of iterations: 2299 
   31800    86.370672     5729         3059         2670 3.1111579e-12 2.5325335e-13          0.1 0.0090516435    174.75452   0.02981375 
number of iterations: 2251 
   31900    86.657698     5823         3104         2719 3.1523866e-12 2.5683639e-13          0.1 0.0090522497    177.08856  0.029812737 
number of iterations: 2287 
   32000    86.989236     5893         3142         2751 3.1941617e-12 2.6047115e-13          0.1 0.0090529459    179.45343  0.029811574 
number of iterations: 2330 
   32100    87.275393     5980         3185         2795 3.2353614e-12 2.6415839e-13          0.1 0.0090536625    181.84867  0.029810377 
number of iterations: 2279 
   32200    87.576337     6060         3228         2832 3.2782361e-12 2.6789888e-13          0.1 0.0090543703    184.27556  0.029809195 
number of iterations: 2272 
   32300    87.850686     6144         3273         2871 3.3216789e-12 2.7169336e-13          0.1 0.0090550603     186.7345  0.029808042 
number of iterations: 2286 
   32400    88.134603     6224         3314         2910 3.3634952e-12 2.7554264e-13          0.1 0.0090556973    189.22423  0.029806977 
number of iterations: 2305 
   32500     88.44148     6306         3361         2945 3.4080678e-12 2.7944749e-13          0.1 0.0090564423    191.74686  0.029805733 
number of iterations: 2302 
   32600    88.728499     6407         3406         3001 3.4532311e-12 2.8340873e-13          0.1 0.0090571732     194.3028  0.029804511 
number of iterations: 2344 
   32700    89.124022     6498         3441         3057 3.4975208e-12 2.8742718e-13          0.1 0.0090579093    196.89138  0.029803281 
number of iterations: 2285 
   32800    89.432753     6590         3490         3100 3.5438695e-12 2.9150365e-13          0.1 0.0090586314    199.51415  0.029802075 
number of iterations: 2303 
   32900    89.761479     6678         3547         3131 3.5889094e-12 2.9563899e-13          0.1 0.0090593628    202.17008  0.029800853 
number of iterations: 2311 
   33000    90.048077     6773         3600         3173 3.6364692e-12 2.9983405e-13          0.1 0.0090601301    204.86108  0.029799571 
number of iterations: 2304 
   33100    90.368481     6864         3648         3216 3.6836289e-12 3.040897e-13          0.1 0.0090608774    207.58683  0.029798322 
number of iterations: 2296 
   33200    90.667072     6970         3707         3263 3.7324439e-12 3.0840681e-13          0.1 0.0090616521    210.34858  0.029797028 
number of iterations: 2322 
   33300    90.983125     7055         3751         3304 3.7810972e-12 3.1278627e-13          0.1 0.0090624165    213.14618   0.02979575 
number of iterations: 2317 
   33400    91.273195     7147         3797         3350 3.8312037e-12 3.1722899e-13          0.1  0.009063201    215.98072  0.029794439 
number of iterations: 2299 
   33500    91.601884     7254         3846         3408 3.8796774e-12 3.2173586e-13          0.1 0.0090639768    218.85096  0.029793143 
number of iterations: 2320 
   33600    91.902695     7355         3889         3466 3.9302451e-12 3.2630783e-13          0.1 0.0090648394    221.75846  0.029791702 
number of iterations: 2339 
   33700    92.185172     7429         3924         3505 3.9809756e-12 3.3094583e-13          0.1 0.0090656707    224.70332  0.029790313 
number of iterations: 2346 
   33800    92.492748     7528         3974         3554 4.0323808e-12 3.3565084e-13          0.1 0.0090665395    227.68602  0.029788862 
number of iterations: 2275 
   33900    92.793692     7624         4026         3598 4.0849135e-12 3.404238e-13          0.1 0.0090673097    230.70743  0.029787574 
number of iterations: 2348 
   34000    93.109328     7703         4071         3632 4.1381229e-12 3.452657e-13          0.1 0.0090681408    233.76805  0.029786185 
number of iterations: 2333 
   34100    93.402466     7817         4118         3699 4.1915556e-12 3.500624e-13          0.1 0.0090689545    236.86807  0.029784825 
number of iterations: 2351 
   34200    93.718744     7921         4170         3751 4.2471014e-12 3.5504355e-13          0.1  0.009069823    240.00906  0.029783374 
number of iterations: 2353 
   34300    94.103235     8033         4219         3814 4.3033832e-12 3.6009666e-13          0.1 0.0090707168    243.19151   0.02978188 
number of iterations: 2393 
   34400    94.430208     8167         4283         3884 4.3593672e-12 3.6522277e-13          0.1 0.0090717209    246.41518  0.029780203 
number of iterations: 2352 
   34500    94.727844     8283         4345         3938 4.4141185e-12 3.7042294e-13          0.1 0.0090726367    249.67913  0.029778673 
number of iterations: 2343 
   34600    95.028517     8397         4410         3987 4.4726135e-12 3.7569824e-13          0.1 0.0090736121    252.98619  0.029777043 
number of iterations: 2348 
   34700    95.346719     8511         4466         4045 4.5306668e-12 3.8104976e-13          0.1 0.0090744869    256.33599  0.029775581 
number of iterations: 2376 
   34800    95.666215     8639         4539         4100 4.5907062e-12 3.8647861e-13          0.1 0.0090754381    259.73002  0.029773992 
number of iterations: 2334 
   34900    95.960538     8767         4601         4166 4.6496446e-12 3.919859e-13          0.1 0.0090763642    263.16742  0.029772444 
number of iterations: 2361 
   35000    96.290132     8888         4665         4223 4.7099229e-12 3.9757277e-13          0.1 0.0090773506    266.64919  0.029770796 
Loop time of 96.2902 on 32 procs for 35000 steps with 8888 atoms

Performance: 314050729.466 tau/day, 363.485 timesteps/s
92.1% CPU use with 32 MPI tasks x no OpenMP threads

MPI task timing breakdown:
Section |  min time  |  avg time  |  max time  |%varavg| %total
---------------------------------------------------------------
Pair    | 0.0018672  | 0.1248     | 0.33559    |  19.2 |  0.13
Neigh   | 0.0023184  | 0.044304   | 0.10989    |  11.0 |  0.05
Comm    | 0.036891   | 0.21435    | 0.34045    |  17.7 |  0.22
Output  | 24.832     | 24.833     | 24.84      |   0.0 | 25.79
Modify  | 70.441     | 70.523     | 70.622     |   0.5 | 73.24
Other   |            | 0.5506     |            |       |  0.57

Nlocal:    277.75 ave 592 max 0 min
Histogram: 1 2 2 8 6 5 3 3 1 1
Nghost:    159.281 ave 372 max 8 min
Histogram: 3 3 6 6 3 3 2 5 0 1
Neighs:    1234.97 ave 2815 max 0 min
Histogram: 1 2 6 6 6 3 3 3 1 1

Total # of neighbors = 39519
Ave neighs/atom = 4.44633
Neighbor list builds = 699
Dangerous builds = 0
Total wall time: 0:01:36
