 NUFEB Simulation

     100 atoms 
     2 atom types 
     4 nutrients 

  0.0e-4   1.00e-04  xlo xhi 
  0.0e-4   1.00e-04  ylo yhi 
  0.0e-4   1.00e-05  zlo zhi 

 Atoms 

     1 1 1.58e-06  370 3.36e-05 2.34e-05 2.99e-06 1.58e-06 
     2 1 1.80e-06  370 1.42e-05 5.05e-05 5.39e-06 1.80e-06 
     3 1 1.55e-06  370 5.30e-05 1.79e-06 8.25e-06 1.55e-06 
     4 1 1.85e-06  370 5.39e-05 6.66e-05 2.40e-06 1.85e-06 
     5 1 1.66e-06  370 7.56e-05 2.88e-05 4.98e-06 1.66e-06 
     6 1 1.50e-06  370 5.39e-05 1.92e-06 6.68e-06 1.50e-06 
     7 1 1.90e-06  370 2.22e-06 9.09e-05 7.11e-06 1.90e-06 
     8 1 1.68e-06  370 1.25e-05 5.01e-05 7.47e-06 1.68e-06 
     9 1 1.69e-06  370 8.41e-05 2.70e-05 5.93e-06 1.69e-06 
     10 1 1.59e-06  370 2.87e-05 1.72e-05 6.42e-06 1.59e-06 
     11 1 1.47e-06  370 6.83e-05 2.81e-05 6.17e-06 1.47e-06 
     12 1 1.39e-06  370 3.99e-05 5.49e-05 6.85e-06 1.39e-06 
     13 1 1.58e-06  370 1.26e-05 6.36e-05 7.09e-06 1.58e-06 
     14 1 1.74e-06  370 4.74e-05 8.03e-05 2.09e-06 1.74e-06 
     15 1 1.60e-06  370 9.83e-05 5.66e-05 7.79e-06 1.60e-06 
     16 1 1.46e-06  370 8.96e-05 2.55e-05 5.13e-06 1.46e-06 
     17 1 1.44e-06  370 2.89e-05 2.58e-05 8.09e-06 1.44e-06 
     18 1 1.44e-06  370 5.72e-05 2.02e-05 5.48e-06 1.44e-06 
     19 1 1.62e-06  370 5.39e-05 1.67e-05 6.63e-06 1.62e-06 
     20 1 1.82e-06  370 5.92e-05 6.43e-05 4.01e-06 1.82e-06 
     21 1 1.52e-06  370 9.51e-06 9.78e-06 2.89e-06 1.52e-06 
     22 1 1.84e-06  370 8.84e-05 6.42e-05 7.78e-06 1.84e-06 
     23 1 1.62e-06  370 7.62e-05 2.29e-05 5.95e-06 1.62e-06 
     24 1 1.82e-06  370 2.07e-05 5.15e-06 6.82e-06 1.82e-06 
     25 1 1.74e-06  370 3.76e-05 7.56e-06 7.80e-06 1.74e-06 
     26 1 1.53e-06  370 2.72e-05 3.81e-05 7.59e-06 1.53e-06 
     27 1 1.70e-06  370 2.57e-05 3.71e-05 5.17e-06 1.70e-06 
     28 1 1.84e-06  370 5.28e-05 4.30e-05 2.79e-06 1.84e-06 
     29 1 1.56e-06  370 2.07e-05 1.65e-05 7.01e-06 1.56e-06 
     30 1 1.45e-06  370 1.93e-05 1.58e-05 3.64e-06 1.45e-06 
     31 1 1.53e-06  370 2.60e-05 3.87e-05 4.77e-06 1.53e-06 
     32 1 1.70e-06  370 6.41e-05 9.65e-05 4.55e-06 1.70e-06 
     33 1 1.82e-06  370 6.22e-05 4.73e-05 5.98e-06 1.82e-06 
     34 1 1.51e-06  370 9.71e-05 6.66e-05 2.26e-06 1.51e-06 
     35 1 1.66e-06  370 1.66e-05 7.07e-05 5.87e-06 1.66e-06 
     36 1 1.50e-06  370 6.50e-06 3.07e-05 4.38e-06 1.50e-06 
     37 1 1.48e-06  370 1.25e-05 3.94e-06 2.62e-06 1.48e-06 
     38 1 1.93e-06  370 7.60e-05 8.89e-05 3.35e-06 1.93e-06 
     39 1 1.47e-06  370 3.65e-05 6.92e-05 3.54e-06 1.47e-06 
     40 1 1.49e-06  370 3.97e-05 1.14e-05 4.99e-06 1.49e-06 
     41 1 1.55e-06  370 7.98e-05 8.27e-05 8.16e-06 1.55e-06 
     42 1 1.54e-06  370 4.07e-05 9.01e-06 3.77e-06 1.54e-06 
     43 1 1.92e-06  370 5.92e-05 1.17e-05 5.71e-06 1.92e-06 
     44 1 1.56e-06  370 6.99e-05 3.18e-05 4.86e-06 1.56e-06 
     45 1 1.72e-06  370 9.34e-05 4.95e-06 6.75e-06 1.72e-06 
     46 1 1.85e-06  370 1.91e-05 2.72e-05 3.28e-06 1.85e-06 
     47 1 1.78e-06  370 2.23e-05 9.09e-05 6.90e-06 1.78e-06 
     48 1 1.91e-06  370 8.64e-05 8.27e-05 2.54e-06 1.91e-06 
     49 1 1.93e-06  370 4.43e-05 6.57e-05 5.23e-06 1.93e-06 
     50 1 1.74e-06  370 2.13e-05 6.59e-05 7.01e-06 1.74e-06 
     51 2 1.15e-06  230 7.59e-05 7.53e-05 3.85e-06 1.15e-06 
     52 2 9.28e-07  230 9.16e-05 6.51e-05 3.71e-06 9.28e-07 
     53 2 9.04e-07  230 8.71e-05 2.89e-05 3.70e-06 9.04e-07 
     54 2 1.14e-06  230 7.54e-05 1.54e-05 4.14e-06 1.14e-06 
     55 2 1.26e-06  230 6.39e-05 8.09e-05 3.83e-06 1.26e-06 
     56 2 1.30e-06  230 8.60e-05 1.02e-05 3.30e-06 1.30e-06 
     57 2 1.31e-06  230 9.82e-06 1.52e-05 7.69e-06 1.31e-06 
     58 2 1.04e-06  230 3.80e-05 9.37e-06 5.98e-06 1.04e-06 
     59 2 1.33e-06  230 7.31e-06 4.24e-05 6.86e-06 1.33e-06 
     60 2 1.32e-06  230 8.54e-05 1.02e-05 3.44e-06 1.32e-06 
     61 2 1.23e-06  230 8.84e-05 7.44e-05 1.83e-06 1.23e-06 
     62 2 1.05e-06  230 7.91e-05 8.61e-05 8.80e-06 1.05e-06 
     63 2 1.25e-06  230 9.19e-05 4.22e-05 7.07e-06 1.25e-06 
     64 2 1.28e-06  230 6.57e-05 1.24e-05 4.47e-06 1.28e-06 
     65 2 1.07e-06  230 6.00e-05 4.55e-05 2.46e-06 1.07e-06 
     66 2 1.37e-06  230 4.27e-05 5.03e-05 2.99e-06 1.37e-06 
     67 2 1.38e-06  230 7.40e-05 2.98e-05 3.40e-06 1.38e-06 
     68 2 1.36e-06  230 3.56e-05 8.36e-05 3.29e-06 1.36e-06 
     69 2 1.31e-06  230 9.24e-05 6.82e-05 2.39e-06 1.31e-06 
     70 2 9.45e-07  230 4.69e-05 4.69e-05 3.20e-06 9.45e-07 
     71 2 1.23e-06  230 4.29e-05 5.72e-05 3.79e-06 1.23e-06 
     72 2 1.06e-06  230 9.49e-05 7.23e-05 1.92e-06 1.06e-06 
     73 2 1.26e-06  230 2.94e-06 8.69e-05 1.34e-06 1.26e-06 
     74 2 1.38e-06  230 3.07e-05 7.13e-05 6.66e-06 1.38e-06 
     75 2 1.00e-06  230 9.29e-06 6.87e-05 7.61e-06 1.00e-06 
     76 2 9.18e-07  230 6.18e-05 8.43e-05 2.43e-06 9.18e-07 
     77 2 1.35e-06  230 1.13e-05 5.13e-05 4.43e-06 1.35e-06 
     78 2 1.31e-06  230 8.53e-05 2.78e-05 5.46e-06 1.31e-06 
     79 2 1.37e-06  230 4.19e-05 1.71e-05 6.77e-06 1.37e-06 
     80 2 1.33e-06  230 8.45e-05 9.68e-05 3.26e-06 1.33e-06 
     81 2 1.27e-06  230 7.20e-05 6.64e-05 8.32e-06 1.27e-06 
     82 2 1.04e-06  230 9.24e-05 7.90e-05 3.21e-06 1.04e-06 
     83 2 1.06e-06  230 9.16e-05 5.09e-05 8.14e-06 1.06e-06 
     84 2 1.09e-06  230 7.60e-05 5.80e-05 3.70e-06 1.09e-06 
     85 2 9.75e-07  230 3.05e-05 6.05e-05 7.56e-06 9.75e-07 
     86 2 8.82e-07  230 5.86e-05 6.15e-05 5.23e-06 8.82e-07 
     87 2 9.18e-07  230 1.99e-05 2.26e-05 1.86e-06 9.18e-07 
     88 2 9.46e-07  230 8.26e-05 7.37e-05 4.61e-06 9.46e-07 
     89 2 1.18e-06  230 2.19e-05 1.84e-05 4.77e-06 1.18e-06 
     90 2 1.35e-06  230 9.35e-05 4.65e-05 3.66e-06 1.35e-06 
     91 2 9.97e-07  230 8.90e-05 3.55e-05 4.35e-06 9.97e-07 
     92 2 1.02e-06  230 9.00e-05 9.31e-05 8.35e-06 1.02e-06 
     93 2 1.32e-06  230 2.55e-05 5.19e-05 2.68e-06 1.32e-06 
     94 2 1.29e-06  230 7.33e-05 5.24e-05 5.01e-06 1.29e-06 
     95 2 1.01e-06  230 4.85e-05 4.74e-05 6.74e-06 1.01e-06 
     96 2 9.76e-07  230 8.60e-05 7.66e-05 6.66e-06 9.76e-07 
     97 2 1.22e-06  230 7.17e-05 8.79e-05 3.14e-06 1.22e-06 
     98 2 1.14e-06  230 4.90e-05 5.12e-05 8.59e-06 1.14e-06 
     99 2 1.08e-06  230 9.51e-05 2.63e-05 5.65e-06 1.08e-06 
     100 2 9.51e-07  230 7.06e-05 4.10e-05 2.07e-06 9.51e-07 

 Nutrients 

     1 sub g nn nn nn 1.00e-01 1.00e-01 
     2 o2 l nn nn nd 9.00e-03 9.00e-03 
     3 suc l nn nn nn 3.42e-20 3.42e-20 
     4 co2 l nn nn nd 2.99e-02 2.99e-02 

 Type Name 

     1 cyano  
     2 ecw  

 Diffusion Coeffs 

     sub 0 
     o2 2.3e-09 
     suc 5.2e-10 
     co2 1.9e-09 

 Growth Rate 

     cyano 1.67e-05 
     ecw 8e-05 

 Ks 

     cyano 0.00035 0.0002 0.01 0.000138 
     ecw 0 0.001 3.6 0.05 

 Yield 

     cyano 0.55 
     ecw 0.43 

 Maintenance 

     cyano 0 
     ecw 9.5e-07 

 Decay 

     cyano 0 
     ecw 0 



