LAMMPS (20 Nov 2019)
# NUFEB simulation

atom_style	bio
atom_modify	map array sort 1000 5.0e-7
boundary	ff ff ff
newton		off
processors  * * *

comm_modify	vel yes
#variable reps loop 1
read_data_bio atom_50_50_100_1_2021-08-31.in
  orthogonal box = (0 0 0) to (0.0001 0.0001 1e-05)
  8 by 4 by 1 MPI processor grid
  reading atoms ...
  100 atoms
  4 nutrients
#shell mkdir Run_50_50_100_1
#shell cd Run_50_50_100_1
##############Define initial particle distribution##############

lattice sc 1e-6 origin 0 0 0
Lattice spacing in x,y,z = 100 100 100
region reg block 0 1000 0 1000 0 100

group CYANO type 1
50 atoms in group CYANO
group ECW type 2
50 atoms in group ECW

neighbor	5e-7 bin
neigh_modify	delay 0 one 5000

##############Define DEM Variables&Commands##############

pair_style  gran/hooke/history 1.e-4 NULL 1.e-5 NULL 0.0 1
pair_coeff  * *

timestep 10

fix 1 all nve/limit 1e-8
fix fv all viscous 1e-5

fix zw all wall/gran hooke/history 2000 NULL 500.0 NULL 1.5 0 zplane  0.0  1e-05

variable kanc equal 50

variable ke equal 5e+10


##############Define IBm Variables##############

#variables used in fix eps_extract
variable EPSdens equal 30
variable EPSratio equal 1.3

#variables used in fix division
variable divDia1 equal 1.96e-6
variable divDia2 equal 1.04e-6

#variables used in fix kinetics
variable diffT equal 1e-4
variable tol equal 1e-11
variable etaHET equal 0.6
variable layer equal -1

#variables used in fix death
#variable deadDia equal 9e-7


##############Define IBm Commands##############

fix k1 all kinetics 100 50 50 5 v_diffT v_layer niter 1000000
fix kgm all kinetics/growth/monod sucexp 1.0
fix g1 all kinetics/diffusion v_tol
fix d1 CYANO divide 100 v_EPSdens v_divDia1 79757
fix d2 ECW divide 100 v_EPSdens v_divDia2 320773
#fix d2 all death 1 v_deadDia demflag 0


##############Define IBm Computes##############

compute myNtypes all ntypes
compute myMass all biomass
compute myCon all avg_con

##############Simulation exit condition##############
variable co2 equal c_myCon[4]
fix 10 all halt 100 v_co2 <= 1e-19

variable light equal c_myCon[1]
fix 11 all halt 100 v_light <= 1e-19

##############Simulation Output##############
dump    id all custom 100 output.lammmps id type diameter x y z
dump    du1 all vtk 100 atom_*.vtu id type diameter x y z
dump    du2 all grid 100 grid_%_*.vti con
dump    du3 all bio 100 ntypes biomass avg_con
dump    traj all bio/hdf5 100 trajectory.h5 id type radius x y z con
thermo_style    custom step cpu atoms c_myNtypes[*] c_myMass[*] c_myCon[*]
thermo		100
thermo_modify	lost ignore


run 35000
Model is defined as a closed system. 
Neighbor list info ...
  update every 1 steps, delay 0 steps, check yes
  max neighbors/atom: 5000, page size: 100000
  master list distance cutoff = 2.43e-06
  ghost atom cutoff = 2.43e-06
  binsize = 1.215e-06, bins = 83 83 9
  1 neighbor lists, perpetual/occasional/extra = 1 0 0
  (1) pair gran/hooke/history, perpetual
      attributes: half, newton off, size, history
      pair build: half/size/bin/newtoff
      stencil: half/bin/3d/newtoff
      bin: standard
Per MPI rank memory allocation (min/avg/max) = 6.792 | 10.82 | 12.11 Mbytes
Step CPU Atoms c_myNtypes[1] c_myNtypes[2] c_myMass[1] c_myMass[2] c_myCon[1] c_myCon[2] c_myCon[3] c_myCon[4] 
       0            0      100           50           50 4.4788291e-14 9.853684e-15          0.1        0.009     3.42e-20       0.0299 
number of iterations: 322898 
     100    15.498993      136           50           86 4.5381835e-14 9.8522782e-15          0.1 0.0090007423  0.035975856  0.029898763 
number of iterations: 3855 
     200    15.823513      161           50          111 4.5983245e-14 9.8573147e-15          0.1 0.0090007517    0.0711451  0.029898747 
number of iterations: 2174 
     300     16.07265      161           50          111 4.6592625e-14 9.8690029e-15          0.1 0.0090007612   0.10662159  0.029898731 
number of iterations: 1725 
     400     16.29135      161           50          111 4.7210081e-14 9.8872958e-15          0.1 0.0090007709    0.1424167  0.029898714 
number of iterations: 1465 
     500    16.508446      163           52          111 4.7835719e-14 9.9121619e-15          0.1 0.0090007807   0.17853806  0.029898698 
number of iterations: 1375 
     600    16.720782      165           53          112 4.8469649e-14 9.943572e-15          0.1 0.0090007867   0.21499282  0.029898687 
number of iterations: 1514 
     700    16.939726      166           54          112 4.9111979e-14 9.9815178e-15          0.1 0.0090007982   0.25178769  0.029898668 
number of iterations: 1406 
     800    17.120445      166           54          112 4.9762821e-14 1.0026005e-14          0.1 0.0090008083    0.2889291   0.02989865 
number of iterations: 1409 
     900    17.330881      167           55          112 5.0422289e-14 1.0077055e-14          0.1 0.0090008187   0.32642319  0.029898633 
number of iterations: 1412 
    1000    17.557814      168           55          113 5.1090496e-14 1.0134697e-14          0.1 0.0090008263   0.36427596  0.029898619 
number of iterations: 1415 
    1100    17.773497      168           55          113 5.1767559e-14 1.0198977e-14          0.1 0.0090008369   0.40249315  0.029898601 
number of iterations: 1418 
    1200    17.965637      171           55          116 5.2453593e-14 1.0269952e-14          0.1 0.0090008476   0.44108044  0.029898583 
number of iterations: 1415 
    1300    18.142906      171           55          116 5.314872e-14 1.034769e-14          0.1 0.0090008584   0.48004303  0.029898565 
number of iterations: 1423 
    1400    18.324998      172           55          117 5.3853058e-14 1.0432274e-14          0.1 0.0090008694   0.51938604  0.029898546 
number of iterations: 1435 
    1500    18.498967      175           57          118 5.456673e-14 1.0523804e-14          0.1 0.0090008821    0.5591144  0.029898524 
number of iterations: 1443 
    1600    18.679817      180           59          121 5.528986e-14 1.0622382e-14          0.1  0.009000888   0.59923284  0.029898514 
number of iterations: 1431 
    1700    18.877237      181           59          122 5.6022573e-14 1.0728133e-14          0.1 0.0090008994   0.63974589  0.029898494 
number of iterations: 1434 
    1800    19.063987      184           62          122 5.6764997e-14 1.0841196e-14          0.1 0.0090009098   0.68065788  0.029898476 
number of iterations: 1437 
    1900    19.257266      187           62          125 5.7517259e-14 1.0961711e-14          0.1 0.0090009215   0.72197293  0.029898457 
number of iterations: 1440 
    2000    19.450194      187           62          125 5.827949e-14 1.1089835e-14          0.1 0.0090009333   0.76369495  0.029898436 
number of iterations: 1406 
    2100    19.621938      189           63          126 5.9051822e-14 1.1225739e-14          0.1 0.0090009413    0.8058277  0.029898422 
number of iterations: 1445 
    2200    19.820015      191           63          128 5.9834389e-14 1.1369609e-14          0.1 0.0090009534   0.84837462  0.029898402 
number of iterations: 1448 
    2300    19.990302      194           64          130 6.0627327e-14 1.1521643e-14          0.1 0.0090009656   0.89133896  0.029898381 
number of iterations: 1451 
    2400    20.175923      195           64          131 6.1430774e-14 1.1682058e-14          0.1  0.009000978   0.93472379   0.02989836 
number of iterations: 1454 
    2500    20.416493      196           64          132 6.2244868e-14 1.1851081e-14          0.1 0.0090009905   0.97853191  0.029898338 
number of iterations: 1457 
    2600    20.612121      197           64          133 6.306975e-14 1.2028954e-14          0.1 0.0090010032    1.0227659  0.029898316 
number of iterations: 1459 
    2700    20.805555      200           64          136 6.3905563e-14 1.2215939e-14          0.1 0.0090010161     1.067428  0.029898294 
number of iterations: 1462 
    2800    20.988047      202           64          138 6.4752454e-14 1.241231e-14          0.1  0.009001029    1.1125204  0.029898272 
number of iterations: 1468 
    2900    21.169486      207           67          140 6.5610567e-14 1.2618355e-14          0.1 0.0090010384    1.1580447  0.029898256 
number of iterations: 1465 
    3000     21.35731      207           67          140 6.6480052e-14 1.2834381e-14          0.1 0.0090010516    1.2040025  0.029898233 
number of iterations: 1468 
    3100    21.551258      208           68          140 6.736106e-14 1.3060713e-14          0.1 0.0090010651     1.250395   0.02989821 
number of iterations: 1471 
    3200    21.726586      209           68          141 6.8253743e-14 1.3297695e-14          0.1 0.0090010787    1.2972229  0.029898187 
number of iterations: 1473 
    3300    22.008662      212           68          144 6.9158256e-14 1.3545693e-14          0.1 0.0090010924     1.344487  0.029898163 
number of iterations: 1577 
    3400    22.180876      215           70          145 7.0074756e-14 1.3805076e-14          0.1 0.0090011093    1.3921874  0.029898134 
number of iterations: 1478 
    3500    22.370863      217           71          146 7.1003401e-14 1.4076254e-14          0.1 0.0090011195    1.4403239  0.029898116 
number of iterations: 1482 
    3600    22.563964      217           71          146 7.1944353e-14 1.435965e-14          0.1 0.0090011338    1.4888961  0.029898091 
number of iterations: 1502 
    3700    22.747274      221           72          149 7.2897775e-14 1.4655724e-14          0.1 0.0090011482     1.537903  0.029898067 
number of iterations: 1487 
    3800    22.953791      223           72          151 7.3863831e-14 1.4964931e-14          0.1 0.0090011628    1.5873433  0.029898041 
number of iterations: 1484 
    3900    23.123752      226           74          152 7.484269e-14 1.5287786e-14          0.1 0.0090011738    1.6372151  0.029898022 
number of iterations: 1493 
    4000    23.308741      228           74          154 7.5834522e-14 1.5624787e-14          0.1 0.0090011887    1.6875162  0.029897996 
number of iterations: 1402 
    4100    23.457915      230           74          156 7.6839497e-14 1.5976472e-14          0.1    0.0090012    1.7382439  0.029897976 
number of iterations: 1496 
    4200     23.66748      234           74          160 7.785779e-14 1.6343416e-14          0.1 0.0090012152    1.7893951   0.02989795 
number of iterations: 1499 
    4300     23.84528      235           74          161 7.8889577e-14 1.6726218e-14          0.1 0.0090012306    1.8409658  0.029897923 
number of iterations: 1502 
    4400    24.043562      238           74          164 7.9935039e-14 1.7125504e-14          0.1 0.0090012461    1.8929518  0.029897896 
number of iterations: 1494 
    4500    24.234296      244           76          168 8.0994354e-14 1.7541916e-14          0.1 0.0090012578    1.9453483  0.029897875 
number of iterations: 1507 
    4600    24.406735      258           76          182 8.2067709e-14 1.7976169e-14          0.1 0.0090012738    1.9981497  0.029897848 
number of iterations: 1507 
    4700    24.588542      264           76          188 8.3155287e-14 1.8428985e-14          0.1 0.0090012829    2.0513498  0.029897831 
number of iterations: 1513 
    4800    24.781672      275           77          198 8.4257278e-14 1.8901132e-14          0.1  0.009001299    2.1049418  0.029897803 
number of iterations: 1647 
    4900    24.969095      279           78          201 8.5373873e-14 1.9393398e-14          0.1 0.0090013196     2.158918  0.029897767 
number of iterations: 1521 
    5000    25.192099      289           78          211 8.6505265e-14 1.9906624e-14          0.1 0.0090013362    2.2132701  0.029897738 
number of iterations: 1512 
    5100    25.379149      295           80          215 8.7651651e-14 2.0441679e-14          0.1 0.0090013529     2.267989  0.029897709 
number of iterations: 1525 
    5200    25.548176      306           80          226 8.8813229e-14 2.0999475e-14          0.1 0.0090013698    2.3230647  0.029897679 
number of iterations: 1529 
    5300    25.727648      315           80          235  8.99902e-14 2.1580977e-14          0.1 0.0090013868    2.3784862  0.029897649 
number of iterations: 1528 
    5400    25.907313      327           84          243 9.1182769e-14 2.2187191e-14          0.1 0.0090014041    2.4342419  0.029897619 
number of iterations: 1671 
    5500    26.085748      339           87          252 9.2391142e-14 2.2819122e-14          0.1 0.0090014325     2.490319   0.02989757 
number of iterations: 1516 
    5600    26.252228      348           89          259 9.3615528e-14 2.3477944e-14          0.1 0.0090014503    2.5467038  0.029897538 
number of iterations: 1540 
    5700    26.438586      352           89          263 9.485614e-14 2.4164781e-14          0.1 0.0090014682    2.6033813  0.029897506 
number of iterations: 1576 
    5800    26.624904      361           92          269 9.6113194e-14 2.4880836e-14          0.1 0.0090014889    2.6603356   0.02989747 
number of iterations: 1546 
    5900    26.806324      367           93          274 9.7386905e-14 2.5627406e-14          0.1 0.0090015073    2.7175495  0.029897437 
number of iterations: 1548 
    6000    27.056029      374           93          281 9.8677497e-14 2.6405812e-14          0.1 0.0090015257    2.7750046  0.029897404 
number of iterations: 1551 
    6100    27.252498      378           94          284 9.9985191e-14 2.7217408e-14          0.1 0.0090015456    2.8326812  0.029897369 
number of iterations: 1680 
    6200    27.463688      390           98          292 1.0131022e-13 2.8063622e-14          0.1 0.0090015778    2.8905584  0.029897312 
number of iterations: 1815 
    6300    27.652574      394           99          295 1.026528e-13 2.894602e-14          0.1 0.0090016077    2.9486135   0.02989726 
number of iterations: 1546 
    6400    27.841343      404          103          301 1.0401317e-13 2.9866197e-14          0.1 0.0090016242    3.0068227   0.02989723 
number of iterations: 1671 
    6500    28.036441      411          106          305 1.0539158e-13 3.0825858e-14          0.1 0.0090016361    3.0651607  0.029897207 
number of iterations: 1594 
    6600    28.235999      419          107          312 1.0678825e-13 3.1826669e-14          0.1 0.0090016558    3.1236001  0.029897172 
number of iterations: 1736 
    6700    28.429015      437          111          326 1.0820343e-13 3.2870491e-14          0.1 0.0090016822    3.1821118  0.029897124 
number of iterations: 1577 
    6800    28.621466      446          111          335 1.0963736e-13 3.3959211e-14          0.1 0.0090017024    3.2406651  0.029897088 
number of iterations: 1578 
    6900    28.813668      458          113          345 1.110903e-13 3.5094822e-14          0.1 0.0090017203    3.2992273  0.029897055 
number of iterations: 1550 
    7000    29.010228      482          115          367 1.1256249e-13 3.6279377e-14          0.1 0.0090017403    3.3577639  0.029897018 
number of iterations: 1664 
    7100    29.195118      497          117          380 1.1405419e-13 3.7515095e-14          0.1 0.0090017602    3.4162385  0.029896981 
number of iterations: 1687 
    7200    29.382946      523          122          401 1.1556566e-13 3.8804292e-14          0.1 0.0090017922    3.4746122  0.029896924 
number of iterations: 1594 
    7300    29.565505      546          123          423 1.1709716e-13 4.0149304e-14          0.1 0.0090018176    3.5328441  0.029896878 
number of iterations: 1594 
    7400    29.753615      565          123          442 1.1864896e-13 4.1552699e-14          0.1 0.0090018389    3.5908908  0.029896838 
number of iterations: 1490 
    7500    29.937565      580          125          455 1.2022132e-13 4.3016987e-14          0.1 0.0090018545    3.6487066  0.029896808 
number of iterations: 1597 
    7600    30.123858      600          125          475 1.2181451e-13 4.4544873e-14          0.1 0.0090018762    3.7062431  0.029896767 
number of iterations: 1659 
    7700    30.342173      623          126          497 1.2342882e-13 4.6139156e-14          0.1 0.0090019025    3.7634497  0.029896719 
number of iterations: 1621 
    7800    30.541899      647          128          519 1.2506453e-13 4.780276e-14          0.1 0.0090019245    3.8202724  0.029896677 
number of iterations: 1571 
    7900    30.750177      664          129          535 1.2672191e-13 4.9538766e-14          0.1 0.0090019405    3.8766551  0.029896645 
number of iterations: 1605 
    8000    31.011973      679          133          546 1.2840125e-13 5.1350349e-14          0.1 0.0090019521    3.9325384   0.02989662 
number of iterations: 1664 
    8100    31.194216      694          133          561 1.3010285e-13 5.3240864e-14          0.1 0.0090019791    3.9878601   0.02989657 
number of iterations: 1612 
    8200    31.378193      705          133          572  1.31827e-13 5.5213766e-14          0.1 0.0090020014    4.0425545  0.029896527 
number of iterations: 1646 
    8300    31.565373      723          136          587  1.33574e-13 5.7272668e-14          0.1 0.0090020266    4.0965531  0.029896479 
number of iterations: 1527 
    8400    31.765208      738          137          601 1.3534415e-13 5.9421315e-14          0.1 0.0090020417    4.1497837  0.029896448 
number of iterations: 1715 
    8500    32.086306      761          139          622 1.3713776e-13 6.1663653e-14          0.1 0.0090020694    4.2021708  0.029896395 
number of iterations: 1741 
    8600    32.290669      789          140          649 1.3895513e-13 6.4003776e-14          0.1 0.0090020967    4.2536353  0.029896342 
number of iterations: 1626 
    8700      32.4777      814          140          674 1.4079659e-13 6.6445851e-14          0.1 0.0090021198    4.3040943  0.029896297 
number of iterations: 1611 
    8800    32.672099      839          141          698 1.4266246e-13 6.8994284e-14          0.1 0.0090021333    4.3534614  0.029896267 
number of iterations: 1630 
    8900    32.848799      864          141          723 1.4455305e-13 7.1653614e-14          0.1 0.0090021562     4.401646  0.029896221 
number of iterations: 1675 
    9000    33.045693      888          144          744 1.464687e-13 7.4428558e-14          0.1  0.009002183    4.4485543  0.029896168 
number of iterations: 1637 
    9100    33.236441      928          144          784 1.4840973e-13 7.7323984e-14          0.1 0.0090022062    4.4940882   0.02989612 
number of iterations: 1640 
    9200    33.416408      974          145          829 1.5037648e-13 8.0344946e-14          0.1 0.0090022296    4.5381452  0.029896073 
number of iterations: 1645 
    9300    33.661076     1022          145          877 1.523693e-13 8.3496677e-14          0.1 0.0090022534     4.580619  0.029896024 
number of iterations: 1642 
    9400    33.888684     1069          147          922 1.5438853e-13 8.678458e-14          0.1 0.0090022723    4.6213993  0.029895983 
number of iterations: 1555 
    9500    34.095545     1110          147          963 1.5643452e-13 9.021423e-14          0.1 0.0090022853    4.6603716  0.029895951 
number of iterations: 1708 
    9600    34.285953     1149          148         1001 1.5850762e-13 9.3791372e-14          0.1 0.0090023134    4.6974171  0.029895893 
number of iterations: 1687 
    9700    34.474488     1178          149         1029 1.6060819e-13 9.7522021e-14          0.1 0.0090023418    4.7324132  0.029895835 
number of iterations: 1673 
    9800    34.663072     1209          153         1056 1.627366e-13 1.0141245e-13          0.1 0.0090023711    4.7652332  0.029895775 
number of iterations: 1707 
    9900    34.910926     1250          155         1095 1.6489322e-13 1.0546935e-13          0.1 0.0090023931    4.7957462  0.029895726 
number of iterations: 1708 
   10000    35.113026     1295          156         1139 1.6707842e-13 1.0969884e-13          0.1 0.0090024174    4.8238166  0.029895674 
number of iterations: 1654 
   10100     35.30475     1342          158         1184 1.6929257e-13 1.1410754e-13          0.1 0.0090024358    4.8493063   0.02989563 
number of iterations: 1672 
   10200    35.492858     1386          161         1225 1.7153607e-13 1.1870244e-13          0.1 0.0090024549    4.8720728  0.029895585 
number of iterations: 1670 
   10300    35.690115     1422          162         1260 1.738093e-13 1.2348985e-13          0.1 0.0090024807    4.8919699  0.029895529 
number of iterations: 1672 
   10400     35.87421     1455          165         1290 1.7611265e-13 1.2847695e-13          0.1 0.0090025082    4.9088493  0.029895469 
number of iterations: 1673 
   10500    36.064044     1516          168         1348 1.7844653e-13 1.3367077e-13          0.1 0.0090025318    4.9225601  0.029895415 
number of iterations: 1831 
   10600    36.275594     1570          171         1399 1.8081134e-13 1.3907855e-13          0.1 0.0090025525     4.932949  0.029895365 
number of iterations: 1814 
   10700    36.486817     1653          174         1479 1.8320749e-13 1.4470748e-13          0.1 0.0090025848    4.9398606  0.029895295 
number of iterations: 1730 
   10800    36.710811     1736          182         1554 1.8563539e-13 1.5056487e-13          0.1 0.0090026144    4.9431387  0.029895229 
number of iterations: 1712 
   10900    36.925425     1816          186         1630 1.8809546e-13 1.5665774e-13          0.1 0.0090026351    4.9426271  0.029895177 
number of iterations: 1658 
   11000     37.13572     1895          187         1708 1.9058814e-13 1.6299348e-13          0.1 0.0090026512    4.9381692  0.029895133 
number of iterations: 1628 
   11100    37.348771     1969          191         1778 1.9311385e-13 1.6957903e-13          0.1 0.0090026736    4.9296098  0.029895078 
number of iterations: 1716 
   11200    37.551617     2021          194         1827 1.9567303e-13 1.7642126e-13          0.1 0.0090027031     4.916796   0.02989501 
number of iterations: 1719 
   11300    37.767076     2100          195         1905 1.9826613e-13 1.8352724e-13          0.1 0.0090027183    4.8995791  0.029894966 
number of iterations: 1743 
   11400    37.980228     2185          200         1985 2.0089359e-13 1.9090367e-13          0.1 0.0090027492    4.8778142  0.029894895 
number of iterations: 1709 
   11500    38.182859     2260          202         2058 2.0355587e-13 1.9855685e-13          0.1 0.0090027697    4.8513626   0.02989484 
number of iterations: 1614 
   11600    38.379953     2350          205         2145 2.0625343e-13 2.0649251e-13          0.1 0.0090027886    4.8200942  0.029894787 
number of iterations: 1773 
   11700       38.608     2440          207         2233 2.0898674e-13 2.1471596e-13          0.1 0.0090028172    4.7838876  0.029894719 
number of iterations: 1709 
   11800    38.815086     2528          210         2318 2.1175627e-13 2.2323198e-13          0.1 0.0090028465    4.7426335  0.029894649 
number of iterations: 1730 
   11900    39.021752     2613          214         2399 2.1456251e-13 2.320443e-13          0.1 0.0090028715    4.6962363  0.029894586 
number of iterations: 1704 
   12000    39.239858     2694          219         2475 2.1740593e-13 2.4115677e-13          0.1 0.0090029029    4.6446177  0.029894512 
number of iterations: 1687 
   12100    39.442821     2796          220         2576 2.2028704e-13 2.5057187e-13          0.1  0.009002931    4.5877181  0.029894442 
number of iterations: 1807 
   12200    39.688915     2913          225         2688 2.2320632e-13 2.6029078e-13          0.1  0.009002967    4.5254993   0.02989436 
number of iterations: 1786 
   12300    39.915432     3020          227         2793 2.2616429e-13 2.7031393e-13          0.1 0.0090030026    4.4579482  0.029894277 
number of iterations: 1774 
   12400    40.148405     3128          231         2897 2.2916146e-13 2.8063993e-13          0.1 0.0090030256     4.385079  0.029894217 
number of iterations: 1731 
   12500    40.414316     3231          233         2998 2.3219835e-13 2.9126648e-13          0.1 0.0090030525    4.3069392  0.029894149 
number of iterations: 1720 
   12600     40.63163     3342          238         3104 2.3527549e-13 3.021899e-13          0.1 0.0090030842     4.223611  0.029894074 
number of iterations: 1751 
   12700    40.872686     3473          241         3232 2.3839341e-13  3.13404e-13          0.1 0.0090031079    4.1352141  0.029894013 
number of iterations: 1745 
   12800    41.124564     3607          245         3362 2.4155264e-13 3.2490122e-13          0.1 0.0090031353    4.0419115  0.029893945 
number of iterations: 1759 
   12900    41.387351     3746          248         3498 2.4475374e-13 3.3667188e-13          0.1 0.0090031688    3.9439116  0.029893868 
number of iterations: 1705 
   13000    41.637759     3899          253         3646 2.4799726e-13 3.4870395e-13          0.1 0.0090031899     3.841471  0.029893813 
number of iterations: 1758 
   13100    41.887691     4041          256         3785 2.5128377e-13 3.6098323e-13          0.1 0.0090032104    3.7348988  0.029893758 
number of iterations: 1746 
   13200    42.137945     4189          261         3928 2.5461383e-13 3.7349393e-13          0.1 0.0090032483    3.6245583  0.029893676 
number of iterations: 1850 
   13300    42.385224     4313          262         4051 2.5798802e-13 3.8621707e-13          0.1 0.0090032911    3.5108671  0.029893586 
number of iterations: 1758 
   13400    42.647526     4447          265         4182 2.6140692e-13 3.9913219e-13          0.1 0.0090033226    3.3942999  0.029893517 
number of iterations: 1759 
   13500    42.903344     4568          266         4302 2.6487113e-13 4.1221652e-13          0.1 0.0090033597    3.2753865  0.029893441 
number of iterations: 1723 
   13600    43.149374     4705          269         4436 2.6838125e-13 4.2544418e-13          0.1 0.0090033936     3.154709  0.029893371 
number of iterations: 1715 
   13700    43.411756     4824          274         4550 2.7193789e-13 4.3878843e-13          0.1 0.0090034291    3.0329001  0.029893299 
number of iterations: 1790 
   13800     43.75347     4979          276         4703 2.7554166e-13 4.5222184e-13          0.1 0.0090034853     2.910635  0.029893196 
number of iterations: 1756 
   13900    44.068644     5118          278         4840 2.7919319e-13 4.657142e-13          0.1 0.0090035169    2.7886237  0.029893135 
number of iterations: 1779 
   14000    44.328737     5281          278         5003 2.8289311e-13 4.7923641e-13          0.1 0.0090035704    2.6676014   0.02989304 
number of iterations: 1766 
   14100    44.570564     5433          281         5152 2.8664206e-13 4.9275902e-13          0.1 0.0090036266     2.548314  0.029892942 
number of iterations: 1713 
   14200    44.835382     5580          282         5298 2.9044069e-13 5.0625315e-13          0.1 0.0090036749    2.4315056  0.029892859 
number of iterations: 1793 
   14300    45.102174     5712          284         5428 2.9428967e-13 5.1969184e-13          0.1 0.0090037241    2.3178999  0.029892778 
number of iterations: 1744 
   14400    45.365335     5857          288         5569 2.9818965e-13 5.3305034e-13          0.1 0.0090037757    2.2081843  0.029892695 
number of iterations: 1795 
   14500    45.618468     6002          292         5710 3.0214131e-13 5.4630782e-13          0.1 0.0090038374    2.1029908  0.029892596 
number of iterations: 1802 
   14600    45.906725     6121          296         5825 3.0614534e-13 5.5944607e-13          0.1 0.0090039103    2.0028795  0.029892479 
number of iterations: 1803 
   14700    46.193774     6283          297         5986 3.1020243e-13 5.7231829e-13          0.1 0.0090039798    1.9084015   0.02989237 
number of iterations: 1839 
   14800    46.496064     6435          302         6133 3.1431329e-13 5.8504355e-13          0.1  0.009004057    1.8199196  0.029892249 
number of iterations: 1779 
   14900    46.768695     6589          310         6279 3.1847862e-13 5.9775715e-13          0.1 0.0090041155    1.7376123  0.029892161 
number of iterations: 1812 
   15000    47.052815     6744          314         6430 3.2269916e-13 6.1032672e-13          0.1 0.0090041919    1.6616322  0.029892042 
number of iterations: 1834 
   15100    47.369948     6905          320         6585 3.2697563e-13 6.2275678e-13          0.1 0.0090042844    1.5920201  0.029891896 
number of iterations: 1888 
   15200    47.723989     7052          323         6729 3.3130876e-13 6.3505609e-13          0.1 0.0090043736    1.5287116  0.029891755 
number of iterations: 1835 
   15300    48.027007     7198          326         6872 3.3569933e-13 6.4723731e-13          0.1 0.0090044568    1.4715454  0.029891624 
number of iterations: 1882 
   15400    48.316071     7326          330         6996 3.4014807e-13 6.5931475e-13          0.1 0.0090045447    1.4202769  0.029891484 
number of iterations: 1844 
   15500    48.588496     7456          335         7121 3.4465577e-13 6.7130758e-13          0.1 0.0090046217    1.3745934  0.029891361 
number of iterations: 1817 
   15600     48.89037     7600          338         7262 3.4922321e-13 6.8323514e-13          0.1 0.0090046843    1.3341293  0.029891261 
number of iterations: 1832 
   15700    49.204932     7718          339         7379 3.5385118e-13 6.9511655e-13          0.1 0.0090047629    1.2984838  0.029891134 
number of iterations: 1902 
   15800    49.514739     7847          350         7497 3.5854047e-13 7.0697247e-13          0.1 0.0090048448    1.2672359  0.029890999 
number of iterations: 1850 
   15900    49.808941     7969          354         7615 3.6329191e-13 7.1882174e-13          0.1  0.009004914    1.2399591  0.029890885 
number of iterations: 1839 
   16000    50.097997     8090          359         7731 3.6810632e-13 7.3068228e-13          0.1 0.0090049813    1.2162328  0.029890772 
number of iterations: 1795 
   16100    50.438923     8208          360         7848 3.7298453e-13 7.4257134e-13          0.1 0.0090050536    1.1956528  0.029890649 
number of iterations: 1854 
   16200    50.732964     8342          363         7979 3.7792738e-13 7.5450613e-13          0.1 0.0090051351    1.1778372   0.02989051 
number of iterations: 1801 
   16300    51.053846     8474          370         8104 3.8293574e-13 7.6640432e-13          0.1 0.0090051728    1.1624716  0.029890442 
number of iterations: 1872 
   16400    51.444525     8612          374         8238 3.8801047e-13 7.7847433e-13          0.1 0.0090052557    1.1491834  0.029890299 
number of iterations: 1868 
   16500    51.766615     8741          377         8364 3.9315245e-13 7.9063169e-13          0.1  0.009005317    1.1376822  0.029890189 
number of iterations: 1868 
   16600    52.082049     8863          381         8482 3.9836257e-13 8.0288836e-13          0.1 0.0090054031    1.1277084  0.029890038 
number of iterations: 1888 
   16700    52.396863     9004          387         8617 4.0364174e-13 8.1511456e-13          0.1 0.0090054984    1.1190873  0.029889871 
number of iterations: 1957 
   16800    52.726592     9151          394         8757 4.0899087e-13 8.2759499e-13          0.1 0.0090055958    1.1115545  0.029889699 
number of iterations: 1903 
   16900    53.048265     9292          398         8894 4.1441088e-13 8.402026e-13          0.1 0.0090056614    1.1049394   0.02988958 
number of iterations: 1925 
   17000    53.363448     9443          406         9037 4.1990272e-13 8.5294355e-13          0.1 0.0090057173    1.0990948  0.029889476 
number of iterations: 1948 
   17100    53.718676     9595          415         9180 4.2546734e-13 8.6548827e-13          0.1 0.0090058064    1.0940245  0.029889317 
number of iterations: 2023 
   17200     54.06706     9758          421         9337 4.311057e-13 8.7851153e-13          0.1 0.0090059026    1.0894648  0.029889145 
number of iterations: 1972 
   17300    54.412663     9887          426         9461 4.3681879e-13 8.9159895e-13          0.1 0.0090059599    1.0853656  0.029889038 
number of iterations: 2014 
   17400    54.736221    10039          433         9606 4.4260758e-13 9.0493281e-13          0.1 0.0090060536    1.0816158  0.029888869 
number of iterations: 2026 
   17500    55.127446    10191          447         9744 4.4847309e-13 9.1842768e-13          0.1 0.0090061117    1.0781575  0.029888759 
number of iterations: 2048 
   17600    55.473399    10334          455         9879 4.5441633e-13 9.3200652e-13          0.1 0.0090061939    1.0749749  0.029888609 
number of iterations: 2059 
   17700    55.830397    10473          459        10014 4.6043833e-13 9.458324e-13          0.1 0.0090062669    1.0719916  0.029888474 
number of iterations: 2074 
   17800    56.193766    10626          469        10157 4.6654013e-13 9.5973419e-13          0.1 0.0090063439    1.0692142  0.029888333 
number of iterations: 2096 
   17900    56.558661    10771          474        10297 4.727228e-13 9.7390617e-13          0.1 0.0090064453    1.0665734   0.02988815 
number of iterations: 2111 
   18000    56.987434    10934          479        10455 4.7898739e-13 9.8825454e-13          0.1 0.0090065161    1.0640507  0.029888018 
number of iterations: 2133 
   18100    57.348326    11083          488        10595 4.8533501e-13 1.0027855e-12          0.1 0.0090065873     1.061632  0.029887885 
number of iterations: 2151 
   18200    57.700547    11252          496        10756 4.9176675e-13 1.017501e-12          0.1 0.0090066606    1.0593049  0.029887748 
number of iterations: 2175 
   18300    58.074007    11417          500        10917 4.9828372e-13 1.0323315e-12          0.1 0.0090067623     1.057087  0.029887565 
number of iterations: 2198 
   18400     58.45462    11570          505        11065 5.0488705e-13 1.0473103e-12          0.1 0.0090068523    1.0549772    0.0298874 
number of iterations: 2214 
   18500    58.881945    11771          514        11257 5.115779e-13 1.0625126e-12          0.1 0.0090069414     1.052947  0.029887236 
number of iterations: 2231 
   18600    59.255946    11948          525        11423 5.1835741e-13 1.0779071e-12          0.1  0.009007045     1.050988  0.029887049 
number of iterations: 2241 
   18700    59.632551    12125          530        11595 5.2522676e-13 1.0935853e-12          0.1 0.0090071212    1.0490594  0.029886906 
number of iterations: 2261 
   18800    60.015474    12281          534        11747 5.3218715e-13 1.1094659e-12          0.1 0.0090072062    1.0471655  0.029886749 
number of iterations: 2283 
   18900    60.465494    12470          540        11930 5.3923978e-13 1.125471e-12          0.1 0.0090073113    1.0453376  0.029886558 
number of iterations: 2299 
   19000    60.870284    12658          548        12110 5.4638586e-13 1.1414915e-12          0.1 0.0090074045    1.0436378  0.029886387 
number of iterations: 2321 
   19100    61.255187    12841          552        12289 5.5362665e-13 1.1575231e-12          0.1 0.0090075057    1.0421119  0.029886202 
number of iterations: 2337 
   19200    61.651702    13023          559        12464 5.609634e-13 1.1741425e-12          0.1 0.0090076054    1.0405757  0.029886019 
number of iterations: 2352 
   19300    62.100046    13202          567        12635 5.6839737e-13 1.1909636e-12          0.1 0.0090077122    1.0390477  0.029885823 
number of iterations: 2376 
   19400    62.511227    13382          572        12810 5.7592986e-13 1.2079772e-12          0.1 0.0090078366    1.0375447  0.029885599 
number of iterations: 2397 
   19500    62.911583    13582          580        13002 5.8356217e-13 1.2252256e-12          0.1 0.0090079391    1.0360637  0.029885411 
number of iterations: 2416 
   19600    63.344455    13775          590        13185 5.9129562e-13 1.2426418e-12          0.1  0.009008043    1.0346278   0.02988522 
number of iterations: 2436 
   19700    63.789825    13965          594        13371 5.9913156e-13 1.260475e-12          0.1 0.0090081568    1.0331619  0.029885012 
number of iterations: 2459 
   19800    64.197253    14159          598        13561 6.0707134e-13 1.2784147e-12          0.1 0.0090082707    1.0317317  0.029884804 
number of iterations: 2480 
   19900    64.620095    14334          606        13728 6.1511633e-13 1.2967193e-12          0.1 0.0090083652     1.030286  0.029884628 
number of iterations: 2498 
   20000    65.051194    14540          612        13928 6.2326795e-13 1.3151727e-12          0.1 0.0090084878    1.0288716  0.029884405 
number of iterations: 2509 
   20100    65.470028    14748          619        14129 6.3152758e-13 1.3337093e-12          0.1  0.009008619    1.0275454  0.029884168 
number of iterations: 2536 
   20200    65.913797    14959          624        14335 6.3989668e-13 1.3526684e-12          0.1  0.009008728    1.0262205  0.029883967 
number of iterations: 2557 
   20300    66.319997    15188          634        14554 6.4837668e-13 1.3717888e-12          0.1 0.0090088411    1.0249365  0.029883759 
number of iterations: 2575 
   20400    66.762549    15405          642        14763 6.5696906e-13 1.3913211e-12          0.1 0.0090089739     1.023628  0.029883518 
number of iterations: 2597 
   20500     67.61767    15617          646        14971 6.6567531e-13 1.4105746e-12          0.1 0.0090090828    1.0225086  0.029883318 
number of iterations: 2625 
   20600    68.069362    15853          649        15204 6.7449693e-13 1.4306243e-12          0.1 0.0090091986    1.0213178  0.029883105 
number of iterations: 2642 
   20700    68.516135    16069          658        15411 6.8343546e-13 1.4507481e-12          0.1 0.0090093195    1.0201591  0.029882883 
number of iterations: 2672 
   20800     68.96838    16288          665        15623 6.9249244e-13 1.4711982e-12          0.1 0.0090094259    1.0190061  0.029882686 
number of iterations: 2697 
   20900     69.40687    16498          673        15825 7.0040477e-13 1.4918811e-12          0.1 0.0090095501    1.0169043  0.029882458 
number of iterations: 2722 
   21000    69.889229    16724          685        16039 7.0968663e-13 1.5129981e-12          0.1  0.009009663    1.0151581   0.02988225 
number of iterations: 2742 
   21100    70.388883    16968          691        16277 7.1909149e-13 1.5340398e-12          0.1  0.009009809    1.0137649  0.029881986 
number of iterations: 2766 
   21200    70.849097    17243          704        16539 7.2862099e-13 1.5556278e-12          0.1 0.0090099309    1.0124926  0.029881761 
number of iterations: 2791 
   21300    71.317621    17500          717        16783 7.3827677e-13 1.5774775e-12          0.1  0.009010068    1.0113089  0.029881512 
number of iterations: 2816 
   21400    71.812762    17719          730        16989 7.4806051e-13 1.599365e-12          0.1  0.009010213    1.0102745  0.029881248 
number of iterations: 2821 
   21500    72.271727    17957          742        17215 7.5797391e-13 1.6217981e-12          0.1 0.0090103624     1.009239  0.029880977 
number of iterations: 2843 
   21600     72.74442    18189          751        17438 7.6656631e-13 1.644336e-12          0.1 0.0090104922    1.0071629  0.029880738 
number of iterations: 2861 
   21700    73.232927    18438          761        17677 7.7672494e-13 1.667457e-12          0.1  0.009010637     1.005534  0.029880475 
number of iterations: 2879 
   21800    73.756973    18696          771        17925 7.870182e-13 1.690804e-12          0.1 0.0090107815    1.0041936  0.029880212 
number of iterations: 2901 
   21900    74.246559    18957          786        18171 7.9744787e-13 1.7142898e-12          0.1 0.0090109166    1.0030823  0.029879964 
number of iterations: 2928 
   22000    74.710416    19249          803        18446 8.0801575e-13 1.7382273e-12          0.1 0.0090110601    1.0020523  0.029879701 
number of iterations: 2948 
   22100    75.215555    19517          815        18702 8.1872367e-13 1.7621672e-12          0.1 0.0090111991    1.0011871  0.029879445 
number of iterations: 2965 
   22200    75.701483    19796          824        18972 8.295735e-13 1.7867502e-12          0.1 0.0090113196    1.0002969  0.029879219 
number of iterations: 3001 
   22300    76.214325    20053          831        19222 8.4056711e-13 1.8116127e-12          0.1   0.00901147   0.99941863  0.029878944 
number of iterations: 3020 
   22400     76.71228    20329          848        19481 8.5170641e-13 1.836383e-12          0.1 0.0090115975   0.99870306  0.029878707 
number of iterations: 3045 
   22500    77.227804    20608          859        19749 8.6299333e-13 1.861898e-12          0.1  0.009011766   0.99792579  0.029878401 
number of iterations: 3018 
   22600    77.760296    20882          870        20012 8.7343593e-13 1.8877234e-12          0.1 0.0090118969   0.99635901  0.029878157 
number of iterations: 3042 
   22700    78.282702    21157          885        20272 8.8501081e-13 1.913891e-12          0.1 0.0090120218    0.9951928  0.029877925 
number of iterations: 3062 
   22800    78.815478    21456          892        20564 8.9673908e-13 1.9406153e-12          0.1 0.0090121786   0.99415417  0.029877637 
number of iterations: 3088 
   22900    79.332395    21744          900        20844 9.0862277e-13 1.9676136e-12          0.1 0.0090123411   0.99321365   0.02987734 
number of iterations: 3121 
   23000    79.857154    22067          916        21151 9.2066395e-13 1.9947201e-12          0.1 0.0090125084   0.99241558  0.029877034 
number of iterations: 3141 
   23100    80.388868    22375          930        21445 9.3286469e-13 2.022272e-12          0.1 0.0090126407    0.9916581  0.029876786 
number of iterations: 3168 
   23200    80.919645    22692          939        21753 9.4522712e-13 2.0503644e-12          0.1 0.0090128255   0.99086298  0.029876451 
number of iterations: 3201 
   23300    81.462018    23007          948        22059 9.5775338e-13 2.0786404e-12          0.1  0.009013001   0.99012607  0.029876131 
number of iterations: 3234 
   23400    82.012738    23314          957        22357 9.6928757e-13 2.1073771e-12          0.1  0.009013142   0.98848774  0.029875867 
number of iterations: 3246 
   23500    82.618234    23670          965        22705 9.8213268e-13 2.1364938e-12          0.1 0.0090133181   0.98738075  0.029875546 
number of iterations: 3272 
   23600    83.205869    23985          973        23012 9.9514801e-13 2.1658867e-12          0.1 0.0090135094   0.98654542  0.029875199 
number of iterations: 3305 
   23700    83.800826    24313          990        23323 1.0083358e-12 2.1958001e-12          0.1 0.0090136698   0.98578449  0.029874902 
number of iterations: 3333 
   23800    84.392847    24637         1011        23626 1.0216984e-12 2.2260348e-12          0.1 0.0090138229   0.98508564  0.029874617 
number of iterations: 3361 
   23900    84.983324    24992         1023        23969 1.0352381e-12 2.2567786e-12          0.1 0.0090140048   0.98437989  0.029874285 
number of iterations: 3395 
   24000    85.568736    25334         1043        24291 1.0489571e-12 2.2878685e-12          0.1 0.0090141719   0.98370032  0.029873976 
number of iterations: 3430 
   24100     86.15695    25697         1060        24637 1.062858e-12 2.3192979e-12          0.1 0.0090143423   0.98306329   0.02987366 
number of iterations: 3461 
   24200    86.758666    26035         1066        24969 1.0769431e-12 2.3514491e-12          0.1 0.0090145544   0.98233825  0.029873274 
number of iterations: 3486 
   24300    87.594082    26371         1078        25293 1.0912149e-12 2.3834567e-12          0.1 0.0090147503   0.98179155  0.029872916 
number of iterations: 3511 
   24400    88.234594    26767         1093        25674 1.1056758e-12 2.4165973e-12          0.1 0.0090149474   0.98105965  0.029872555 
number of iterations: 3551 
   24500    88.832405    27120         1103        26017 1.1203283e-12 2.4494409e-12          0.1 0.0090151519    0.9805347  0.029872182 
number of iterations: 3582 
   24600    89.449796    27488         1120        26368 1.135175e-12 2.4833302e-12          0.1 0.0090153442    0.9798667  0.029871828 
number of iterations: 3603 
   24700    90.063628    27846         1134        26712 1.1502185e-12 2.5177778e-12          0.1 0.0090155475   0.97912027  0.029871455 
number of iterations: 3630 
   24800    90.713036    28220         1144        27076 1.1654613e-12 2.5521933e-12          0.1 0.0090157371   0.97853177  0.029871105 
number of iterations: 3661 
   24900     91.41454    28606         1162        27444 1.1809061e-12 2.5874398e-12          0.1 0.0090159834   0.97786226   0.02987066 
number of iterations: 3703 
   25000    92.067917    29026         1176        27850 1.1965556e-12 2.6231319e-12          0.1 0.0090161928   0.97718672  0.029870276 
number of iterations: 3730 
   25100     92.74405    29419         1185        28234 1.2124124e-12 2.6594242e-12          0.1 0.0090164096   0.97647056  0.029869878 
number of iterations: 3769 
   25200    93.409802    29838         1207        28631 1.2284794e-12 2.6960867e-12          0.1 0.0090166115   0.97579211  0.029869507 
number of iterations: 3802 
   25300    94.117662    30236         1222        29014 1.2447593e-12 2.7330817e-12          0.1 0.0090168323   0.97518508  0.029869102 
number of iterations: 3835 
   25400    94.773926    30631         1240        29391 1.261255e-12 2.7707653e-12          0.1 0.0090170434   0.97453198  0.029868713 
number of iterations: 3850 
   25500    95.456325    31049         1258        29791 1.2779692e-12 2.8089927e-12          0.1 0.0090172839   0.97385788  0.029868275 
number of iterations: 3892 
   25600    96.134359    31476         1279        30197 1.294905e-12 2.8477253e-12          0.1 0.0090175049   0.97319105  0.029867869 
number of iterations: 3853 
   25700    96.855189    31887         1288        30599 1.3107137e-12 2.8865224e-12          0.1 0.0090177431    0.9716298  0.029867434 
number of iterations: 3891 
   25800    97.556782    32327         1307        31020 1.3280834e-12 2.9261618e-12          0.1 0.0090179801   0.97085294  0.029867003 
number of iterations: 3927 
   25900     98.27951    32795         1322        31473 1.343534e-12 2.9664185e-12          0.1 0.0090181925   0.96853017   0.02986661 
number of iterations: 3956 
   26000    98.983113    33204         1332        31872 1.3602066e-12 3.0072121e-12          0.1 0.0090184235   0.96675952  0.029866191 
number of iterations: 4001 
   26100    99.684552    33680         1350        32330 1.3782322e-12 3.0487953e-12          0.1 0.0090186542   0.96589028  0.029865769 
number of iterations: 4030 
   26200    100.41375    34142         1368        32774 1.3964966e-12 3.0904648e-12          0.1 0.0090189154   0.96533085  0.029865295 
number of iterations: 4063 
   26300    101.15982    34631         1379        33252 1.4138122e-12 3.1329473e-12          0.1 0.0090191664   0.96380029  0.029864835 
number of iterations: 4095 
   26400    101.91361    35083         1398        33685 1.4317649e-12 3.1758816e-12          0.1 0.0090193827   0.96253018  0.029864435 
number of iterations: 4131 
   26500    102.66861    35575         1423        34152 1.4498187e-12 3.219643e-12          0.1 0.0090196026   0.96111194  0.029864028 
number of iterations: 4170 
   26600    103.43327    36064         1448        34616 1.4690318e-12 3.2637095e-12          0.1 0.0090198046   0.96050705  0.029863652 
number of iterations: 4205 
   26700    104.26125    36576         1465        35111 1.4884995e-12 3.3087855e-12          0.1 0.0090200798   0.95983099  0.029863149 
number of iterations: 4199 
   26800    105.03343    37055         1486        35569 1.5071205e-12 3.3543747e-12          0.1 0.0090203106   0.95832418   0.02986272 
number of iterations: 4239 
   26900    105.83526    37582         1504        36078 1.527093e-12 3.4004529e-12          0.1 0.0090205881   0.95769354  0.029862217 
number of iterations: 4240 
   27000    106.63575    38067         1518        36549 1.5464136e-12 3.4467629e-12          0.1 0.0090208251   0.95652639  0.029861776 
number of iterations: 4289 
   27100    107.45325    38619         1536        37083 1.5660092e-12 3.4940406e-12          0.1 0.0090211088   0.95525187   0.02986126 
number of iterations: 4328 
   27200    108.25469    39136         1556        37580 1.586762e-12 3.5423252e-12          0.1 0.0090213916   0.95456322  0.029860744 
number of iterations: 4348 
   27300    109.06299    39635         1578        38057 1.6077899e-12 3.5908174e-12          0.1 0.0090216876   0.95403678  0.029860205 
number of iterations: 4379 
   27400    109.90081    40147         1597        38550 1.6290964e-12 3.6400963e-12          0.1 0.0090219837   0.95346709  0.029859663 
number of iterations: 4415 
   27500    110.80259    40698         1617        39081 1.6506853e-12 3.690018e-12          0.1 0.0090222768   0.95291084  0.029859126 
number of iterations: 4447 
   27600    111.64349    41287         1638        39649 1.6725603e-12 3.7407572e-12          0.1 0.0090225512    0.9523069   0.02985862 
number of iterations: 4491 
   27700     112.5549    41840         1662        40178 1.6937797e-12 3.7921008e-12          0.1 0.0090227926   0.95100984  0.029858169 
number of iterations: 4527 
   27800    113.40699    42441         1690        40751 1.7162258e-12 3.8440487e-12          0.1 0.0090230805   0.95053727  0.029857642 
number of iterations: 4566 
   27900    114.31174    43071         1713        41358 1.7389693e-12 3.8970108e-12          0.1 0.0090234026   0.94989144  0.029857053 
number of iterations: 4608 
   28000    115.17494    43633         1744        41889 1.7610409e-12 3.9509414e-12          0.1 0.0090236507   0.94842446  0.029856588 
number of iterations: 4664 
   28100    116.06377    44201         1763        42438 1.7816925e-12 4.0049335e-12          0.1 0.0090239363   0.94595422  0.029856062 
number of iterations: 4710 
   28200     116.9541    44849         1791        43058 1.8053036e-12 4.0598836e-12          0.1 0.0090242374   0.94568386  0.029855515 
number of iterations: 4711 
   28300     117.8618    45470         1813        43657 1.8267545e-12 4.1153695e-12          0.1 0.0090245094    0.9432151  0.029855008 
number of iterations: 4759 
   28400     118.7929    46097         1837        44260 1.8499212e-12 4.1717173e-12          0.1 0.0090248361   0.94224286  0.029854415 
number of iterations: 4785 
   28500    119.73482    46718         1862        44856 1.8744364e-12 4.2287843e-12          0.1 0.0090251185   0.94183057  0.029853892 
number of iterations: 4820 
   28600    120.72297    47312         1890        45422 1.8992765e-12 4.2864642e-12          0.1 0.0090254366   0.94136081  0.029853306 
number of iterations: 4857 
   28700    121.67883    47993         1908        46085 1.9234789e-12 4.3452108e-12          0.1 0.0090257718   0.94005658  0.029852692 
number of iterations: 4902 
   28800    122.65035    48641         1931        46710 1.9489689e-12 4.4041214e-12          0.1  0.009026095   0.93993865  0.029852101 
number of iterations: 4933 
   28900     123.6337    49312         1956        47356 1.9747967e-12 4.4646643e-12          0.1 0.0090264239   0.93922581  0.029851494 
number of iterations: 4969 
   29000    124.66906    49989         1976        48013 2.0009668e-12 4.5262744e-12          0.1 0.0090267745   0.93859675  0.029850852 
number of iterations: 4993 
   29100    125.66049    50641         2002        48639 2.0274836e-12 4.5882264e-12          0.1 0.0090271628   0.93811613  0.029850146 
number of iterations: 5012 
   29200     126.6625    51366         2028        49338 2.0543519e-12 4.6510234e-12          0.1 0.0090275406   0.93758927  0.029849456 
number of iterations: 5007 
   29300    127.65863    52042         2052        49990 2.0804346e-12 4.7150202e-12          0.1 0.0090278801   0.93606535  0.029848829 
number of iterations: 5046 
   29400    128.68511    52767         2080        50687 2.1080045e-12 4.7799341e-12          0.1  0.009028254   0.93579309  0.029848149 
number of iterations: 5078 
   29500    129.74266    53481         2111        51370 2.1359398e-12 4.8450874e-12          0.1 0.0090285922   0.93528329  0.029847522 
number of iterations: 5096 
   29600     130.8762    54264         2141        52123 2.1628265e-12 4.9111459e-12          0.1 0.0090289695   0.93374953  0.029846832 
number of iterations: 5152 
   29700    131.92253    55055         2165        52890  2.19045e-12 4.9783063e-12          0.1 0.0090293078   0.93288085  0.029846208 
number of iterations: 5166 
   29800    133.06404    55807         2183        53624 2.2164183e-12 5.0464672e-12          0.1 0.0090296851   0.93012058  0.029845516 
number of iterations: 5222 
   29900    134.19033    56616         2214        54402 2.2422098e-12 5.1154529e-12          0.1 0.0090300024   0.92788158  0.029844931 
number of iterations: 5274 
   30000    135.39148    57321         2238        55083 2.2704969e-12 5.1851466e-12          0.1 0.0090304144   0.92722706  0.029844188 
number of iterations: 5289 
   30100    136.55617    58085         2265        55820 2.3005855e-12 5.2561249e-12          0.1 0.0090307626    0.9267917  0.029843542 
number of iterations: 5324 
   30200    137.72703    58882         2286        56596 2.3310729e-12 5.3280131e-12          0.1 0.0090311874   0.92626389  0.029842766 
number of iterations: 5350 
   30300    138.95695    59670         2321        57349 2.3619643e-12 5.4009373e-12          0.1 0.0090316028   0.92576991  0.029842008 
number of iterations: 5340 
   30400    140.16022    60459         2354        58105 2.3912649e-12 5.4743786e-12          0.1   0.00903195   0.92385128  0.029841361 
number of iterations: 5352 
   30500    141.39615    61263         2387        58876 2.4219729e-12 5.5493563e-12          0.1 0.0090322999   0.92340709  0.029840715 
number of iterations: 5289 
   30600    142.64861    62072         2419        59653 2.451751e-12 5.6249251e-12          0.1 0.0090327198   0.92116199  0.029839944 
number of iterations: 5274 
   30700    143.92925    62939         2444        60495 2.4830057e-12 5.7013146e-12          0.1  0.009033143   0.92101844  0.029839175 
number of iterations: 5297 
   30800    145.15808    63802         2474        61328 2.5146255e-12  5.77927e-12          0.1 0.0090335947   0.91928602  0.029838349 
number of iterations: 5316 
   30900    146.43284    64700         2509        62191 2.5479493e-12 5.8575577e-12          0.1 0.0090339853    0.9199175   0.02983763 
number of iterations: 5335 
   31000    147.74506    65554         2543        63011 2.5817147e-12 5.9373555e-12          0.1 0.0090344664    0.9187162  0.029836749 
number of iterations: 5220 
   31100    148.98192    66401         2571        63830 2.6110369e-12 6.0181032e-12          0.1 0.0090348142   0.91505419  0.029836097 
number of iterations: 5165 
   31200    150.24586    67252         2600        64652 2.6407106e-12 6.0995315e-12          0.1 0.0090352387   0.91343635  0.029835331 
number of iterations: 5200 
   31300    151.55651    68123         2631        65492 2.6757052e-12 6.1817192e-12          0.1 0.0090357104    0.9142718  0.029834475 
number of iterations: 5131 
   31400    152.85726    69070         2661        66409 2.7090909e-12 6.2647798e-12          0.1 0.0090360943    0.9115537  0.029833752 
number of iterations: 5078 
   31500    154.15656    69965         2690        67275 2.7406346e-12 6.3482776e-12          0.1 0.0090364788   0.91025826  0.029833045 
number of iterations: 4974 
   31600    155.43674    70862         2723        68139 2.7716764e-12 6.433329e-12          0.1 0.0090369502   0.90689591  0.029832187 
number of iterations: 5006 
   31700    156.73107    71818         2751        69067 2.8059736e-12 6.5206332e-12          0.1 0.0090374581   0.90735711  0.029831274 
number of iterations: 5035 
   31800    158.05994    72813         2790        70023 2.8431582e-12 6.6075379e-12          0.1 0.0090379565   0.90675664  0.029830359 
number of iterations: 4963 
   31900    159.37297    73785         2824        70961 2.8777306e-12 6.6958005e-12          0.1 0.0090383866   0.90463104  0.029829562 
number of iterations: 4974 
   32000    160.72661    74772         2855        71917 2.9134694e-12 6.784981e-12          0.1 0.0090388777   0.90469353  0.029828672 
number of iterations: 5002 
   32100    162.01694    75812         2896        72916 2.9520786e-12 6.8750228e-12          0.1 0.0090393567   0.90458693  0.029827789 
number of iterations: 4929 
   32200    163.33072    76794         2924        73870 2.9887898e-12 6.9654672e-12          0.1 0.0090398286   0.90300052  0.029826918 
number of iterations: 4869 
   32300    164.67994    77771         2963        74808 3.0258303e-12 7.0567873e-12          0.1 0.0090403309   0.90299543  0.029826003 
number of iterations: 4857 
   32400    166.01755    78892         3008        75884 3.0638589e-12 7.149048e-12          0.1 0.0090408278   0.90178915  0.029825091 
number of iterations: 4847 
   32500    167.37728    79930         3045        76885 3.1031431e-12 7.2426859e-12          0.1 0.0090413519   0.90247323  0.029824136 
number of iterations: 4784 
   32600    168.71688    80959         3086        77873 3.140103e-12 7.3369204e-12          0.1 0.0090418526   0.89894508  0.029823208 
number of iterations: 4769 
   32700    170.07797    81965         3125        78840 3.1775107e-12 7.4327063e-12          0.1 0.0090423228   0.90031247  0.029822358 
number of iterations: 4808 
   32800    171.47407    83039         3167        79872 3.2164554e-12 7.5301624e-12          0.1 0.0090428106   0.89647331  0.029821446 
number of iterations: 4834 
   32900    172.85325    84112         3209        80903 3.2555921e-12 7.6277554e-12          0.1 0.0090433604   0.89927908  0.029820464 
number of iterations: 4850 
   33000    174.28432    85183         3252        81931 3.298735e-12 7.7251882e-12          0.1 0.0090438572   0.89688917  0.029819526 
number of iterations: 4855 
   33100     175.6593    86310         3291        83019 3.339998e-12 7.8246269e-12          0.1 0.0090444251   0.89906591  0.029818502 
number of iterations: 4859 
   33200    177.05822    87433         3337        84096 3.3814808e-12 7.9243524e-12          0.1 0.0090450285   0.89524084  0.029817387 
number of iterations: 4727 
   33300     178.4944    88586         3365        85221 3.4116005e-12 8.0248502e-12          0.1 0.0090454752   0.89029907  0.029816575 
number of iterations: 4722 
   33400    179.89686    89674         3398        86276 3.4483523e-12 8.125931e-12          0.1  0.009046009   0.89230768  0.029815625 
number of iterations: 4434 
   33500    181.33011    90724         3420        87304 3.4763624e-12 8.2262023e-12          0.1 0.0090463301   0.87770713  0.029814981 
number of iterations: 4520 
   33600    182.84086    91827         3458        88369 3.5139822e-12 8.3286196e-12          0.1 0.0090468694   0.89490064  0.029814088 
number of iterations: 4460 
   33700    184.29049    93015         3508        89507 3.5507573e-12 8.4296755e-12          0.1 0.0090472469   0.86403277  0.029813245 
number of iterations: 4592 
   33800    185.71393    94102         3547        90555 3.5862018e-12 8.5366593e-12          0.1  0.009047866   0.90451607  0.029812332 
number of iterations: 4422 
   33900    187.16794    95334         3597        91737 3.6257087e-12 8.6365239e-12          0.1 0.0090480205   0.83818418  0.029811692 
number of iterations: 4747 
   34000    188.63531    96448         3636        92812 3.6577652e-12 8.7492405e-12          0.1 0.0090487923   0.93452495  0.029810785 
number of iterations: 4350 
   34100    190.06654    97641         3667        93974 3.6960931e-12 8.8412159e-12          0.1 0.0090486523    0.7749869  0.029810227 
number of iterations: 5254 
   34200    191.64526    98713         3704        95009 3.7388887e-12 8.9669107e-12          0.1 0.0090502895      1.04206  0.029808586 
number of iterations: 4271 
   34300    193.07176   100069         3730        96339  3.77554e-12 9.0361794e-12          0.1 0.0090489112   0.59463307  0.029808826 
number of iterations: 6888 
   34400    194.88256   100898         3768        97130 3.8159048e-12 9.2042729e-12          0.1 0.0090527057    1.3935849  0.029805859 
number of iterations: 4579 
   34500    196.34782   102692         3801        98891 3.8545792e-12 9.2044517e-12          0.1 0.0090477414   0.16419532  0.029808216 
number of iterations: 26172 
   34600    200.64898   102813         3840        98973 3.8936213e-12 9.4586818e-12          0.1 0.0090576612     2.469505   0.02980158 
number of iterations: 4330 
   34700    202.11168   105419         3892       101527 3.9307324e-12 9.4414277e-12          0.1 0.0090432825   0.05181214  0.029809767 
number of iterations: 144913 
   34800    221.65369   105367         3929       101438 3.9684956e-12 9.7167474e-12          0.1 0.0090595075    2.7502425  0.029799327 
number of iterations: 4339 
   34900    223.15119   108233         3975       104258 4.0142784e-12 9.6979673e-12          0.1 0.0090429347  0.043268716  0.029808691 
number of iterations: 177881 
   35000    246.96027   108177         4011       104166 4.0492068e-12 9.9836367e-12          0.1  0.009060575    2.7961784  0.029797487 
Loop time of 246.96 on 32 procs for 35000 steps with 108177 atoms

Performance: 122448822.231 tau/day, 141.723 timesteps/s
94.4% CPU use with 32 MPI tasks x no OpenMP threads

MPI task timing breakdown:
Section |  min time  |  avg time  |  max time  |%varavg| %total
---------------------------------------------------------------
Pair    | 0.080756   | 5.7008     | 16.523     | 135.9 |  2.31
Neigh   | 0.034878   | 1.8631     | 4.3022     |  61.9 |  0.75
Comm    | 1.2758     | 2.0448     | 2.5749     |  26.5 |  0.83
Output  | 57.468     | 57.469     | 57.477     |   0.0 | 23.27
Modify  | 164.31     | 165        | 165.71     |   2.2 | 66.81
Other   |            | 14.89      |            |       |  6.03

Nlocal:    3380.53 ave 5683 max 273 min
Histogram: 1 0 1 1 9 6 6 4 3 1
Nghost:    2031.91 ave 3115 max 319 min
Histogram: 1 1 2 4 3 3 5 3 6 4
Neighs:    28451.8 ave 53486 max 1765 min
Histogram: 1 1 1 7 7 6 3 2 3 1

Total # of neighbors = 910456
Ave neighs/atom = 8.41635
Neighbor list builds = 866
Dangerous builds = 0
#shell cd ..
#clear
#next reps
#jump SELF
Total wall time: 0:04:07
