 NUFEB Simulation

     100 atoms 
     2 atom types 
     4 nutrients 

  0.0e-4   1.00e-04  xlo xhi 
  0.0e-4   1.00e-04  ylo yhi 
  0.0e-4   1.00e-05  zlo zhi 

 Atoms 

     1 1 1.80e-06  370 3.12e-05 2.72e-05 2.86e-06 1.80e-06 
     2 1 1.40e-06  370 1.15e-05 4.10e-05 2.24e-06 1.40e-06 
     3 1 1.85e-06  370 3.89e-05 7.54e-05 1.88e-06 1.85e-06 
     4 1 1.73e-06  370 3.35e-05 7.11e-05 2.01e-06 1.73e-06 
     5 1 1.55e-06  370 4.52e-05 5.87e-05 8.27e-06 1.55e-06 
     6 1 1.45e-06  370 4.45e-05 2.05e-05 8.06e-06 1.45e-06 
     7 1 1.62e-06  370 9.61e-05 2.26e-05 4.28e-06 1.62e-06 
     8 1 1.62e-06  370 4.90e-05 7.36e-05 2.52e-06 1.62e-06 
     9 1 1.63e-06  370 5.16e-05 3.99e-05 6.64e-06 1.63e-06 
     10 1 1.44e-06  370 6.52e-05 1.36e-05 5.47e-06 1.44e-06 
     11 1 1.70e-06  370 4.87e-06 1.11e-05 2.46e-06 1.70e-06 
     12 1 1.67e-06  370 4.64e-05 7.65e-05 5.92e-06 1.67e-06 
     13 1 1.59e-06  370 4.32e-05 1.79e-05 8.13e-06 1.59e-06 
     14 1 1.77e-06  370 1.02e-05 4.62e-05 7.86e-06 1.77e-06 
     15 1 1.93e-06  370 8.58e-05 8.37e-05 4.38e-06 1.93e-06 
     16 1 1.75e-06  370 5.11e-05 8.17e-05 2.46e-06 1.75e-06 
     17 1 1.58e-06  370 6.88e-05 1.02e-05 4.76e-06 1.58e-06 
     18 1 1.65e-06  370 2.13e-05 3.89e-05 8.06e-06 1.65e-06 
     19 1 1.52e-06  370 3.29e-05 5.38e-05 7.51e-06 1.52e-06 
     20 1 1.80e-06  370 6.69e-05 8.13e-05 2.01e-06 1.80e-06 
     21 1 1.45e-06  370 7.99e-05 2.79e-05 8.49e-06 1.45e-06 
     22 1 1.39e-06  370 7.90e-06 4.40e-06 6.72e-06 1.39e-06 
     23 1 1.54e-06  370 4.03e-05 6.19e-05 8.14e-06 1.54e-06 
     24 1 1.57e-06  370 9.51e-05 7.14e-05 2.41e-06 1.57e-06 
     25 1 1.55e-06  370 4.75e-05 2.18e-05 1.58e-06 1.55e-06 
     26 1 1.49e-06  370 9.85e-05 4.55e-05 3.45e-06 1.49e-06 
     27 1 1.63e-06  370 2.63e-05 3.30e-05 5.77e-06 1.63e-06 
     28 1 1.42e-06  370 2.48e-05 3.09e-05 6.87e-06 1.42e-06 
     29 1 1.39e-06  370 1.43e-06 1.93e-05 7.25e-06 1.39e-06 
     30 1 1.55e-06  370 2.79e-05 1.40e-05 6.64e-06 1.55e-06 
     31 1 1.62e-06  370 6.52e-05 2.08e-05 6.03e-06 1.62e-06 
     32 1 1.56e-06  370 8.72e-05 6.19e-05 4.59e-06 1.56e-06 
     33 1 1.73e-06  370 7.82e-05 2.14e-05 7.44e-06 1.73e-06 
     34 1 1.67e-06  370 7.73e-05 9.71e-05 5.08e-06 1.67e-06 
     35 1 1.92e-06  370 8.49e-05 3.17e-05 6.43e-06 1.92e-06 
     36 1 1.68e-06  370 4.00e-06 6.49e-05 2.54e-06 1.68e-06 
     37 1 1.50e-06  370 1.84e-05 3.92e-05 4.06e-06 1.50e-06 
     38 1 1.43e-06  370 3.81e-05 5.28e-06 6.51e-06 1.43e-06 
     39 1 1.83e-06  370 5.31e-05 2.51e-05 6.83e-06 1.83e-06 
     40 1 1.66e-06  370 7.93e-05 2.24e-05 3.16e-06 1.66e-06 
     41 1 1.60e-06  370 5.86e-05 2.32e-05 6.25e-06 1.60e-06 
     42 1 1.59e-06  370 2.51e-05 2.66e-05 4.05e-06 1.59e-06 
     43 1 1.40e-06  370 8.85e-05 5.10e-05 5.66e-06 1.40e-06 
     44 1 1.62e-06  370 7.99e-05 7.46e-05 5.51e-06 1.62e-06 
     45 1 1.82e-06  370 1.98e-06 6.71e-05 5.92e-06 1.82e-06 
     46 1 1.50e-06  370 4.83e-05 5.43e-06 1.85e-06 1.50e-06 
     47 1 1.76e-06  370 9.81e-05 8.67e-05 6.47e-06 1.76e-06 
     48 1 1.60e-06  370 7.73e-05 9.38e-05 2.32e-06 1.60e-06 
     49 1 1.83e-06  370 6.74e-05 7.89e-05 7.91e-06 1.83e-06 
     50 1 1.44e-06  370 7.23e-06 1.91e-05 5.41e-06 1.44e-06 
     51 2 1.38e-06  230 2.16e-05 3.53e-05 6.04e-06 1.38e-06 
     52 2 9.11e-07  230 4.20e-05 2.58e-05 8.43e-06 9.11e-07 
     53 2 1.14e-06  230 2.55e-05 6.55e-05 3.51e-06 1.14e-06 
     54 2 1.25e-06  230 6.12e-05 3.88e-05 1.34e-06 1.25e-06 
     55 2 1.26e-06  230 9.87e-05 6.30e-05 6.47e-06 1.26e-06 
     56 2 1.32e-06  230 1.61e-05 7.79e-05 2.36e-06 1.32e-06 
     57 2 1.15e-06  230 2.22e-05 6.16e-05 2.31e-06 1.15e-06 
     58 2 1.04e-06  230 5.94e-05 2.53e-05 3.37e-06 1.04e-06 
     59 2 1.07e-06  230 8.58e-05 1.77e-05 3.42e-06 1.07e-06 
     60 2 9.96e-07  230 8.53e-05 6.39e-05 2.48e-06 9.96e-07 
     61 2 1.01e-06  230 7.10e-05 4.74e-05 2.45e-06 1.01e-06 
     62 2 1.32e-06  230 6.35e-05 7.31e-05 3.25e-06 1.32e-06 
     63 2 1.36e-06  230 2.39e-05 3.93e-05 3.77e-06 1.36e-06 
     64 2 1.02e-06  230 3.69e-05 6.74e-05 4.68e-06 1.02e-06 
     65 2 1.32e-06  230 2.37e-06 6.02e-05 3.14e-06 1.32e-06 
     66 2 1.17e-06  230 2.69e-05 7.85e-05 5.49e-06 1.17e-06 
     67 2 1.13e-06  230 8.30e-05 7.43e-05 7.71e-06 1.13e-06 
     68 2 1.33e-06  230 1.94e-05 4.53e-05 8.38e-06 1.33e-06 
     69 2 1.30e-06  230 1.21e-05 2.38e-05 8.64e-06 1.30e-06 
     70 2 1.24e-06  230 6.60e-05 4.57e-05 3.64e-06 1.24e-06 
     71 2 1.08e-06  230 4.65e-05 1.07e-05 7.22e-06 1.08e-06 
     72 2 1.14e-06  230 1.65e-05 2.93e-05 2.52e-06 1.14e-06 
     73 2 1.07e-06  230 3.52e-05 1.76e-05 3.91e-06 1.07e-06 
     74 2 1.28e-06  230 1.58e-05 9.59e-05 2.98e-06 1.28e-06 
     75 2 9.10e-07  230 4.74e-05 8.81e-05 3.40e-06 9.10e-07 
     76 2 1.06e-06  230 5.50e-05 2.37e-05 8.91e-06 1.06e-06 
     77 2 1.08e-06  230 3.68e-05 6.06e-05 6.76e-06 1.08e-06 
     78 2 1.31e-06  230 6.46e-05 8.70e-05 4.82e-06 1.31e-06 
     79 2 1.11e-06  230 4.36e-05 6.08e-06 6.13e-06 1.11e-06 
     80 2 1.28e-06  230 8.01e-05 3.43e-05 7.85e-06 1.28e-06 
     81 2 1.23e-06  230 5.97e-05 9.23e-05 4.49e-06 1.23e-06 
     82 2 1.29e-06  230 1.59e-05 8.67e-06 8.28e-06 1.29e-06 
     83 2 1.08e-06  230 2.51e-05 6.71e-05 8.04e-06 1.08e-06 
     84 2 1.10e-06  230 9.81e-05 5.71e-05 3.58e-06 1.10e-06 
     85 2 1.21e-06  230 3.65e-05 5.89e-05 4.87e-06 1.21e-06 
     86 2 1.36e-06  230 2.12e-05 1.76e-05 8.59e-06 1.36e-06 
     87 2 1.30e-06  230 3.89e-05 7.68e-06 5.28e-06 1.30e-06 
     88 2 1.38e-06  230 2.98e-05 1.17e-05 5.57e-06 1.38e-06 
     89 2 8.86e-07  230 7.54e-05 6.42e-05 4.59e-06 8.86e-07 
     90 2 1.31e-06  230 4.81e-05 4.18e-05 1.38e-06 1.31e-06 
     91 2 1.36e-06  230 8.89e-05 5.27e-06 2.07e-06 1.36e-06 
     92 2 1.22e-06  230 8.70e-05 3.71e-05 2.80e-06 1.22e-06 
     93 2 1.24e-06  230 8.53e-05 9.16e-05 7.97e-06 1.24e-06 
     94 2 1.24e-06  230 3.58e-05 7.26e-05 4.27e-06 1.24e-06 
     95 2 1.31e-06  230 9.83e-05 3.05e-06 7.23e-06 1.31e-06 
     96 2 1.31e-06  230 1.80e-05 3.88e-05 8.28e-06 1.31e-06 
     97 2 1.16e-06  230 5.23e-05 4.28e-05 4.00e-06 1.16e-06 
     98 2 9.69e-07  230 3.39e-05 2.78e-06 5.70e-06 9.69e-07 
     99 2 9.13e-07  230 6.55e-05 7.40e-05 3.82e-06 9.13e-07 
     100 2 1.21e-06  230 2.56e-05 4.94e-05 6.51e-06 1.21e-06 

 Nutrients 

     1 sub g nn nn nn 1.00e-01 1.00e-01 
     2 o2 l nn nn nd 9.00e-03 9.00e-03 
     3 suc l nn nn nn 3.42e-20 3.42e-20 
     4 co2 l nn nn nd 2.99e-02 2.99e-02 

 Type Name 

     1 cyano  
     2 ecw  

 Diffusion Coeffs 

     sub 0 
     o2 2.3e-09 
     suc 5.2e-10 
     co2 1.9e-09 

 Growth Rate 

     cyano 1.67e-05 
     ecw 9e-06 

 Ks 

     cyano 0.00035 0.0002 0.01 0.000138 
     ecw 0 0.001 3.6 0.05 

 Yield 

     cyano 0.55 
     ecw 0.43 

 Maintenance 

     cyano 0 
     ecw 9.5e-07 

 Decay 

     cyano 0 
     ecw 0 



