LAMMPS (20 Nov 2019)
Reading data file ...
  orthogonal box = (0 0 0) to (0.0001 0.0001 5e-05)
  2 by 2 by 2 MPI processor grid
  reading atoms ...
  50 atoms
  4 nutrients
Lattice spacing in x,y,z = 100 100 100
50 atoms in group CYANO
0 atoms in group ECW
Model is defined as a closed system. 
Neighbor list info ...
  update every 1 steps, delay 0 steps, check yes
  max neighbors/atom: 5000, page size: 100000
  master list distance cutoff = 2.43e-06
  ghost atom cutoff = 2.43e-06
  binsize = 1.215e-06, bins = 83 83 42
  1 neighbor lists, perpetual/occasional/extra = 1 0 0
  (1) pair gran/hooke/history, perpetual
      attributes: half, newton off, size, history
      pair build: half/size/bin/newtoff
      stencil: half/bin/3d/newtoff
      bin: standard
Setting up Verlet run ...
  Unit style    : lj
  Current step  : 0
  Time step     : 10
Per MPI rank memory allocation (min/avg/max) = 6.973 | 10.23 | 12.35 Mbytes
Step CPU Atoms c_myNtypes[1] c_myNtypes[2] c_myMass[1] c_myMass[2] c_myCon[1] c_myCon[2] c_myCon[3] c_myCon[4] 
       0            0       50           50            0 4.3216553e-14            0          0.1        0.009     3.42e-20       0.0299 
number of iterations: 325990 
     100    5.5156758       50           50            0 4.3936108e-14            0          0.1 0.0090039671 0.0077069826  0.029893395 
number of iterations: 25015 
     200    6.1404263       50           50            0 4.4667644e-14            0          0.1 0.0090040331  0.015300912  0.029893285 
number of iterations: 25103 
     300    6.7136541       50           50            0 4.541136e-14            0          0.1 0.0090041003  0.023019419  0.029893173 
number of iterations: 25191 
     400    7.3365971       51           51            0 4.6167458e-14            0          0.1 0.0090041686  0.030865654   0.02989306 
number of iterations: 25279 
     500    7.9120822       52           52            0 4.6936145e-14            0          0.1  0.009004238  0.038842058  0.029892944 
number of iterations: 25384 
     600    8.4852518       53           53            0 4.7717631e-14            0          0.1 0.0090043085  0.046950941  0.029892826 
number of iterations: 25455 
     700    9.0746643       53           53            0 4.8512129e-14            0          0.1 0.0090043803  0.055194609  0.029892707 
number of iterations: 25551 
     800    9.6675943       54           54            0 4.9319855e-14            0          0.1 0.0090044532  0.063575452  0.029892586 
number of iterations: 25631 
     900    10.252786       55           55            0 5.014103e-14            0          0.1 0.0090045274  0.072095689  0.029892462 
number of iterations: 25719 
    1000    10.844709       55           55            0 5.0975877e-14            0          0.1 0.0090046028  0.080757669  0.029892337 
number of iterations: 25806 
    1100    11.428898       58           58            0 5.1824625e-14            0          0.1 0.0090046794  0.089563749  0.029892209 
number of iterations: 25895 
    1200    12.044675       59           59            0 5.2687504e-14            0          0.1 0.0090047573  0.098516364  0.029892079 
number of iterations: 25983 
    1300    12.672188       59           59            0 5.356475e-14            0          0.1 0.0090048365   0.10761797  0.029891947 
number of iterations: 26071 
    1400    13.285714       60           60            0 5.4456602e-14            0          0.1 0.0090049171   0.11687104  0.029891813 
number of iterations: 26159 
    1500    13.911714       60           60            0 5.5363303e-14            0          0.1 0.0090049989   0.12627813  0.029891677 
number of iterations: 26247 
    1600    14.551081       60           60            0 5.6285101e-14            0          0.1 0.0090050822   0.13584178  0.029891538 
number of iterations: 26335 
    1700    15.129736       60           60            0 5.7222246e-14            0          0.1 0.0090051668   0.14556463  0.029891397 
number of iterations: 26423 
    1800    15.741706       60           60            0 5.8174995e-14            0          0.1 0.0090052528   0.15544931  0.029891254 
number of iterations: 26511 
    1900    16.328572       60           60            0 5.9143608e-14            0          0.1 0.0090053403   0.16549853  0.029891109 
number of iterations: 26599 
    2000    16.955955       60           60            0 6.0128348e-14            0          0.1 0.0090054292   0.17571504   0.02989096 
number of iterations: 26687 
    2100    17.580472       61           61            0 6.1129483e-14            0          0.1 0.0090055196   0.18610161   0.02989081 
number of iterations: 26775 
    2200    18.178453       61           61            0 6.2147287e-14            0          0.1 0.0090056115   0.19666109  0.029890657 
number of iterations: 26864 
    2300    18.793192       63           63            0 6.3182038e-14            0          0.1 0.0090057049   0.20739635  0.029890501 
number of iterations: 26952 
    2400    19.400568       63           63            0 6.4234018e-14            0          0.1 0.0090057999   0.21831033  0.029890343 
number of iterations: 27040 
    2500    20.014826       65           65            0 6.5303512e-14            0          0.1 0.0090058965   0.22940599  0.029890182 
number of iterations: 27128 
    2600    20.641942       67           67            0 6.6390814e-14            0          0.1 0.0090059947   0.24068637  0.029890019 
number of iterations: 27216 
    2700    21.280089       67           67            0 6.7496219e-14            0          0.1 0.0090060945   0.25215455  0.029889853 
number of iterations: 27304 
    2800    21.882818       68           68            0 6.8620029e-14            0          0.1  0.009006196   0.26381364  0.029889684 
number of iterations: 27393 
    2900    22.561905       68           68            0 6.9762551e-14            0          0.1 0.0090062991   0.27566684  0.029889512 
number of iterations: 27481 
    3000    23.195834       70           70            0 7.0924095e-14            0          0.1  0.009006404   0.28771737  0.029889337 
number of iterations: 28610 
    3100    23.860808       72           72            0 7.2104979e-14            0          0.1 0.0090065289   0.29996851  0.029889129 
number of iterations: 27674 
    3200    24.513061       74           74            0 7.3305525e-14            0          0.1 0.0090066376   0.31242362  0.029888948 
number of iterations: 27764 
    3300    25.146987       75           75            0 7.452606e-14            0          0.1 0.0090067481   0.32508609  0.029888764 
number of iterations: 27853 
    3400    25.783832       75           75            0 7.5766916e-14            0          0.1 0.0090068605   0.33795937  0.029888577 
number of iterations: 27941 
    3500    26.407917       77           77            0 7.7028433e-14            0          0.1 0.0090069747   0.35104699  0.029888387 
number of iterations: 28028 
    3600     27.05886       78           78            0 7.8310954e-14            0          0.1 0.0090070908   0.36435244  0.029888194 
number of iterations: 28117 
    3700    27.733409       79           79            0 7.9614829e-14            0          0.1 0.0090072089   0.37787941  0.029887997 
number of iterations: 28206 
    3800    28.365361       83           83            0 8.0940413e-14            0          0.1 0.0090073289   0.39163158  0.029887797 
number of iterations: 28294 
    3900    28.996153       83           83            0 8.2288068e-14            0          0.1  0.009007451   0.40561272  0.029887594 
number of iterations: 28382 
    4000    29.640855       85           85            0 8.3658161e-14            0          0.1  0.009007575   0.41982662  0.029887387 
number of iterations: 28471 
    4100    30.291974       85           85            0 8.5051067e-14            0          0.1 0.0090077012   0.43427717  0.029887177 
number of iterations: 28559 
    4200    31.004048       87           87            0 8.6467164e-14            0          0.1 0.0090078294   0.44896831  0.029886964 
number of iterations: 28648 
    4300    31.735437       87           87            0 8.7906839e-14            0          0.1 0.0090079598   0.46390404  0.029886747 
number of iterations: 28736 
    4400    32.419054       88           88            0 8.9370484e-14            0          0.1 0.0090080923   0.47908843  0.029886526 
number of iterations: 28824 
    4500    33.050203       89           89            0 9.0858499e-14            0          0.1  0.009008227   0.49452564  0.029886302 
number of iterations: 28927 
    4600    33.717178       90           90            0 9.2371289e-14            0          0.1  0.009008364   0.51021985  0.029886074 
number of iterations: 29001 
    4700    34.344752       91           91            0 9.3909267e-14            0          0.1 0.0090085033   0.52617536  0.029885842 
number of iterations: 29089 
    4800    34.986937       93           93            0 9.5472853e-14            0          0.1 0.0090086449   0.54239651  0.029885606 
number of iterations: 29178 
    4900    35.647314       93           93            0 9.7062472e-14            0          0.1 0.0090087888   0.55888773  0.029885366 
number of iterations: 29266 
    5000    36.309029       93           93            0 9.8678558e-14            0          0.1 0.0090089351   0.57565352  0.029885123 
number of iterations: 29355 
    5100     36.98157       95           95            0 1.0032155e-13            0          0.1 0.0090090839   0.59269845  0.029884875 
number of iterations: 29443 
    5200    37.649064       95           95            0 1.019919e-13            0          0.1 0.0090092352   0.61002716  0.029884623 
number of iterations: 29824 
    5300    38.312489       98           98            0 1.0369006e-13            0          0.1 0.0090093955   0.62764437  0.029884356 
number of iterations: 29909 
    5400    38.966372      101          101            0 1.054165e-13            0          0.1 0.0090095585   0.64555487  0.029884085 
number of iterations: 29718 
    5500    39.620836      102          102            0 1.0717168e-13            0          0.1 0.0090097177   0.66376358   0.02988382 
number of iterations: 29807 
    5600    40.298775      104          104            0 1.0895608e-13            0          0.1 0.0090098795   0.68227544   0.02988355 
number of iterations: 29895 
    5700     40.94869      105          105            0 1.1077019e-13            0          0.1  0.009010044   0.70109552  0.029883276 
number of iterations: 29984 
    5800    41.610271      107          107            0 1.1261451e-13            0          0.1 0.0090102112   0.72022894  0.029882998 
number of iterations: 29283 
    5900    42.272316      110          110            0 1.1448954e-13            0          0.1  0.009010362   0.73968093  0.029882747 
number of iterations: 30149 
    6000    42.955765      113          113            0 1.1639578e-13            0          0.1 0.0090105345    0.7594568   0.02988246 
number of iterations: 30238 
    6100    43.599441      116          116            0 1.1833376e-13            0          0.1 0.0090107099   0.77956193  0.029882168 
number of iterations: 30326 
    6200    44.276345      118          118            0 1.2030401e-13            0          0.1 0.0090108882    0.8000018  0.029881871 
number of iterations: 30415 
    6300    44.946469      121          121            0 1.2230707e-13            0          0.1 0.0090110695   0.82078197  0.029881569 
number of iterations: 29900 
    6400    45.614225      126          126            0 1.2434347e-13            0          0.1 0.0090112379   0.84190814  0.029881288 
number of iterations: 31128 
    6500    46.308252      130          130            0 1.2641379e-13            0          0.1 0.0090114412   0.86338603   0.02988095 
number of iterations: 30681 
    6600    47.003419      134          134            0 1.2851857e-13            0          0.1 0.0090116317   0.88522151  0.029880633 
number of iterations: 30770 
    6700    47.723968      134          134            0 1.3065839e-13            0          0.1 0.0090118254   0.90742054   0.02988031 
number of iterations: 30858 
    6800    48.429541      135          135            0 1.3283385e-13            0          0.1 0.0090120223   0.92998917  0.029879982 
number of iterations: 30947 
    6900    49.094952      137          137            0 1.3504552e-13            0          0.1 0.0090122224   0.95293358  0.029879649 
number of iterations: 31031 
    7000    49.759385      137          137            0 1.3729402e-13            0          0.1  0.009012426   0.97626004   0.02987931 
number of iterations: 31124 
    7100     50.43234      137          137            0 1.3957996e-13            0          0.1 0.0090126328   0.99997488  0.029878966 
number of iterations: 31212 
    7200    51.121528      138          138            0 1.4190396e-13            0          0.1 0.0090128432    1.0240846  0.029878615 
number of iterations: 31300 
    7300    51.815491      142          142            0 1.4426665e-13            0          0.1  0.009013057    1.0485956  0.029878259 
number of iterations: 31390 
    7400     52.52584      144          144            0 1.4666868e-13            0          0.1 0.0090132744    1.0735147  0.029877897 
number of iterations: 31479 
    7500    53.220425      144          144            0 1.491107e-13            0          0.1 0.0090134955    1.0988488  0.029877529 
number of iterations: 31568 
    7600    53.921957      145          145            0 1.5159338e-13            0          0.1 0.0090137202    1.1246046  0.029877155 
number of iterations: 31657 
    7700    54.652748      150          150            0 1.541174e-13            0          0.1 0.0090139486    1.1507893  0.029876775 
number of iterations: 32319 
    7800    55.369283      154          154            0 1.5668344e-13            0          0.1 0.0090142039    1.1774098   0.02987635 
number of iterations: 31844 
    7900    56.060897      155          155            0 1.5929221e-13            0          0.1 0.0090144404    1.2044735  0.029875956 
number of iterations: 31933 
    8000    56.756064      159          159            0 1.6194441e-13            0          0.1 0.0090146808    1.2319878  0.029875556 
number of iterations: 32022 
    8100    57.486624      162          162            0 1.6464078e-13            0          0.1 0.0090149253    1.2599603  0.029875149 
number of iterations: 32109 
    8200    58.211981      165          165            0 1.6738203e-13            0          0.1 0.0090151738    1.2883984  0.029874735 
number of iterations: 31812 
    8300    58.916117      168          168            0 1.7016893e-13            0          0.1 0.0090154089    1.3173101  0.029874343 
number of iterations: 32279 
    8400     59.61197      170          170            0 1.7300223e-13            0          0.1 0.0090156655    1.3467033  0.029873916 
number of iterations: 32370 
    8500    60.313581      172          172            0 1.758827e-13            0          0.1 0.0090159263    1.3765859  0.029873482 
number of iterations: 32460 
    8600    61.014754      176          176            0 1.7881113e-13            0          0.1 0.0090161915    1.4069659   0.02987304 
number of iterations: 32547 
    8700    61.725242      179          179            0 1.8178832e-13            0          0.1 0.0090164611    1.4378519  0.029872591 
number of iterations: 32637 
    8800    62.486418      183          183            0 1.8481508e-13            0          0.1 0.0090167352     1.469252  0.029872135 
number of iterations: 32729 
    8900    63.216435      184          184            0 1.8789224e-13            0          0.1 0.0090170138    1.5011749  0.029871671 
number of iterations: 32818 
    9000    63.953752      187          187            0 1.9102062e-13            0          0.1 0.0090172971    1.5336294  0.029871199 
number of iterations: 33372 
    9100    64.675472      188          188            0 1.942011e-13            0          0.1 0.0090176082    1.5666242  0.029870681 
number of iterations: 32381 
    9200    65.387181      195          195            0 1.9743453e-13            0          0.1 0.0090178692    1.6001683  0.029870247 
number of iterations: 33557 
    9300    66.111884      196          196            0 2.0072179e-13            0          0.1 0.0090181912    1.6342709   0.02986971 
number of iterations: 34143 
    9400    66.930785      201          201            0 2.0406379e-13            0          0.1 0.0090185439    1.6689413  0.029869123 
number of iterations: 33283 
    9500    67.777362      203          203            0 2.0746143e-13            0          0.1 0.0090188527    1.7041889  0.029868609 
number of iterations: 33372 
    9600    68.601901      204          204            0 2.1091564e-13            0          0.1 0.0090191666    1.7400234  0.029868086 
number of iterations: 32623 
    9700    69.385317      210          210            0 2.1442737e-13            0          0.1 0.0090194416    1.7764544  0.029867628 
number of iterations: 33537 
    9800    70.165629      212          212            0 2.1799756e-13            0          0.1 0.0090197653     1.813492  0.029867089 
number of iterations: 33625 
    9900     70.95812      216          216            0 2.216272e-13            0          0.1 0.0090200944    1.8511463  0.029866541 
number of iterations: 34198 
   10000    71.775538      217          217            0 2.2531727e-13            0          0.1  0.009020457    1.8894274  0.029865938 
Loop time of 71.7756 on 8 procs for 10000 steps with 217 atoms

Performance: 120375192.191 tau/day, 139.323 timesteps/s
89.2% CPU use with 8 MPI tasks x no OpenMP threads

MPI task timing breakdown:
Section |  min time  |  avg time  |  max time  |%varavg| %total
---------------------------------------------------------------
Pair    | 0.0084702  | 0.0097427  | 0.012769   |   1.3 |  0.01
Neigh   | 0.006896   | 0.0079545  | 0.0093429  |   1.0 |  0.01
Comm    | 0.025571   | 0.050781   | 0.066578   |   6.3 |  0.07
Output  | 10.619     | 10.619     | 10.621     |   0.0 | 14.79
Modify  | 61.022     | 61.023     | 61.025     |   0.0 | 85.02
Other   |            | 0.06551    |            |       |  0.09

Nlocal:    27.125 ave 56 max 12 min
Histogram: 2 2 0 1 1 0 1 0 0 1
Nghost:    7.5 ave 14 max 0 min
Histogram: 1 0 1 0 0 3 1 0 0 2
Neighs:    26.625 ave 59 max 10 min
Histogram: 1 3 0 1 1 1 0 0 0 1

Total # of neighbors = 213
Ave neighs/atom = 0.981567
Neighbor list builds = 117
Dangerous builds = 0
Total wall time: 0:01:12
