 NUFEB Simulation

     100 atoms 
     2 atom types 
     4 nutrients 

  0.0e-4   1.00e-04  xlo xhi 
  0.0e-4   1.00e-04  ylo yhi 
  0.0e-4   1.00e-05  zlo zhi 

 Atoms 

     1 1 1.93e-06  370 5.71e-05 8.21e-05 2.02e-06 1.93e-06 
     2 1 1.90e-06  370 9.21e-06 8.28e-05 7.03e-06 1.90e-06 
     3 1 1.38e-06  370 4.68e-05 7.69e-05 2.61e-06 1.38e-06 
     4 1 1.42e-06  370 7.23e-05 5.83e-05 3.31e-06 1.42e-06 
     5 1 1.80e-06  370 1.49e-05 2.04e-06 6.95e-06 1.80e-06 
     6 1 1.77e-06  370 7.93e-05 1.44e-05 3.64e-06 1.77e-06 
     7 1 1.90e-06  370 5.33e-05 1.65e-05 2.73e-06 1.90e-06 
     8 1 1.74e-06  370 2.35e-05 9.54e-05 5.42e-06 1.74e-06 
     9 1 1.69e-06  370 3.09e-05 7.57e-05 3.12e-06 1.69e-06 
     10 1 1.46e-06  370 4.84e-05 9.62e-05 8.29e-06 1.46e-06 
     11 1 1.54e-06  370 8.82e-06 3.68e-05 4.27e-06 1.54e-06 
     12 1 1.65e-06  370 6.75e-05 1.43e-05 3.10e-06 1.65e-06 
     13 1 1.68e-06  370 7.89e-05 5.42e-05 4.98e-06 1.68e-06 
     14 1 1.80e-06  370 2.74e-05 8.72e-05 3.79e-06 1.80e-06 
     15 1 1.73e-06  370 6.49e-06 9.59e-06 3.44e-06 1.73e-06 
     16 1 1.74e-06  370 3.36e-06 4.94e-05 4.48e-06 1.74e-06 
     17 1 1.74e-06  370 6.58e-05 5.26e-05 6.85e-06 1.74e-06 
     18 1 1.62e-06  370 1.50e-05 7.80e-05 1.96e-06 1.62e-06 
     19 1 1.61e-06  370 2.47e-05 4.66e-05 5.36e-06 1.61e-06 
     20 1 1.68e-06  370 9.20e-05 1.05e-05 2.33e-06 1.68e-06 
     21 1 1.70e-06  370 6.98e-05 8.75e-05 5.87e-06 1.70e-06 
     22 1 1.67e-06  370 5.02e-05 1.84e-05 5.88e-06 1.67e-06 
     23 1 1.71e-06  370 7.22e-05 7.22e-05 7.97e-06 1.71e-06 
     24 1 1.82e-06  370 7.45e-05 7.97e-05 5.85e-06 1.82e-06 
     25 1 1.79e-06  370 5.23e-05 7.42e-05 8.14e-06 1.79e-06 
     26 1 1.49e-06  370 1.57e-05 9.78e-06 3.26e-06 1.49e-06 
     27 1 1.69e-06  370 2.18e-05 4.11e-05 2.54e-06 1.69e-06 
     28 1 1.49e-06  370 6.81e-05 9.18e-05 6.19e-06 1.49e-06 
     29 1 1.57e-06  370 5.82e-05 3.56e-05 5.04e-06 1.57e-06 
     30 1 1.47e-06  370 7.30e-05 7.22e-05 4.28e-06 1.47e-06 
     31 1 1.42e-06  370 3.69e-05 7.02e-05 1.66e-06 1.42e-06 
     32 1 1.41e-06  370 5.16e-05 1.39e-05 5.75e-06 1.41e-06 
     33 1 1.51e-06  370 2.30e-05 8.47e-06 6.64e-06 1.51e-06 
     34 1 1.93e-06  370 2.01e-05 6.42e-05 6.89e-06 1.93e-06 
     35 1 1.92e-06  370 7.44e-05 5.24e-05 3.53e-06 1.92e-06 
     36 1 1.66e-06  370 9.19e-06 2.72e-05 4.00e-06 1.66e-06 
     37 1 1.80e-06  370 5.84e-05 7.70e-05 2.12e-06 1.80e-06 
     38 1 1.89e-06  370 8.33e-05 3.92e-05 3.76e-06 1.89e-06 
     39 1 1.55e-06  370 5.62e-05 5.17e-05 7.22e-06 1.55e-06 
     40 1 1.65e-06  370 6.60e-05 3.49e-06 6.16e-06 1.65e-06 
     41 1 1.38e-06  370 3.43e-05 8.73e-05 4.96e-06 1.38e-06 
     42 1 1.63e-06  370 6.27e-05 4.46e-05 6.81e-06 1.63e-06 
     43 1 1.94e-06  370 8.45e-05 8.21e-05 6.17e-06 1.94e-06 
     44 1 1.88e-06  370 4.05e-05 2.12e-05 7.05e-06 1.88e-06 
     45 1 1.59e-06  370 6.60e-05 5.52e-05 4.67e-06 1.59e-06 
     46 1 1.74e-06  370 3.31e-05 8.90e-05 8.24e-06 1.74e-06 
     47 1 1.65e-06  370 8.25e-05 8.53e-05 5.39e-06 1.65e-06 
     48 1 1.49e-06  370 9.44e-05 4.74e-05 4.16e-06 1.49e-06 
     49 1 1.67e-06  370 8.08e-05 8.45e-05 7.51e-06 1.67e-06 
     50 1 1.80e-06  370 4.10e-05 3.10e-05 4.00e-06 1.80e-06 
     51 2 1.13e-06  230 8.66e-05 9.03e-05 5.53e-06 1.13e-06 
     52 2 1.19e-06  230 6.89e-05 2.85e-05 8.08e-06 1.19e-06 
     53 2 1.22e-06  230 6.94e-05 2.35e-06 6.39e-06 1.22e-06 
     54 2 1.26e-06  230 7.95e-05 2.02e-05 1.43e-06 1.26e-06 
     55 2 1.23e-06  230 7.58e-05 5.60e-05 4.31e-06 1.23e-06 
     56 2 1.34e-06  230 8.50e-05 7.22e-05 1.85e-06 1.34e-06 
     57 2 1.19e-06  230 2.81e-05 9.53e-05 4.27e-06 1.19e-06 
     58 2 9.24e-07  230 7.89e-05 4.95e-05 3.50e-06 9.24e-07 
     59 2 1.10e-06  230 9.48e-05 5.17e-05 8.64e-06 1.10e-06 
     60 2 1.06e-06  230 4.01e-05 1.11e-05 1.65e-06 1.06e-06 
     61 2 1.31e-06  230 2.93e-06 4.27e-05 8.62e-06 1.31e-06 
     62 2 1.01e-06  230 3.00e-05 8.69e-05 6.50e-06 1.01e-06 
     63 2 1.34e-06  230 1.39e-06 9.65e-05 2.67e-06 1.34e-06 
     64 2 1.17e-06  230 8.17e-05 2.69e-06 6.50e-06 1.17e-06 
     65 2 9.91e-07  230 8.75e-05 2.58e-05 3.24e-06 9.91e-07 
     66 2 1.27e-06  230 2.42e-06 8.79e-05 6.21e-06 1.27e-06 
     67 2 1.28e-06  230 3.61e-05 9.50e-05 8.22e-06 1.28e-06 
     68 2 1.22e-06  230 2.49e-05 2.47e-05 2.67e-06 1.22e-06 
     69 2 1.02e-06  230 5.06e-05 3.70e-05 8.40e-06 1.02e-06 
     70 2 9.01e-07  230 3.32e-05 2.13e-05 1.61e-06 9.01e-07 
     71 2 1.38e-06  230 1.81e-05 2.00e-05 5.79e-06 1.38e-06 
     72 2 1.30e-06  230 3.36e-05 4.49e-05 4.87e-06 1.30e-06 
     73 2 1.27e-06  230 2.79e-05 8.31e-05 1.90e-06 1.27e-06 
     74 2 1.36e-06  230 5.06e-05 6.60e-05 8.00e-06 1.36e-06 
     75 2 9.89e-07  230 3.87e-05 1.59e-05 1.02e-06 9.89e-07 
     76 2 1.33e-06  230 8.47e-05 6.05e-05 3.99e-06 1.33e-06 
     77 2 9.95e-07  230 6.71e-05 3.58e-05 4.58e-06 9.95e-07 
     78 2 9.43e-07  230 7.02e-05 3.27e-05 2.54e-06 9.43e-07 
     79 2 1.13e-06  230 8.46e-05 7.36e-05 3.17e-06 1.13e-06 
     80 2 9.62e-07  230 8.65e-05 5.84e-05 5.85e-06 9.62e-07 
     81 2 1.04e-06  230 9.70e-06 4.93e-05 4.10e-06 1.04e-06 
     82 2 9.14e-07  230 6.16e-05 2.53e-06 7.38e-06 9.14e-07 
     83 2 1.06e-06  230 3.09e-05 1.76e-05 2.03e-06 1.06e-06 
     84 2 1.14e-06  230 9.16e-05 2.63e-06 8.29e-06 1.14e-06 
     85 2 1.32e-06  230 8.13e-05 2.03e-05 6.80e-06 1.32e-06 
     86 2 9.54e-07  230 9.27e-05 6.50e-05 8.91e-06 9.54e-07 
     87 2 1.19e-06  230 2.74e-05 3.17e-05 6.30e-06 1.19e-06 
     88 2 1.10e-06  230 8.87e-05 2.48e-06 7.06e-06 1.10e-06 
     89 2 9.69e-07  230 1.87e-05 3.52e-05 1.70e-06 9.69e-07 
     90 2 9.31e-07  230 3.91e-05 1.49e-05 5.50e-06 9.31e-07 
     91 2 9.38e-07  230 3.93e-05 6.20e-05 8.84e-06 9.38e-07 
     92 2 1.27e-06  230 9.63e-05 1.57e-05 1.39e-06 1.27e-06 
     93 2 1.18e-06  230 9.58e-05 6.24e-05 5.36e-06 1.18e-06 
     94 2 1.10e-06  230 2.26e-05 3.14e-05 1.24e-06 1.10e-06 
     95 2 9.04e-07  230 2.34e-05 2.79e-05 8.51e-06 9.04e-07 
     96 2 1.38e-06  230 6.69e-05 2.52e-05 2.76e-06 1.38e-06 
     97 2 1.37e-06  230 7.76e-05 3.06e-05 6.70e-06 1.37e-06 
     98 2 1.29e-06  230 5.15e-05 3.56e-05 4.74e-06 1.29e-06 
     99 2 1.38e-06  230 5.57e-05 8.20e-05 3.06e-06 1.38e-06 
     100 2 1.07e-06  230 9.14e-05 5.16e-05 5.83e-06 1.07e-06 

 Nutrients 

     1 sub g nn nn nn 1.00e-01 1.00e-01 
     2 o2 l nn nn nd 9.00e-03 9.00e-03 
     3 suc l nn nn nn 3.42e-20 3.42e-20 
     4 co2 l nn nn nd 2.99e-02 2.99e-02 

 Type Name 

     1 cyano  
     2 ecw  

 Diffusion Coeffs 

     sub 0 
     o2 2.3e-09 
     suc 5.2e-10 
     co2 1.9e-09 

 Growth Rate 

     cyano 1.67e-05 
     ecw 2e-06 

 Ks 

     cyano 0.00035 0.0002 0.01 0.000138 
     ecw 0 0.001 3.6 0.05 

 Yield 

     cyano 0.55 
     ecw 0.43 

 Maintenance 

     cyano 0 
     ecw 9.5e-07 

 Decay 

     cyano 0 
     ecw 0 



