 NUFEB Simulation

     100 atoms 
     2 atom types 
     4 nutrients 

  0.0e-4   1.00e-04  xlo xhi 
  0.0e-4   1.00e-04  ylo yhi 
  0.0e-4   1.00e-05  zlo zhi 

 Atoms 

     1 1 1.62e-06  370 3.52e-06 7.88e-05 4.18e-06 1.62e-06 
     2 1 1.76e-06  370 8.72e-05 7.32e-05 4.59e-06 1.76e-06 
     3 1 1.64e-06  370 8.25e-05 8.29e-05 8.11e-06 1.64e-06 
     4 1 1.64e-06  370 6.14e-05 4.28e-06 4.86e-06 1.64e-06 
     5 1 1.65e-06  370 6.13e-06 8.06e-05 6.19e-06 1.65e-06 
     6 1 1.40e-06  370 8.74e-05 6.39e-05 8.47e-06 1.40e-06 
     7 1 1.82e-06  370 4.37e-05 6.36e-05 3.51e-06 1.82e-06 
     8 1 1.42e-06  370 6.68e-05 7.59e-05 5.38e-06 1.42e-06 
     9 1 1.52e-06  370 2.68e-05 5.06e-05 6.27e-06 1.52e-06 
     10 1 1.68e-06  370 7.29e-05 6.21e-05 5.12e-06 1.68e-06 
     11 1 1.90e-06  370 1.91e-05 8.90e-05 2.41e-06 1.90e-06 
     12 1 1.85e-06  370 6.68e-06 2.76e-05 7.13e-06 1.85e-06 
     13 1 1.67e-06  370 2.46e-05 2.90e-05 3.14e-06 1.67e-06 
     14 1 1.53e-06  370 4.27e-05 7.34e-05 6.33e-06 1.53e-06 
     15 1 1.67e-06  370 7.81e-05 1.41e-05 4.62e-06 1.67e-06 
     16 1 1.53e-06  370 9.46e-05 2.91e-05 5.40e-06 1.53e-06 
     17 1 1.87e-06  370 7.79e-05 2.67e-06 2.86e-06 1.87e-06 
     18 1 1.59e-06  370 7.07e-05 3.11e-05 3.79e-06 1.59e-06 
     19 1 1.75e-06  370 5.35e-05 2.07e-05 7.36e-06 1.75e-06 
     20 1 1.61e-06  370 5.47e-05 4.75e-05 7.89e-06 1.61e-06 
     21 1 1.84e-06  370 3.41e-05 4.88e-05 6.90e-06 1.84e-06 
     22 1 1.84e-06  370 5.73e-05 6.16e-05 2.41e-06 1.84e-06 
     23 1 1.73e-06  370 1.96e-05 2.38e-05 3.21e-06 1.73e-06 
     24 1 1.81e-06  370 5.60e-05 9.33e-05 5.37e-06 1.81e-06 
     25 1 1.62e-06  370 3.51e-05 2.43e-05 4.39e-06 1.62e-06 
     26 1 1.77e-06  370 5.05e-05 2.21e-05 7.97e-06 1.77e-06 
     27 1 1.68e-06  370 2.85e-05 8.23e-05 4.11e-06 1.68e-06 
     28 1 1.41e-06  370 3.34e-06 8.63e-05 4.36e-06 1.41e-06 
     29 1 1.93e-06  370 7.53e-06 6.69e-05 4.08e-06 1.93e-06 
     30 1 1.62e-06  370 6.36e-05 2.66e-05 1.84e-06 1.62e-06 
     31 1 1.68e-06  370 8.06e-05 5.65e-05 2.76e-06 1.68e-06 
     32 1 1.51e-06  370 2.60e-05 5.04e-05 7.77e-06 1.51e-06 
     33 1 1.41e-06  370 1.29e-05 3.34e-05 4.57e-06 1.41e-06 
     34 1 1.81e-06  370 9.13e-05 6.88e-05 2.17e-06 1.81e-06 
     35 1 1.44e-06  370 3.88e-05 5.03e-05 7.81e-06 1.44e-06 
     36 1 1.73e-06  370 3.97e-05 8.80e-05 3.87e-06 1.73e-06 
     37 1 1.51e-06  370 7.18e-05 4.63e-05 2.16e-06 1.51e-06 
     38 1 1.70e-06  370 6.56e-05 3.40e-05 4.66e-06 1.70e-06 
     39 1 1.75e-06  370 6.97e-05 5.33e-05 2.32e-06 1.75e-06 
     40 1 1.77e-06  370 2.51e-05 1.78e-05 7.13e-06 1.77e-06 
     41 1 1.55e-06  370 4.53e-05 7.15e-05 4.41e-06 1.55e-06 
     42 1 1.59e-06  370 7.68e-05 2.85e-05 3.67e-06 1.59e-06 
     43 1 1.45e-06  370 6.48e-05 4.73e-05 3.58e-06 1.45e-06 
     44 1 1.56e-06  370 2.94e-05 3.52e-05 2.29e-06 1.56e-06 
     45 1 1.54e-06  370 7.84e-05 9.32e-05 2.23e-06 1.54e-06 
     46 1 1.81e-06  370 4.01e-05 8.11e-05 2.10e-06 1.81e-06 
     47 1 1.74e-06  370 9.03e-05 5.41e-05 2.49e-06 1.74e-06 
     48 1 1.67e-06  370 4.78e-06 9.17e-05 5.07e-06 1.67e-06 
     49 1 1.82e-06  370 1.65e-05 8.36e-05 3.72e-06 1.82e-06 
     50 1 1.40e-06  370 4.72e-05 5.57e-05 6.75e-06 1.40e-06 
     51 2 9.95e-07  230 4.64e-06 6.87e-05 8.63e-06 9.95e-07 
     52 2 9.47e-07  230 2.06e-06 8.10e-05 8.46e-06 9.47e-07 
     53 2 1.26e-06  230 2.18e-05 9.15e-05 5.43e-06 1.26e-06 
     54 2 1.27e-06  230 4.73e-06 2.93e-05 6.11e-06 1.27e-06 
     55 2 9.52e-07  230 7.27e-05 7.75e-05 2.88e-06 9.52e-07 
     56 2 9.19e-07  230 4.64e-05 5.20e-05 2.92e-06 9.19e-07 
     57 2 1.15e-06  230 4.92e-06 4.95e-05 3.59e-06 1.15e-06 
     58 2 9.40e-07  230 4.34e-05 5.43e-05 2.89e-06 9.40e-07 
     59 2 1.16e-06  230 6.89e-05 8.31e-06 6.35e-06 1.16e-06 
     60 2 8.81e-07  230 2.65e-05 3.61e-05 2.91e-06 8.81e-07 
     61 2 1.12e-06  230 3.06e-05 6.19e-05 6.52e-06 1.12e-06 
     62 2 1.23e-06  230 4.13e-05 3.85e-05 2.71e-06 1.23e-06 
     63 2 1.01e-06  230 3.86e-05 6.43e-05 6.08e-06 1.01e-06 
     64 2 9.93e-07  230 9.26e-05 5.76e-05 8.85e-06 9.93e-07 
     65 2 9.92e-07  230 5.17e-05 7.07e-05 2.87e-06 9.92e-07 
     66 2 1.22e-06  230 9.79e-05 7.45e-05 7.89e-06 1.22e-06 
     67 2 9.18e-07  230 4.97e-05 9.17e-05 8.16e-06 9.18e-07 
     68 2 1.11e-06  230 2.86e-05 1.06e-05 6.07e-06 1.11e-06 
     69 2 1.33e-06  230 3.63e-05 7.26e-05 3.99e-06 1.33e-06 
     70 2 1.38e-06  230 9.50e-06 8.13e-06 5.63e-06 1.38e-06 
     71 2 1.29e-06  230 9.86e-05 3.02e-05 8.06e-06 1.29e-06 
     72 2 1.19e-06  230 3.71e-05 1.68e-05 3.13e-06 1.19e-06 
     73 2 1.33e-06  230 5.12e-05 3.17e-05 5.03e-06 1.33e-06 
     74 2 1.19e-06  230 1.44e-06 6.49e-06 5.20e-06 1.19e-06 
     75 2 1.23e-06  230 5.57e-05 4.77e-05 7.29e-06 1.23e-06 
     76 2 9.02e-07  230 3.05e-05 6.55e-05 4.45e-06 9.02e-07 
     77 2 1.02e-06  230 2.34e-05 7.95e-05 7.25e-06 1.02e-06 
     78 2 9.65e-07  230 9.10e-05 7.99e-05 7.89e-06 9.65e-07 
     79 2 1.12e-06  230 2.83e-05 2.37e-05 3.46e-06 1.12e-06 
     80 2 1.21e-06  230 8.11e-05 1.29e-05 6.52e-06 1.21e-06 
     81 2 1.18e-06  230 3.45e-06 6.04e-05 4.62e-06 1.18e-06 
     82 2 1.16e-06  230 5.47e-05 6.65e-05 6.87e-06 1.16e-06 
     83 2 1.08e-06  230 8.19e-05 2.78e-05 5.01e-06 1.08e-06 
     84 2 1.15e-06  230 8.94e-06 4.68e-05 7.08e-06 1.15e-06 
     85 2 9.56e-07  230 3.51e-05 4.89e-05 1.31e-06 9.56e-07 
     86 2 8.89e-07  230 7.33e-05 1.96e-05 7.17e-06 8.89e-07 
     87 2 1.06e-06  230 9.19e-05 3.50e-06 2.71e-06 1.06e-06 
     88 2 1.23e-06  230 5.28e-05 9.81e-05 6.11e-06 1.23e-06 
     89 2 9.93e-07  230 3.46e-05 9.23e-05 2.07e-06 9.93e-07 
     90 2 1.06e-06  230 4.46e-05 4.10e-05 8.82e-06 1.06e-06 
     91 2 1.15e-06  230 8.45e-06 3.81e-05 2.15e-06 1.15e-06 
     92 2 1.03e-06  230 3.52e-05 2.76e-05 2.11e-06 1.03e-06 
     93 2 1.20e-06  230 3.91e-05 8.70e-05 3.94e-06 1.20e-06 
     94 2 1.30e-06  230 5.03e-05 1.83e-05 1.69e-06 1.30e-06 
     95 2 1.12e-06  230 2.07e-05 1.37e-05 8.61e-06 1.12e-06 
     96 2 9.27e-07  230 3.64e-05 4.82e-05 6.60e-06 9.27e-07 
     97 2 1.27e-06  230 5.24e-05 8.32e-05 4.23e-06 1.27e-06 
     98 2 1.26e-06  230 3.31e-05 3.51e-05 3.70e-06 1.26e-06 
     99 2 1.21e-06  230 7.55e-05 5.19e-06 3.84e-06 1.21e-06 
     100 2 1.01e-06  230 7.44e-05 2.67e-05 3.13e-06 1.01e-06 

 Nutrients 

     1 sub g nn nn nn 1.00e-01 1.00e-01 
     2 o2 l nn nn nd 9.00e-03 9.00e-03 
     3 suc l nn nn nn 3.42e-20 3.42e-20 
     4 co2 l nn nn nd 2.99e-02 2.99e-02 

 Type Name 

     1 cyano  
     2 ecw  

 Diffusion Coeffs 

     sub 0 
     o2 2.3e-09 
     suc 5.2e-10 
     co2 1.9e-09 

 Growth Rate 

     cyano 1.67e-05 
     ecw 8e-06 

 Ks 

     cyano 0.00035 0.0002 0.01 0.000138 
     ecw 0 0.001 3.6 0.05 

 Yield 

     cyano 0.55 
     ecw 0.43 

 Maintenance 

     cyano 0 
     ecw 9.5e-07 

 Decay 

     cyano 0 
     ecw 0 



