LAMMPS (20 Nov 2019)
Reading data file ...
  orthogonal box = (0 0 0) to (0.0001 0.0001 1e-05)
  8 by 4 by 1 MPI processor grid
  reading atoms ...
  100 atoms
  4 nutrients
Lattice spacing in x,y,z = 100 100 100
50 atoms in group CYANO
50 atoms in group ECW
Model is defined as a closed system. 
Neighbor list info ...
  update every 1 steps, delay 0 steps, check yes
  max neighbors/atom: 5000, page size: 100000
  master list distance cutoff = 2.42e-06
  ghost atom cutoff = 2.42e-06
  binsize = 1.21e-06, bins = 83 83 9
  1 neighbor lists, perpetual/occasional/extra = 1 0 0
  (1) pair gran/hooke/history, perpetual
      attributes: half, newton off, size, history
      pair build: half/size/bin/newtoff
      stencil: half/bin/3d/newtoff
      bin: standard
Setting up Verlet run ...
  Unit style    : lj
  Current step  : 0
  Time step     : 10
Per MPI rank memory allocation (min/avg/max) = 5.794 | 10.8 | 12.11 Mbytes
Step CPU Atoms c_myNtypes[1] c_myNtypes[2] c_myMass[1] c_myMass[2] c_myCon[1] c_myCon[2] c_myCon[3] c_myCon[4] 
       0            0      100           50           50 4.2719369e-14 9.9242816e-15          0.1        0.009     3.42e-20       0.0299 
number of iterations: 325951 
     100    15.672834      141           50           91 4.3285495e-14 9.9160494e-15          0.1 0.0090006867  0.034328927  0.029898856 
number of iterations: 5555 
     200    16.086408      159           50          109 4.3859124e-14 9.9080689e-15          0.1 0.0090006958  0.068029929  0.029898841 
number of iterations: 3809 
     300    16.410774      159           50          109 4.4440355e-14 9.9003362e-15          0.1  0.009000705    0.1021669  0.029898826 
number of iterations: 2962 
     400     16.68791      159           50          109 4.5029288e-14 9.8928491e-15          0.1 0.0090007143   0.13674843   0.02989881 
number of iterations: 2450 
     500    16.937328      159           50          109 4.5626026e-14 9.8856055e-15          0.1 0.0090007238   0.17178147  0.029898794 
number of iterations: 2104 
     600    17.166818      161           52          109 4.6230672e-14 9.8786035e-15          0.1 0.0090007329   0.20727259  0.029898779 
number of iterations: 1851 
     700    17.411232      161           52          109 4.6843331e-14 9.8718413e-15          0.1 0.0090007426   0.24322824  0.029898763 
number of iterations: 1669 
     800     17.64262      161           52          109 4.7464109e-14 9.8653172e-15          0.1 0.0090007524   0.27965486  0.029898747 
number of iterations: 1533 
     900    17.849943      162           53          109 4.8093114e-14 9.8590294e-15          0.1 0.0090007624   0.31655894   0.02989873 
number of iterations: 1418 
    1000    18.077668      164           55          109 4.8730454e-14 9.8529764e-15          0.1 0.0090007676   0.35394706  0.029898721 
number of iterations: 1355 
    1100    18.320524      165           56          109 4.9376241e-14 9.8471561e-15          0.1 0.0090007729   0.39182563  0.029898712 
number of iterations: 1383 
    1200    18.530953      165           56          109 5.0030585e-14 9.8415669e-15          0.1 0.0090007831   0.43020141  0.029898695 
number of iterations: 1383 
    1300    18.741649      166           57          109 5.0693601e-14 9.8362073e-15          0.1 0.0090007898   0.46908113  0.029898684 
number of iterations: 1389 
    1400    18.933248      166           57          109 5.1365404e-14 9.8310754e-15          0.1 0.0090008003   0.50847161  0.029898667 
number of iterations: 1392 
    1500    19.127253      166           57          109 5.204611e-14 9.8261696e-15          0.1 0.0090008109   0.54837975  0.029898649 
number of iterations: 1395 
    1600    19.306383      166           57          109 5.2735836e-14 9.8214882e-15          0.1 0.0090008217   0.58881252  0.029898631 
number of iterations: 1398 
    1700    19.490056      166           57          109 5.3434703e-14 9.8170294e-15          0.1 0.0090008325   0.62977699  0.029898613 
number of iterations: 1400 
    1800    19.667623      168           59          109 5.4142831e-14 9.8127915e-15          0.1 0.0090008423   0.67128033  0.029898597 
number of iterations: 1402 
    1900    19.854639      168           59          109 5.4860343e-14 9.808773e-15          0.1 0.0090008535   0.71332981  0.029898578 
number of iterations: 1485 
    2000    20.059853      169           60          109 5.5587364e-14 9.8049721e-15          0.1 0.0090008611   0.75593288  0.029898565 
number of iterations: 1408 
    2100    20.254729      170           61          109 5.632402e-14 9.8013873e-15          0.1 0.0090008725   0.79909687  0.029898546 
number of iterations: 1411 
    2200    20.438248      170           61          109 5.7070438e-14 9.7980168e-15          0.1 0.0090008841   0.84282932  0.029898527 
number of iterations: 1414 
    2300    20.647625      170           61          109 5.7826748e-14 9.794859e-15          0.1 0.0090008958   0.88713786  0.029898508 
number of iterations: 1417 
    2400    20.819043      170           61          109 5.8593081e-14 9.7919123e-15          0.1 0.0090009077   0.93203024  0.029898488 
number of iterations: 1380 
    2500    21.019154      172           63          109 5.9369569e-14 9.789175e-15          0.1  0.009000913   0.97751429  0.029898479 
number of iterations: 1623 
    2600    21.294235      173           64          109 6.0156347e-14 9.7866454e-15          0.1 0.0090009298     1.023598  0.029898451 
number of iterations: 1423 
    2700    21.464945      173           64          109 6.0953552e-14 9.7843221e-15          0.1 0.0090009421    1.0702894   0.02989843 
number of iterations: 1426 
    2800    21.646235      173           64          109 6.1761321e-14 9.7822034e-15          0.1 0.0090009546    1.1175966   0.02989841 
number of iterations: 1428 
    2900    21.842954      173           64          109 6.2579796e-14 9.7802879e-15          0.1 0.0090009673    1.1655278  0.029898388 
number of iterations: 1431 
    3000     22.03624      173           64          109 6.3409117e-14 9.778574e-15          0.1 0.0090009801    1.2140915  0.029898367 
number of iterations: 1434 
    3100    22.232163      174           65          109 6.4249428e-14 9.7770604e-15          0.1 0.0090009882    1.2632961  0.029898354 
number of iterations: 1436 
    3200    22.422956      174           65          109 6.5100875e-14 9.7757453e-15          0.1 0.0090010013    1.3131502  0.029898332 
number of iterations: 1600 
    3300    22.631319      175           66          109 6.5963606e-14 9.7746272e-15          0.1 0.0090010192    1.3636623  0.029898302 
number of iterations: 1442 
    3400    22.816119      175           66          109 6.6837769e-14 9.7737046e-15          0.1 0.0090010327    1.4148415  0.029898279 
number of iterations: 1423 
    3500    22.993094      176           67          109 6.7723518e-14 9.772976e-15          0.1 0.0090010427    1.4666967  0.029898263 
number of iterations: 1444 
    3600    23.170822      176           67          109 6.8621004e-14 9.7724399e-15          0.1 0.0090010565    1.5192369   0.02989824 
number of iterations: 1641 
    3700    23.358433      177           68          109 6.9530384e-14 9.7720949e-15          0.1 0.0090010768    1.5724711  0.029898206 
number of iterations: 1632 
    3800    23.542721      178           69          109 7.0451816e-14 9.7719395e-15          0.1 0.0090010972    1.6264087  0.029898172 
number of iterations: 1559 
    3900    23.739765      180           71          109 7.1385458e-14 9.7719721e-15          0.1 0.0090011108    1.6810593  0.029898149 
number of iterations: 1457 
    4000    23.963542      180           71          109 7.2331473e-14 9.7721915e-15          0.1 0.0090011255    1.7364322  0.029898125 
number of iterations: 1570 
    4100    24.166443      182           73          109 7.3290025e-14 9.7725958e-15          0.1 0.0090011475    1.7925372  0.029898088 
number of iterations: 1571 
    4200    24.345148      183           74          109 7.426128e-14 9.7731835e-15          0.1 0.0090011642    1.8493839   0.02989806 
number of iterations: 1467 
    4300    24.517273      183           74          109 7.5245407e-14 9.7739537e-15          0.1 0.0090011797    1.9069824  0.029898035 
number of iterations: 1470 
    4400    24.691616      184           75          109 7.6242575e-14 9.7749048e-15          0.1 0.0090011953    1.9653428  0.029898009 
number of iterations: 1473 
    4500    24.886306      184           75          109 7.7252957e-14 9.7760356e-15          0.1 0.0090012112    2.0244751  0.029897982 
number of iterations: 1476 
    4600    25.119206      184           75          109 7.827673e-14 9.7773446e-15          0.1 0.0090012272    2.0843897  0.029897955 
number of iterations: 1479 
    4700    25.301553      184           75          109 7.9314069e-14 9.7788305e-15          0.1 0.0090012435    2.1450972  0.029897928 
number of iterations: 1665 
    4800    25.493881      185           76          109 8.0365156e-14 9.780492e-15          0.1 0.0090012631    2.2066081  0.029897896 
number of iterations: 1546 
    4900    25.697634      186           77          109 8.1430172e-14 9.7823276e-15          0.1  0.009001281    2.2689332  0.029897866 
number of iterations: 1469 
    5000    25.932287      188           79          109 8.2509302e-14 9.784336e-15          0.1 0.0090012954    2.3320831  0.029897842 
number of iterations: 1588 
    5100    26.154815      188           79          109 8.3602732e-14 9.7865158e-15          0.1 0.0090013157    2.3960689  0.029897808 
number of iterations: 1641 
    5200    26.341855      190           81          109 8.4710653e-14 9.7888658e-15          0.1 0.0090013329    2.4609019  0.029897779 
number of iterations: 1551 
    5300    26.519866      192           83          109 8.5833256e-14 9.7913848e-15          0.1 0.0090013433    2.5265933  0.029897762 
number of iterations: 1526 
    5400    26.706022      196           87          109 8.6970737e-14 9.7940717e-15          0.1 0.0090013566    2.5931546   0.02989774 
number of iterations: 1657 
    5500    26.914025      196           87          109 8.8123291e-14 9.7969249e-15          0.1 0.0090013791    2.6605974  0.029897702 
number of iterations: 1627 
    5600    27.099654      197           88          109 8.9291119e-14 9.7999431e-15          0.1 0.0090014037    2.7289335  0.029897661 
number of iterations: 1513 
    5700    27.271455      198           89          109 9.0474424e-14 9.8031253e-15          0.1 0.0090014223    2.7981747   0.02989763 
number of iterations: 1566 
    5800    27.458956      199           90          109 9.167341e-14 9.8064699e-15          0.1 0.0090014434    2.8683332  0.029897595 
number of iterations: 1600 
    5900     27.64541      200           91          109 9.2888285e-14 9.8099761e-15          0.1 0.0090014648    2.9394211   0.02989756 
number of iterations: 1522 
    6000    27.854962      200           91          109 9.411926e-14 9.8136424e-15          0.1 0.0090014842    3.0114509  0.029897527 
number of iterations: 1524 
    6100     28.04906      200           91          109 9.5366548e-14 9.8174677e-15          0.1 0.0090015039    3.0844351  0.029897495 
number of iterations: 1585 
    6200    28.256594      201           92          109 9.6630365e-14 9.8214508e-15          0.1 0.0090015284    3.1583865  0.029897454 
number of iterations: 1530 
    6300    28.457113      202           93          109 9.7910931e-14 9.8255904e-15          0.1 0.0090015487    3.2333179   0.02989742 
number of iterations: 1732 
    6400    28.647165      205           96          109 9.9208467e-14 9.8298859e-15          0.1 0.0090015839    3.3092421  0.029897361 
number of iterations: 1566 
    6500    28.847212      205           96          109 1.005232e-13 9.8343358e-15          0.1 0.0090016049    3.3861727  0.029897326 
number of iterations: 1670 
    6600    29.048663      208           99          109 1.0185535e-13 9.8389389e-15          0.1 0.0090016339     3.464123  0.029897278 
number of iterations: 1542 
    6700    29.226782      208           99          109 1.0320516e-13 9.8436939e-15          0.1 0.0090016509    3.5431065   0.02989725 
number of iterations: 1553 
    6800    29.404382      209          100          109 1.0457286e-13 9.8485997e-15          0.1 0.0090016743    3.6231372  0.029897211 
number of iterations: 1535 
    6900    29.577258      214          105          109 1.0595868e-13 9.8536554e-15          0.1 0.0090016894    3.7042287  0.029897186 
number of iterations: 1578 
    7000    29.758558      216          107          109 1.0736286e-13 9.8588597e-15          0.1 0.0090017094    3.7863953  0.029897152 
number of iterations: 1554 
    7100    29.957264      216          107          109 1.0878566e-13 9.8642114e-15          0.1 0.0090017321    3.8696515  0.029897115 
number of iterations: 1658 
    7200    30.150953      217          108          109 1.1022731e-13 9.8697094e-15          0.1 0.0090017595    3.9540116  0.029897069 
number of iterations: 1730 
    7300    30.352711      221          112          109 1.1168806e-13 9.8753526e-15          0.1 0.0090017908    4.0394904  0.029897017 
number of iterations: 1627 
    7400    30.540101      222          113          109 1.1316818e-13  9.88114e-15          0.1 0.0090018083    4.1261027  0.029896988 
number of iterations: 1696 
    7500    30.736295      225          116          109 1.146679e-13 9.8870705e-15          0.1 0.0090018398    4.2138638  0.029896935 
number of iterations: 1572 
    7600    30.910594      225          116          109 1.1618751e-13 9.8931429e-15          0.1 0.0090018642    4.3027888  0.029896894 
number of iterations: 1701 
    7700    31.095146      227          118          109 1.1772725e-13 9.8993564e-15          0.1 0.0090018971    4.3928933   0.02989684 
number of iterations: 1568 
    7800    31.282939      229          120          109 1.1928739e-13 9.9057097e-15          0.1 0.0090019167     4.484193  0.029896807 
number of iterations: 1606 
    7900    31.455022      232          121          111 1.2086821e-13 9.9122019e-15          0.1  0.009001946    4.5767036  0.029896758 
number of iterations: 1611 
    8000    31.674397      235          124          111 1.2246998e-13 9.9188319e-15          0.1 0.0090019713    4.6704415  0.029896716 
number of iterations: 1710 
    8100    31.888191      239          128          111 1.2409298e-13 9.9255986e-15          0.1 0.0090020098    4.7654227  0.029896652 
number of iterations: 1682 
    8200    32.072746      241          129          112 1.2573749e-13 9.9325012e-15          0.1 0.0090020423    4.8616639  0.029896598 
number of iterations: 1661 
    8300    32.263263      243          131          112 1.2740379e-13 9.9395387e-15          0.1 0.0090020741    4.9591819  0.029896545 
number of iterations: 1674 
    8400    32.438328      244          132          112 1.2909217e-13 9.9467101e-15          0.1 0.0090021024    5.0579938  0.029896498 
number of iterations: 1632 
    8500    32.615685      246          134          112 1.3080292e-13 9.9540143e-15          0.1 0.0090021306    5.1581167  0.029896451 
number of iterations: 1663 
    8600    32.788378      247          135          112 1.3253635e-13 9.9614505e-15          0.1 0.0090021609     5.259568    0.0298964 
number of iterations: 1650 
    8700     32.96347      248          136          112 1.3429275e-13 9.9690177e-15          0.1 0.0090021926    5.3623654  0.029896348 
number of iterations: 1561 
    8800    33.131218      250          138          112 1.3607242e-13 9.976715e-15          0.1 0.0090022117     5.466527  0.029896316 
number of iterations: 1586 
    8900    33.312553      251          139          112 1.3787568e-13 9.9845412e-15          0.1 0.0090022367    5.5720707  0.029896274 
number of iterations: 1615 
    9000    33.492515      251          139          112 1.3970284e-13 9.9924957e-15          0.1 0.0090022663     5.679015  0.029896225 
number of iterations: 1592 
    9100    33.699886      252          140          112 1.4155421e-13 1.0000577e-14          0.1 0.0090022938    5.7873784  0.029896179 
number of iterations: 1603 
    9200    33.883752      254          142          112 1.4343011e-13 1.0008785e-14          0.1 0.0090023257    5.8971801  0.029896126 
number of iterations: 1621 
    9300    34.084896      255          143          112 1.4533088e-13 1.0017119e-14          0.1 0.0090023515     6.008439  0.029896083 
number of iterations: 1615 
    9400     34.27667      257          145          112 1.4725683e-13 1.0025577e-14          0.1 0.0090023826    6.1211744  0.029896031 
number of iterations: 1716 
    9500    34.462988      258          146          112 1.4920831e-13 1.0034158e-14          0.1 0.0090024203     6.235406  0.029895968 
number of iterations: 1581 
    9600    34.631987      262          150          112 1.5118565e-13 1.0042862e-14          0.1 0.0090024459    6.3511537  0.029895926 
number of iterations: 1687 
    9700    34.832053      265          153          112 1.5318919e-13 1.0051688e-14          0.1 0.0090024806    6.4684381  0.029895868 
number of iterations: 1628 
    9800     35.03194      266          154          112 1.5521928e-13 1.0060635e-14          0.1 0.0090025118    6.5872791  0.029895816 
number of iterations: 1635 
    9900      35.2673      268          156          112 1.5727628e-13 1.0069703e-14          0.1 0.0090025451    6.7076974  0.029895761 
number of iterations: 1768 
   10000    35.480106      272          160          112 1.5936053e-13 1.0078889e-14          0.1 0.0090025793    6.8297142  0.029895703 
number of iterations: 1608 
   10100     35.68059      274          162          112 1.6147241e-13 1.0088194e-14          0.1 0.0090026074    6.9533505  0.029895657 
number of iterations: 1646 
   10200    35.869511      275          163          112 1.6361228e-13 1.0097616e-14          0.1 0.0090026378    7.0786276  0.029895606 
number of iterations: 1647 
   10300     36.09717      275          163          112 1.657805e-13 1.0107156e-14          0.1 0.0090026727    7.2055674  0.029895548 
number of iterations: 1646 
   10400     36.29192      276          164          112 1.6797745e-13 1.0116811e-14          0.1 0.0090027014    7.3341921    0.0298955 
number of iterations: 1651 
   10500    36.466363      277          165          112 1.7020352e-13 1.0126582e-14          0.1 0.0090027373    7.4645241   0.02989544 
number of iterations: 1655 
   10600     36.67713      277          165          112 1.7245909e-13 1.0136468e-14          0.1 0.0090027735    7.5965861   0.02989538 
number of iterations: 1678 
   10700    36.864608      281          169          112 1.7474456e-13 1.0146466e-14          0.1 0.0090028095    7.7304013   0.02989532 
number of iterations: 1720 
   10800    37.076001      283          171          112 1.7706031e-13 1.0156578e-14          0.1 0.0090028518    7.8659928   0.02989525 
number of iterations: 1735 
   10900    37.267507      285          172          113 1.7940674e-13 1.0166802e-14          0.1 0.0090028959    8.0033837  0.029895176 
number of iterations: 1716 
   11000    37.458421      287          174          113 1.8178428e-13 1.0177137e-14          0.1 0.0090029378    8.1425985  0.029895107 
number of iterations: 1642 
   11100    37.672239      292          178          114 1.8419332e-13 1.0187583e-14          0.1 0.0090029656    8.2836615   0.02989506 
number of iterations: 1819 
   11200    37.880486      294          180          114 1.8663428e-13 1.0198139e-14          0.1 0.0090030186     8.426597  0.029894972 
number of iterations: 1749 
   11300    38.076982      296          182          114 1.891076e-13 1.0208803e-14          0.1 0.0090030647      8.57143  0.029894895 
number of iterations: 1659 
   11400    38.290684      301          187          114 1.9161369e-13 1.0219576e-14          0.1 0.0090031008     8.718186  0.029894835 
number of iterations: 1675 
   11500    38.479419      302          188          114 1.9415299e-13 1.0230457e-14          0.1 0.0090031375    8.8668904  0.029894774 
number of iterations: 1734 
   11600    38.676291      304          190          114 1.9672594e-13 1.0241444e-14          0.1 0.0090031846    9.0175687  0.029894695 
number of iterations: 1699 
   11700    38.875463      308          194          114 1.9933299e-13 1.0252538e-14          0.1 0.0090032247    9.1702472  0.029894629 
number of iterations: 1682 
   11800    39.069929      308          194          114 2.0197459e-13 1.0263738e-14          0.1 0.0090032659    9.3249524   0.02989456 
number of iterations: 1672 
   11900    39.266285      309          195          114 2.0465119e-13 1.0275042e-14          0.1 0.0090033075    9.4817112  0.029894491 
number of iterations: 1680 
   12000    39.479025      316          202          114 2.0736327e-13 1.028645e-14          0.1 0.0090033418     9.640551  0.029894434 
number of iterations: 1727 
   12100    39.687611      318          204          114 2.1011129e-13 1.0297961e-14          0.1   0.00900339    9.8014994  0.029894353 
number of iterations: 1659 
   12200    39.870491      320          206          114 2.1289572e-13 1.0309576e-14          0.1 0.0090034246    9.9645842  0.029894296 
number of iterations: 1665 
   12300    40.042835      327          213          114 2.1571706e-13 1.0321292e-14          0.1 0.0090034571    10.129834  0.029894242 
number of iterations: 1707 
   12400    40.228067      329          215          114 2.1857578e-13 1.033311e-14          0.1 0.0090034911    10.297277  0.029894185 
number of iterations: 1692 
   12500    40.403053      333          219          114 2.2147239e-13 1.0345028e-14          0.1 0.0090035395    10.466944  0.029894104 
number of iterations: 1707 
   12600    40.599134      337          223          114 2.2440738e-13 1.0357047e-14          0.1 0.0090035812    10.638862  0.029894035 
number of iterations: 1704 
   12700    40.781985      342          228          114 2.2738127e-13 1.0369165e-14          0.1 0.0090036268    10.813063  0.029893959 
number of iterations: 1692 
   12800    40.979011      344          230          114 2.3039457e-13 1.0381382e-14          0.1  0.009003671    10.989576  0.029893886 
number of iterations: 1775 
   12900    41.168983      350          236          114 2.334478e-13 1.0393697e-14          0.1 0.0090037248    11.168433  0.029893796 
number of iterations: 1710 
   13000    41.348461      352          238          114 2.365415e-13 1.040611e-14          0.1 0.0090037696    11.349664  0.029893721 
number of iterations: 1720 
   13100    41.555709      353          238          115 2.3967619e-13 1.041862e-14          0.1 0.0090038124      11.5333   0.02989365 
number of iterations: 1727 
   13200    41.740761      358          242          116 2.4285242e-13 1.0431226e-14          0.1  0.009003863    11.719375  0.029893566 
number of iterations: 1765 
   13300     41.92671      360          244          116 2.4607075e-13 1.0443928e-14          0.1  0.009003914     11.90792  0.029893481 
number of iterations: 1729 
   13400    42.127056      363          247          116 2.4933172e-13 1.0456726e-14          0.1 0.0090039626    12.098967    0.0298934 
number of iterations: 1741 
   13500    42.313602      366          250          116 2.5263591e-13 1.0469618e-14          0.1 0.0090040134     12.29255  0.029893315 
number of iterations: 1738 
   13600    42.510194      370          254          116 2.5598389e-13 1.0482604e-14          0.1 0.0090040605    12.488704  0.029893237 
number of iterations: 1798 
   13700    42.746303      372          256          116 2.5937623e-13 1.0495683e-14          0.1 0.0090041227    12.687461  0.029893133 
number of iterations: 1728 
   13800     42.94223      375          259          116 2.6281354e-13 1.0508855e-14          0.1  0.009004172    12.888856  0.029893051 
number of iterations: 1781 
   13900    43.150366      376          260          116 2.6629639e-13 1.052212e-14          0.1  0.009004233    13.092924   0.02989295 
number of iterations: 1723 
   14000    43.331068      384          268          116 2.698254e-13 1.0535477e-14          0.1 0.0090042777    13.299702  0.029892875 
number of iterations: 1750 
   14100    43.552978      387          271          116 2.7340117e-13 1.0548924e-14          0.1 0.0090043326    13.509224  0.029892784 
number of iterations: 1704 
   14200    43.727184      394          278          116 2.7702434e-13 1.0562463e-14          0.1 0.0090043786    13.721527  0.029892707 
number of iterations: 1824 
   14300    43.913556      398          282          116 2.8069551e-13 1.0576092e-14          0.1 0.0090044478    13.936649  0.029892592 
number of iterations: 1802 
   14400    44.112629      401          285          116 2.8441534e-13 1.058981e-14          0.1 0.0090045124    14.154626  0.029892484 
number of iterations: 1763 
   14500    44.299616      407          291          116 2.8818446e-13 1.0603618e-14          0.1 0.0090045778    14.375497  0.029892375 
number of iterations: 1727 
   14600    44.498494      411          295          116 2.9200354e-13 1.0617514e-14          0.1 0.0090046324    14.599299  0.029892285 
number of iterations: 1768 
   14700    44.708575      413          297          116 2.9587322e-13 1.0631498e-14          0.1 0.0090046977    14.826072  0.029892176 
number of iterations: 1738 
   14800    44.902751      416          300          116 2.9979419e-13 1.0645569e-14          0.1 0.0090047558    15.055854  0.029892079 
number of iterations: 1788 
   14900    45.123703      418          302          116 3.0376711e-13 1.0659728e-14          0.1 0.0090048204    15.288687  0.029891972 
number of iterations: 1856 
   15000    45.330854      421          305          116 3.0779269e-13 1.0673973e-14          0.1 0.0090048885     15.52461  0.029891858 
number of iterations: 1840 
   15100    45.567273      425          309          116 3.1187161e-13 1.0688304e-14          0.1 0.0090049659    15.763665  0.029891729 
number of iterations: 1779 
   15200    45.776486      428          312          116 3.1600459e-13 1.0702721e-14          0.1 0.0090050342    16.005893  0.029891615 
number of iterations: 1833 
   15300    45.970926      429          313          116 3.2019234e-13 1.0717223e-14          0.1 0.0090051136    16.251335  0.029891483 
number of iterations: 1786 
   15400    46.198814      431          315          116 3.2443558e-13 1.0731809e-14          0.1 0.0090051706    16.500035  0.029891388 
number of iterations: 1804 
   15500    46.412356      436          320          116 3.2873506e-13 1.074648e-14          0.1 0.0090052335    16.752037  0.029891284 
number of iterations: 1817 
   15600    46.626027      439          323          116 3.3309152e-13 1.0761234e-14          0.1 0.0090053046    17.007383  0.029891165 
number of iterations: 1824 
   15700    46.820435      444          328          116 3.375057e-13 1.0776072e-14          0.1  0.009005373    17.266118  0.029891051 
number of iterations: 1867 
   15800    47.019299      448          332          116 3.4197839e-13 1.0790993e-14          0.1 0.0090054552    17.528287  0.029890914 
number of iterations: 1782 
   15900    47.213896      451          335          116 3.4651034e-13 1.0805996e-14          0.1 0.0090055214    17.793935  0.029890804 
number of iterations: 1825 
   16000    47.407753      457          341          116 3.5110236e-13 1.0821081e-14          0.1 0.0090055954     18.06311  0.029890681 
number of iterations: 1883 
   16100    47.654224      461          345          116 3.5575523e-13 1.0836247e-14          0.1 0.0090056854    18.335857  0.029890531 
number of iterations: 1824 
   16200    47.871986      463          347          116 3.6046975e-13 1.0851494e-14          0.1 0.0090057637    18.612223  0.029890401 
number of iterations: 1806 
   16300    48.062579      467          351          116 3.6524676e-13 1.0866822e-14          0.1 0.0090058342    18.892258  0.029890283 
number of iterations: 1820 
   16400    48.274103      472          356          116 3.7008707e-13 1.088223e-14          0.1 0.0090059087    19.176009  0.029890159 
number of iterations: 1804 
   16500    48.491991      478          362          116 3.7499153e-13 1.0897718e-14          0.1 0.0090059751    19.463525  0.029890049 
number of iterations: 1768 
   16600     48.69134      486          370          116 3.7996098e-13 1.0913285e-14          0.1  0.009006043    19.754857  0.029889936 
number of iterations: 1831 
   16700    48.889734      493          377          116 3.8499629e-13 1.0928931e-14          0.1 0.0090061245    20.050056    0.0298898 
number of iterations: 1833 
   16800    49.097341      495          379          116 3.9009832e-13 1.0944656e-14          0.1 0.0090062074    20.349172  0.029889662 
number of iterations: 1837 
   16900    49.308781      503          387          116 3.9526797e-13 1.0960459e-14          0.1 0.0090062893    20.652256  0.029889525 
number of iterations: 1842 
   17000    49.503355      508          392          116 4.0050613e-13 1.097634e-14          0.1 0.0090063648    20.959363    0.0298894 
number of iterations: 1860 
   17100     49.73321      512          396          116 4.058137e-13 1.0992298e-14          0.1 0.0090064537    21.270545  0.029889252 
number of iterations: 1831 
   17200    49.941369      518          402          116 4.1119161e-13 1.1008334e-14          0.1  0.009006534    21.585857  0.029889118 
number of iterations: 1837 
   17300    50.126971      526          410          116 4.1664079e-13 1.1024446e-14          0.1 0.0090066185    21.905352  0.029888977 
number of iterations: 1844 
   17400    50.344083      529          413          116 4.2216219e-13 1.1040634e-14          0.1 0.0090067095    22.229088  0.029888826 
number of iterations: 1786 
   17500    50.530748      536          420          116 4.2775675e-13 1.1056898e-14          0.1 0.0090067798    22.557119  0.029888709 
number of iterations: 1937 
   17600    50.742252      549          433          116 4.3342545e-13 1.1073238e-14          0.1 0.0090068836    22.889503  0.029888536 
number of iterations: 1878 
   17700    50.940659      552          436          116 4.3916928e-13 1.1089653e-14          0.1 0.0090069832    23.226298   0.02988837 
number of iterations: 1869 
   17800    51.171254      557          441          116 4.4498922e-13 1.1106143e-14          0.1 0.0090070797    23.567562  0.029888209 
number of iterations: 1857 
   17900    51.397566      563          446          117 4.5088629e-13 1.1122708e-14          0.1 0.0090071774    23.913355  0.029888047 
number of iterations: 1915 
   18000    51.596691      568          451          117 4.5686151e-13 1.1139347e-14          0.1 0.0090072782    24.263736  0.029887879 
number of iterations: 1886 
   18100    51.840214      571          454          117 4.6291591e-13 1.1156059e-14          0.1 0.0090073782    24.618767  0.029887712 
number of iterations: 1866 
   18200     52.03184      578          461          117 4.6905054e-13 1.1172846e-14          0.1 0.0090074796    24.978508  0.029887543 
number of iterations: 1900 
   18300    52.241325      583          466          117 4.7526648e-13 1.1189705e-14          0.1 0.0090075877    25.343022  0.029887363 
number of iterations: 1918 
   18400    52.446717      591          474          117 4.8156478e-13 1.1206637e-14          0.1    0.0090077    25.712373  0.029887176 
number of iterations: 1869 
   18500    52.651319      596          479          117 4.8794656e-13 1.1223642e-14          0.1 0.0090077942    26.086623  0.029887019 
number of iterations: 1921 
   18600    52.839324      604          487          117 4.944129e-13 1.1240719e-14          0.1 0.0090079074     26.46584  0.029886831 
number of iterations: 1854 
   18700    53.020718      608          491          117 5.0096494e-13 1.1257868e-14          0.1 0.0090080032    26.850088  0.029886671 
number of iterations: 1868 
   18800    53.221556      618          501          117 5.076038e-13 1.1275088e-14          0.1 0.0090081005    27.239435  0.029886509 
number of iterations: 1901 
   18900     53.43768      631          514          117 5.1433065e-13 1.129238e-14          0.1 0.0090082005    27.633947  0.029886343 
number of iterations: 1939 
   19000    53.667732      638          521          117 5.2114664e-13 1.1309743e-14          0.1 0.0090083067    28.033693  0.029886166 
number of iterations: 1881 
   19100    53.867996      643          526          117 5.2805295e-13 1.1327177e-14          0.1  0.009008404    28.438743  0.029886004 
number of iterations: 1907 
   19200     54.09278      650          533          117 5.3505079e-13 1.134468e-14          0.1 0.0090085065    28.849166  0.029885833 
number of iterations: 1936 
   19300    54.324943      658          541          117 5.4214137e-13 1.1362255e-14          0.1 0.0090086209    29.265035  0.029885643 
number of iterations: 1877 
   19400    54.514492      663          546          117 5.493259e-13 1.1379898e-14          0.1 0.0090087237    29.686421  0.029885472 
number of iterations: 1907 
   19500    54.714061      674          557          117 5.5660565e-13 1.1397612e-14          0.1 0.0090088391    30.113397   0.02988528 
number of iterations: 1914 
   19600     54.91248      679          562          117 5.6398187e-13 1.1415395e-14          0.1 0.0090089613    30.546038  0.029885076 
number of iterations: 1931 
   19700    55.148829      692          574          118 5.7145585e-13 1.1433246e-14          0.1 0.0090090751    30.984418  0.029884887 
number of iterations: 1959 
   19800    55.359474      694          576          118 5.7902886e-13 1.1451167e-14          0.1 0.0090092058    31.428614  0.029884669 
number of iterations: 1925 
   19900    55.565913      698          580          118 5.8670224e-13 1.1469156e-14          0.1 0.0090093325    31.878704  0.029884458 
number of iterations: 1921 
   20000    55.793014      702          584          118 5.944773e-13 1.1487213e-14          0.1 0.0090094477    32.334765  0.029884266 
number of iterations: 1953 
   20100    56.028056      710          592          118 6.023554e-13 1.1505338e-14          0.1 0.0090095703    32.796876  0.029884062 
number of iterations: 1964 
   20200    56.258849      721          603          118 6.103379e-13 1.152353e-14          0.1 0.0090097217    33.265118   0.02988381 
number of iterations: 1928 
   20300    56.476107      724          606          118 6.1842619e-13 1.154179e-14          0.1 0.0090098294    33.739572  0.029883631 
number of iterations: 1948 
   20400    56.699981      733          615          118 6.2662166e-13 1.1560118e-14          0.1 0.0090099578    34.220319  0.029883417 
number of iterations: 1914 
   20500    56.905331      739          621          118 6.3492574e-13 1.1578512e-14          0.1  0.009010082    34.707444   0.02988321 
number of iterations: 1925 
   20600     57.10899      746          628          118 6.4333986e-13 1.1596973e-14          0.1  0.009010203    35.201031  0.029883008 
number of iterations: 1972 
   20700    57.331352      755          637          118 6.5186549e-13  1.16155e-14          0.1 0.0090103596    35.701166  0.029882748 
number of iterations: 1953 
   20800    57.534074      761          643          118 6.605041e-13 1.1634094e-14          0.1 0.0090104964    36.207936   0.02988252 
number of iterations: 1960 
   20900     57.76353      774          655          119 6.6925719e-13 1.1652754e-14          0.1 0.0090106419    36.721431  0.029882278 
number of iterations: 1913 
   21000    58.049969      788          669          119 6.7812628e-13 1.1671479e-14          0.1 0.0090107696    37.241737  0.029882065 
number of iterations: 2007 
   21100    58.299208      795          676          119 6.871129e-13 1.169027e-14          0.1 0.0090109344    37.768946  0.029881791 
number of iterations: 1953 
   21200    58.508824      802          683          119 6.9621861e-13 1.1709127e-14          0.1 0.0090110853    38.303149  0.029881539 
number of iterations: 1953 
   21300    58.777812      811          692          119 7.0544499e-13 1.1728048e-14          0.1 0.0090112223    38.844438  0.029881311 
number of iterations: 1970 
   21400    59.009169      818          699          119 7.1479364e-13 1.1747034e-14          0.1 0.0090113698    39.392908  0.029881066 
number of iterations: 1950 
   21500    59.238034      821          702          119 7.2426618e-13 1.1766085e-14          0.1 0.0090115179    39.948655  0.029880819 
number of iterations: 1932 
   21600    59.436768      832          713          119 7.3386425e-13 1.1785201e-14          0.1 0.0090116556    40.511773   0.02988059 
number of iterations: 1985 
   21700    59.651205      842          723          119 7.4358952e-13 1.1804381e-14          0.1 0.0090118182    41.082361  0.029880319 
number of iterations: 1929 
   21800    59.841947      855          735          120 7.5344366e-13 1.1823625e-14          0.1 0.0090119576    41.660516  0.029880087 
number of iterations: 1958 
   21900    60.077205      861          741          120 7.6342839e-13 1.1842933e-14          0.1 0.0090121056     42.24634   0.02987984 
number of iterations: 2042 
   22000    60.310376      873          753          120 7.7354544e-13 1.1862304e-14          0.1 0.0090122901    42.839937  0.029879533 
number of iterations: 1950 
   22100    60.552826      885          765          120 7.8379656e-13 1.1881739e-14          0.1 0.0090124433    43.441405  0.029879278 
number of iterations: 2035 
   22200    60.774356      895          775          120 7.9418353e-13 1.1901237e-14          0.1 0.0090126128    44.050851  0.029878996 
number of iterations: 1977 
   22300    61.002741      902          781          121 8.0470815e-13 1.1920799e-14          0.1 0.0090127693    44.668381  0.029878735 
number of iterations: 2019 
   22400    61.235385      918          795          123 8.1537224e-13 1.1940423e-14          0.1 0.0090129681    45.294103  0.029878404 
number of iterations: 2005 
   22500    61.472216      929          806          123 8.2498209e-13 1.196011e-14          0.1 0.0090131512    45.927208  0.029878099 
number of iterations: 2017 
   22600    61.685646      946          823          123 8.3591485e-13 1.197986e-14          0.1 0.0090133444    46.568711  0.029877778 
number of iterations: 1998 
   22700    61.902607      960          837          123 8.4699249e-13 1.1999672e-14          0.1 0.0090135168    47.218724   0.02987749 
number of iterations: 2021 
   22800    62.128374      972          849          123 8.5821693e-13 1.2019546e-14          0.1 0.0090137022    47.877357  0.029877182 
number of iterations: 2016 
   22900    62.327579      981          858          123 8.6959012e-13 1.2039482e-14          0.1  0.009013901    48.544726  0.029876851 
number of iterations: 2022 
   23000    62.539622      995          872          123 8.8111403e-13 1.2059481e-14          0.1 0.0090141044    49.220945  0.029876512 
number of iterations: 2016 
   23100    62.760618     1012          889          123 8.9279065e-13 1.207954e-14          0.1 0.0090143009    49.906134  0.029876185 
number of iterations: 1998 
   23200    62.982951     1025          901          124 9.0462201e-13 1.2099662e-14          0.1 0.0090144859     50.60041  0.029875877 
number of iterations: 2011 
   23300    63.221954     1036          912          124 9.1661016e-13 1.2119844e-14          0.1 0.0090146872    51.303895  0.029875542 
number of iterations: 2019 
   23400    63.451618     1046          922          124 9.2875718e-13 1.2140088e-14          0.1 0.0090148827     52.01671  0.029875216 
number of iterations: 2031 
   23500    63.673435     1062          938          124 9.4106517e-13 1.2160393e-14          0.1 0.0090150712     52.73898  0.029874902 
number of iterations: 2042 
   23600    63.885382     1071          947          124 9.5267251e-13 1.2180759e-14          0.1 0.0090152679    53.470166  0.029874575 
number of iterations: 2015 
   23700    64.105323     1084          960          124 9.6529743e-13 1.2201186e-14          0.1 0.0090154653     54.21105  0.029874246 
number of iterations: 2034 
   23800    64.360568     1100          976          124 9.7808965e-13 1.2221673e-14          0.1 0.0090156882    54.961758  0.029873875 
number of iterations: 2015 
   23900    64.589683     1118          994          124 9.9105139e-13 1.2242221e-14          0.1 0.0090158872    55.722423  0.029873544 
number of iterations: 2059 
   24000    64.802776     1130         1006          124 1.0041849e-12 1.226283e-14          0.1 0.0090161336    56.493177  0.029873133 
number of iterations: 2054 
   24100    65.104596     1142         1017          125 1.0174925e-12 1.2283498e-14          0.1 0.0090163556    57.274152  0.029872763 
number of iterations: 2051 
   24200    65.346256     1157         1031          126 1.0309764e-12 1.2304227e-14          0.1 0.0090165687    58.065485  0.029872409 
number of iterations: 2043 
   24300    65.558807     1170         1044          126 1.044639e-12 1.2325015e-14          0.1 0.0090167816    58.867311  0.029872054 
number of iterations: 2023 
   24400    65.777173     1184         1057          127 1.0584826e-12 1.2345864e-14          0.1 0.0090169854    59.679771  0.029871715 
number of iterations: 2049 
   24500     65.99783     1195         1068          127 1.0725097e-12 1.2366772e-14          0.1 0.0090171994    60.503005  0.029871359 
number of iterations: 2014 
   24600    66.248503     1202         1075          127 1.0867227e-12 1.2387739e-14          0.1 0.0090173977    61.337157  0.029871028 
number of iterations: 2067 
   24700    66.466783     1217         1090          127 1.1011241e-12 1.2408766e-14          0.1 0.0090176375     62.18237  0.029870629 
number of iterations: 2038 
   24800    66.704001     1235         1108          127 1.1157163e-12 1.2429853e-14          0.1 0.0090178669    63.038792  0.029870247 
number of iterations: 2093 
   24900     66.91925     1246         1119          127 1.1305018e-12 1.2450998e-14          0.1  0.009018092    63.906571  0.029869872 
number of iterations: 2077 
   25000    67.141582     1259         1132          127 1.1454833e-12 1.2472203e-14          0.1 0.0090183509    64.785857  0.029869441 
number of iterations: 2063 
   25100    67.367839     1272         1145          127 1.1606634e-12 1.2493467e-14          0.1 0.0090185909    65.676802  0.029869042 
number of iterations: 2068 
   25200    67.579779     1284         1156          128 1.1760446e-12 1.251479e-14          0.1 0.0090188335    66.579562  0.029868638 
number of iterations: 2078 
   25300    67.821461     1297         1169          128 1.1916296e-12 1.2536171e-14          0.1 0.0090190864    67.494294  0.029868216 
number of iterations: 2078 
   25400    68.045774     1307         1179          128 1.2074212e-12 1.2557611e-14          0.1 0.0090193515    68.421156  0.029867775 
number of iterations: 2070 
   25500    68.310366     1318         1190          128 1.223422e-12 1.257911e-14          0.1  0.009019613    69.360309   0.02986734 
number of iterations: 2075 
   25600    68.543031     1338         1210          128 1.2396349e-12 1.2600667e-14          0.1 0.0090198761    70.311917  0.029866902 
number of iterations: 2093 
   25700    68.804329     1353         1225          128 1.2547994e-12 1.2622282e-14          0.1 0.0090201368     71.27518  0.029866467 
number of iterations: 2084 
   25800    69.042107     1370         1242          128 1.2714281e-12 1.2643956e-14          0.1 0.0090204029    72.251216  0.029866024 
number of iterations: 2082 
   25900    69.271894     1379         1251          128 1.2882772e-12 1.2665688e-14          0.1 0.0090206682    73.240193  0.029865583 
number of iterations: 2104 
   26000    69.521859     1394         1266          128 1.3053495e-12 1.2687478e-14          0.1 0.0090209675    74.242283  0.029865084 
number of iterations: 2101 
   26100    69.753784     1414         1286          128 1.3226481e-12 1.2709326e-14          0.1 0.0090212363    75.257661  0.029864637 
number of iterations: 2095 
   26200    69.979863     1434         1305          129 1.3391421e-12 1.2731232e-14          0.1 0.0090215069    76.285714  0.029864186 
number of iterations: 2139 
   26300     70.22107     1449         1319          130 1.3568885e-12 1.2753195e-14          0.1 0.0090218015    77.327397  0.029863695 
number of iterations: 2114 
   26400     70.44387     1464         1332          132  1.37487e-12 1.2775217e-14          0.1 0.0090221181    78.382893  0.029863168 
number of iterations: 2085 
   26500    70.678322     1488         1354          134 1.3930899e-12 1.2797296e-14          0.1  0.009022389    79.452385  0.029862717 
number of iterations: 2143 
   26600     70.92327     1507         1373          134 1.4115512e-12 1.2819432e-14          0.1 0.0090227226    80.536057  0.029862162 
number of iterations: 2107 
   26700    71.181678     1530         1396          134 1.4302572e-12 1.2841626e-14          0.1 0.0090230202    81.634099  0.029861666 
number of iterations: 2116 
   26800    71.411674     1556         1421          135 1.449211e-12 1.2863878e-14          0.1 0.0090233245    82.746699   0.02986116 
number of iterations: 2135 
   26900    71.635333     1583         1448          135 1.468416e-12 1.2886187e-14          0.1 0.0090236508    83.874054  0.029860616 
number of iterations: 2091 
   27000    71.880786     1607         1472          135 1.4865295e-12 1.2908552e-14          0.1 0.0090239302    85.015324  0.029860151 
number of iterations: 2142 
   27100    72.098192     1627         1492          135 1.5062291e-12 1.2930976e-14          0.1 0.0090242721    86.171727  0.029859582 
number of iterations: 2119 
   27200    72.335718     1643         1508          135 1.5261897e-12 1.2953456e-14          0.1 0.0090245704    87.343464  0.029859085 
number of iterations: 2114 
   27300    72.572518     1670         1535          135 1.5464148e-12 1.2975993e-14          0.1  0.009024886    88.530737  0.029858559 
number of iterations: 2145 
   27400    72.798007     1689         1554          135 1.566908e-12 1.2998587e-14          0.1 0.0090252021    89.733753  0.029858033 
number of iterations: 2112 
   27500    73.095685     1713         1576          137 1.5876727e-12 1.3021238e-14          0.1 0.0090255267     90.95272  0.029857493 
number of iterations: 2148 
   27600    73.333107     1730         1592          138 1.6087126e-12 1.3043946e-14          0.1 0.0090258653    92.187848  0.029856929 
number of iterations: 2151 
   27700    73.563803     1755         1616          139 1.6300313e-12 1.3066711e-14          0.1 0.0090262123    93.439353  0.029856351 
number of iterations: 2151 
   27800    73.798073     1775         1636          139 1.6516326e-12 1.3089532e-14          0.1 0.0090265872    94.707452  0.029855727 
number of iterations: 2132 
   27900     74.03401     1788         1648          140  1.67352e-12 1.311241e-14          0.1  0.009026924    95.992366  0.029855166 
number of iterations: 2123 
   28000    74.265723     1812         1671          141 1.6956976e-12 1.3135345e-14          0.1 0.0090272586    97.294315  0.029854609 
number of iterations: 2158 
   28100    74.487681     1834         1693          141 1.718169e-12 1.3158336e-14          0.1 0.0090276343    98.613526  0.029853983 
number of iterations: 2121 
   28200    74.731536     1858         1717          141 1.7400299e-12 1.3181383e-14          0.1  0.009027967    99.949533  0.029853429 
number of iterations: 2145 
   28300    74.969268     1878         1737          141 1.7621698e-12 1.3204487e-14          0.1 0.0090283358    101.30255  0.029852815 
number of iterations: 2139 
   28400     75.24085     1902         1760          142 1.7846421e-12 1.3227648e-14          0.1 0.0090286894    102.67284  0.029852226 
number of iterations: 2169 
   28500    75.485136     1921         1779          142 1.8062077e-12 1.3250864e-14          0.1 0.0090290831    104.05969  0.029851571 
number of iterations: 2165 
   28600    75.715239     1942         1800          142 1.8301436e-12 1.3274137e-14          0.1 0.0090294738    105.46493   0.02985092 
number of iterations: 2160 
   28700    75.961028     1962         1820          142 1.8543967e-12 1.3297467e-14          0.1 0.0090298309    106.88881  0.029850326 
number of iterations: 2139 
   28800    76.204309     1992         1850          142 1.8778956e-12 1.3320852e-14          0.1 0.0090301851    108.33074  0.029849736 
number of iterations: 2199 
   28900    76.457893     2022         1880          142 1.9027814e-12 1.3344294e-14          0.1  0.009030633    109.79178   0.02984899 
number of iterations: 2148 
   29000    76.691787     2050         1907          143 1.9279971e-12 1.3367791e-14          0.1 0.0090310017    111.27221  0.029848376 
number of iterations: 2184 
   29100    76.930513     2068         1925          143 1.953547e-12 1.3391345e-14          0.1   0.00903142    112.77226   0.02984768 
number of iterations: 2165 
   29200      77.2041     2103         1959          144 1.9794354e-12 1.3414955e-14          0.1 0.0090317976    114.29219  0.029847051 
number of iterations: 2171 
   29300    78.388859     2132         1987          145 2.0045002e-12 1.3438621e-14          0.1  0.009032193    115.83139  0.029846392 
number of iterations: 2190 
   29400    78.654372     2154         2009          145 2.0310638e-12 1.3462342e-14          0.1 0.0090325766    117.39099  0.029845754 
number of iterations: 2195 
   29500    78.914153     2177         2032          145 2.0579795e-12 1.348612e-14          0.1 0.0090330145    118.97127  0.029845024 
number of iterations: 2181 
   29600    79.159321     2210         2065          145 2.0852518e-12 1.3509954e-14          0.1 0.0090334345    120.57249  0.029844325 
number of iterations: 2203 
   29700    79.398321     2232         2087          145 2.1128855e-12 1.3533843e-14          0.1 0.0090338983    122.19495  0.029843553 
number of iterations: 2200 
   29800    79.628793     2261         2116          145 2.1408855e-12 1.3557789e-14          0.1 0.0090343505    123.83891    0.0298428 
number of iterations: 2177 
   29900    79.863292     2286         2140          146 2.1692565e-12 1.358179e-14          0.1 0.0090347947    125.50467   0.02984206 
number of iterations: 2212 
   30000    80.105878     2312         2165          147 2.1980034e-12 1.3605847e-14          0.1 0.0090352784    127.19251  0.029841255 
number of iterations: 2211 
   30100    80.381955     2337         2190          147 2.2260243e-12 1.362996e-14          0.1 0.0090357292    128.90188  0.029840504 
number of iterations: 2219 
   30200    80.624314     2372         2225          147 2.2545959e-12 1.3654129e-14          0.1 0.0090362179    130.63321   0.02983969 
number of iterations: 2218 
   30300    80.890846     2394         2246          148 2.2833455e-12 1.3678353e-14          0.1 0.0090366587    132.38662  0.029838957 
number of iterations: 2232 
   30400    81.138513     2435         2287          148 2.3136043e-12 1.3702633e-14          0.1 0.0090371451    134.16329  0.029838147 
number of iterations: 2223 
   30500    81.399001     2462         2314          148 2.3442641e-12 1.3726969e-14          0.1 0.0090376265    135.96351  0.029837345 
number of iterations: 2228 
   30600    81.641726     2486         2338          148 2.3740314e-12 1.375136e-14          0.1 0.0090381163     137.7866  0.029836529 
number of iterations: 2232 
   30700    81.885552     2518         2369          149 2.4047381e-12 1.3775807e-14          0.1 0.0090386355    139.63327  0.029835665 
number of iterations: 2239 
   30800    82.141583     2551         2402          149 2.4366056e-12 1.380031e-14          0.1 0.0090391881    141.50443  0.029834745 
number of iterations: 2238 
   30900    82.419635     2587         2438          149 2.4688954e-12 1.3824869e-14          0.1 0.0090397374     143.4004   0.02983383 
number of iterations: 2215 
   31000    82.674522     2622         2473          149 2.5009361e-12 1.3849483e-14          0.1 0.0090402333    145.32098  0.029833004 
number of iterations: 2177 
   31100    82.910165     2650         2501          149 2.5329255e-12 1.3874153e-14          0.1 0.0090406917    147.26614  0.029832241 
number of iterations: 2249 
   31200    83.150118     2685         2536          149 2.5655811e-12 1.3898878e-14          0.1 0.0090412377    149.23638  0.029831332 
number of iterations: 2228 
   31300    83.423303     2711         2562          149  2.59958e-12 1.3923659e-14          0.1 0.0090417628    151.23275  0.029830458 
number of iterations: 2241 
   31400    83.670032     2746         2597          149 2.6340295e-12 1.3948496e-14          0.1 0.0090423298    153.25558  0.029829513 
number of iterations: 2273 
   31500    83.923665     2774         2625          149 2.667848e-12 1.3973388e-14          0.1 0.0090429018     155.3044  0.029828561 
number of iterations: 2242 
   31600    84.180644     2806         2657          149 2.7013789e-12 1.3998336e-14          0.1 0.0090434382      157.379  0.029827668 
number of iterations: 2254 
   31700    84.449282     2838         2689          149 2.7363354e-12 1.402334e-14          0.1 0.0090440261    159.48045  0.029826689 
number of iterations: 2260 
   31800    84.686707     2867         2716          151 2.7725971e-12 1.4048399e-14          0.1   0.00904466    161.60977  0.029825633 
number of iterations: 2257 
   31900    84.945388     2914         2763          151 2.8093394e-12 1.4073514e-14          0.1 0.0090452376     163.7673  0.029824672 
number of iterations: 2269 
   32000    85.253464     2938         2787          151 2.8465685e-12 1.4098684e-14          0.1 0.0090458176    165.95344  0.029823706 
number of iterations: 2270 
   32100    85.500604     2975         2823          152 2.8834189e-12 1.412391e-14          0.1 0.0090464616    168.16789  0.029822634 
number of iterations: 2251 
   32200    85.768568     3019         2867          152 2.9202253e-12 1.4149192e-14          0.1 0.0090470215    170.41063  0.029821701 
number of iterations: 2252 
   32300    86.039679     3056         2904          152 2.9589239e-12 1.4174529e-14          0.1 0.0090476332     172.6831  0.029820683 
number of iterations: 2297 
   32400    86.323689     3093         2940          153 2.9973692e-12 1.4199922e-14          0.1 0.0090483333    174.98511  0.029819517 
number of iterations: 2264 
   32500     86.62288     3132         2978          154 3.0370901e-12 1.4225371e-14          0.1 0.0090489531    177.31764  0.029818485 
number of iterations: 2300 
   32600    86.870015     3170         3016          154 3.0773373e-12 1.4250875e-14          0.1 0.0090496307    179.68109  0.029817357 
number of iterations: 2286 
   32700    87.124875     3216         3062          154 3.1181179e-12 1.4276435e-14          0.1 0.0090502773    182.07587   0.02981628 
number of iterations: 2263 
   32800    87.375185     3268         3114          154 3.1594389e-12 1.430205e-14          0.1 0.0090509249    184.50241  0.029815202 
number of iterations: 2289 
   32900    87.634983     3315         3161          154 3.1999266e-12 1.4327721e-14          0.1   0.00905159    186.96005  0.029814094 
number of iterations: 2307 
   33000    87.885195     3364         3210          154 3.2423317e-12 1.4353448e-14          0.1 0.0090523518    189.45027  0.029812826 
number of iterations: 2297 
   33100    88.150619     3399         3245          154 3.283035e-12 1.4379231e-14          0.1 0.0090530255    191.97177  0.029811704 
number of iterations: 2295 
   33200     88.47126     3445         3291          154 3.3265414e-12 1.4405069e-14          0.1 0.0090537166    194.52669  0.029810553 
number of iterations: 2317 
   33300    88.750962     3482         3327          155 3.3706243e-12 1.4430963e-14          0.1 0.0090545059    197.11548  0.029809239 
number of iterations: 2311 
   33400    89.020833     3528         3373          155 3.4152914e-12 1.4456913e-14          0.1 0.0090552246    199.73859  0.029808042 
number of iterations: 2306 
   33500    89.271182     3571         3416          155 3.4573299e-12 1.4482919e-14          0.1  0.009055915    202.39401  0.029806893 
number of iterations: 2334 
   33600    89.537348     3605         3450          155 3.5017496e-12 1.4508981e-14          0.1 0.0090567259    205.08356  0.029805542 
number of iterations: 2313 
   33700    89.807752     3659         3503          156 3.5481543e-12 1.4535098e-14          0.1 0.0090574836    207.80877  0.029804281 
number of iterations: 2320 
   33800    90.060954     3694         3537          157 3.5928846e-12 1.4561271e-14          0.1 0.0090582532    210.56837  0.029802999 
number of iterations: 2324 
   33900    90.350952     3738         3581          157 3.639304e-12  1.45875e-14          0.1 0.0090590152    213.36363  0.029801731 
number of iterations: 2307 
   34000    90.624081     3790         3632          158 3.6856905e-12 1.4613785e-14          0.1 0.0090597886    216.19454  0.029800443 
number of iterations: 2327 
   34100     90.88727     3846         3688          158 3.7345327e-12 1.4640126e-14          0.1 0.0090606043    219.06297  0.029799084 
number of iterations: 2325 
   34200    91.156754     3889         3730          159 3.7828364e-12 1.4666523e-14          0.1 0.0090613807    221.96851  0.029797792 
number of iterations: 2320 
   34300    91.455576     3943         3784          159 3.8321756e-12 1.4692976e-14          0.1 0.0090621718    224.91196  0.029796474 
number of iterations: 2311 
   34400     91.73055     3988         3829          159 3.8829589e-12 1.4719485e-14          0.1 0.0090629577    227.89443  0.029795166 
number of iterations: 2349 
   34500    91.998195     4034         3875          159 3.9320898e-12 1.474605e-14          0.1 0.0090637666    230.91466  0.029793819 
number of iterations: 2332 
   34600     92.27729     4094         3935          159 3.9841971e-12 1.4772671e-14          0.1 0.0090645899    233.97494  0.029792448 
number of iterations: 2351 
   34700    92.548251     4148         3989          159 4.036995e-12 1.4799348e-14          0.1 0.0090655046    237.07579  0.029790925 
number of iterations: 2328 
   34800    92.819084     4199         4039          160 4.0904925e-12 1.4826081e-14          0.1 0.0090663145    240.21773  0.029789576 
number of iterations: 2333 
   34900    93.096425     4239         4076          163 4.1396636e-12 1.485287e-14          0.1 0.0090671569    243.39748  0.029788174 
number of iterations: 2338 
   35000    93.388078     4292         4129          163 4.1908099e-12 1.4879715e-14          0.1 0.0090679829    246.61656  0.029786798 
Loop time of 93.3881 on 32 procs for 35000 steps with 4292 atoms

Performance: 323809873.340 tau/day, 374.780 timesteps/s
91.4% CPU use with 32 MPI tasks x no OpenMP threads

MPI task timing breakdown:
Section |  min time  |  avg time  |  max time  |%varavg| %total
---------------------------------------------------------------
Pair    | 0.0024459  | 0.061482   | 0.15442    |  18.8 |  0.07
Neigh   | 0.0030953  | 0.018704   | 0.044953   |   9.2 |  0.02
Comm    | 0.071575   | 0.16925    | 0.26011    |  11.6 |  0.18
Output  | 22.258     | 22.258     | 22.267     |   0.0 | 23.83
Modify  | 70.437     | 70.482     | 70.546     |   0.4 | 75.47
Other   |            | 0.3983     |            |       |  0.43

Nlocal:    134.125 ave 329 max 2 min
Histogram: 8 2 2 6 4 3 1 0 3 3
Nghost:    76.5938 ave 156 max 3 min
Histogram: 2 4 5 3 4 3 2 3 2 4
Neighs:    469.938 ave 1228 max 0 min
Histogram: 8 3 4 5 3 2 0 1 2 4

Total # of neighbors = 15038
Ave neighs/atom = 3.50373
Neighbor list builds = 732
Dangerous builds = 0
Total wall time: 0:01:33
