LAMMPS (20 Nov 2019)
Reading data file ...
  orthogonal box = (0 0 0) to (0.0001 0.0001 1e-05)
  8 by 4 by 1 MPI processor grid
  reading atoms ...
  100 atoms
  4 nutrients
Lattice spacing in x,y,z = 100 100 100
50 atoms in group CYANO
50 atoms in group ECW
Model is defined as a closed system. 
Neighbor list info ...
  update every 1 steps, delay 0 steps, check yes
  max neighbors/atom: 5000, page size: 100000
  master list distance cutoff = 2.42e-06
  ghost atom cutoff = 2.42e-06
  binsize = 1.21e-06, bins = 83 83 9
  1 neighbor lists, perpetual/occasional/extra = 1 0 0
  (1) pair gran/hooke/history, perpetual
      attributes: half, newton off, size, history
      pair build: half/size/bin/newtoff
      stencil: half/bin/3d/newtoff
      bin: standard
Setting up Verlet run ...
  Unit style    : lj
  Current step  : 0
  Time step     : 10
Per MPI rank memory allocation (min/avg/max) = 5.79 | 10.75 | 12.11 Mbytes
Step CPU Atoms c_myNtypes[1] c_myNtypes[2] c_myMass[1] c_myMass[2] c_myCon[1] c_myCon[2] c_myCon[3] c_myCon[4] 
       0            0      100           50           50 4.4959937e-14 9.7892442e-15          0.1        0.009     3.42e-20       0.0299 
number of iterations: 325743 
     100    15.649596      140           50           90 4.5555756e-14 9.7820998e-15          0.1 0.0090007905  0.036127982  0.029898683 
number of iterations: 4279 
     200    15.992362      159           50          109 4.615947e-14 9.7761097e-15          0.1 0.0090007984   0.07157218   0.02989867 
number of iterations: 2511 
     300    16.250674      159           50          109 4.6771186e-14 9.7712789e-15          0.1 0.0090008089   0.10745546  0.029898652 
number of iterations: 1863 
     400    16.470971      159           50          109 4.7391007e-14 9.7676059e-15          0.1 0.0090008196   0.14378718  0.029898635 
number of iterations: 1510 
     500    16.704999      159           50          109 4.8019043e-14 9.765084e-15          0.1 0.0090008304   0.18057447  0.029898617 
number of iterations: 1394 
     600    16.895992      160           51          109 4.8655402e-14 9.7637053e-15          0.1 0.0090008413    0.2178241  0.029898598 
number of iterations: 1387 
     700    17.074228      161           52          109 4.9300194e-14 9.763461e-15          0.1 0.0090008524   0.25554284   0.02989858 
number of iterations: 1399 
     800    17.272865      161           52          109 4.9953531e-14 9.7643434e-15          0.1 0.0090008637   0.29373742  0.029898561 
number of iterations: 1414 
     900    17.469657      162           53          109 5.0615526e-14 9.7663454e-15          0.1  0.009000875   0.33241455  0.029898542 
number of iterations: 1409 
    1000     17.67031      163           54          109 5.1286294e-14 9.7694583e-15          0.1 0.0090008866   0.37158123  0.029898523 
number of iterations: 1437 
    1100    17.922151      165           56          109 5.1965951e-14 9.7736765e-15          0.1 0.0090008996   0.41124446  0.029898501 
number of iterations: 1410 
    1200    18.191423      165           56          109 5.2654615e-14 9.7789925e-15          0.1 0.0090009115   0.45141129  0.029898481 
number of iterations: 1413 
    1300    18.375125      165           56          109 5.3352405e-14   9.7854e-15          0.1 0.0090009235   0.49208886  0.029898461 
number of iterations: 1416 
    1400    18.561758      165           56          109 5.4059442e-14 9.7928929e-15          0.1 0.0090009357   0.53328439   0.02989844 
number of iterations: 1419 
    1500    18.747903      165           56          109 5.477585e-14 9.8014658e-15          0.1 0.0090009481    0.5750052   0.02989842 
number of iterations: 1422 
    1600    18.936775      166           57          109 5.5501751e-14 9.811113e-15          0.1 0.0090009606   0.61725868  0.029898399 
number of iterations: 1413 
    1700    19.103052      168           58          110 5.6237272e-14 9.8218314e-15          0.1 0.0090009733   0.66005251  0.029898378 
number of iterations: 1427 
    1800    19.274336      168           58          110 5.698254e-14 9.8336151e-15          0.1 0.0090009861   0.70339408  0.029898356 
number of iterations: 1430 
    1900    19.461698      168           58          110 5.7737685e-14 9.8464597e-15          0.1 0.0090009991   0.74729106  0.029898335 
number of iterations: 1433 
    2000    19.626891      168           58          110 5.8502837e-14 9.8603615e-15          0.1 0.0090010123   0.79175121  0.029898312 
number of iterations: 1435 
    2100    19.791034      169           59          110 5.9278129e-14 9.8753172e-15          0.1 0.0090010257   0.83678217   0.02989829 
number of iterations: 1439 
    2200    19.963303      171           61          110 6.0063696e-14 9.8913257e-15          0.1 0.0090010393   0.88239205  0.029898267 
number of iterations: 1489 
    2300    20.143112      172           62          110 6.0859673e-14 9.908382e-15          0.1  0.009001053   0.92858894  0.029898245 
number of iterations: 1445 
    2400    20.335935      172           62          110 6.1666198e-14 9.926483e-15          0.1 0.0090010669   0.97538099  0.029898221 
number of iterations: 1435 
    2500    20.521644      173           63          110 6.2483412e-14 9.9456235e-15          0.1  0.009001081    1.0227765  0.029898198 
number of iterations: 1450 
    2600     20.68225      174           64          110 6.3311455e-14 9.9658041e-15          0.1 0.0090010953    1.0707838  0.029898174 
number of iterations: 1442 
    2700    20.861014      178           68          110 6.4150472e-14 9.9870221e-15          0.1 0.0090011098    1.1194112   0.02989815 
number of iterations: 1455 
    2800    21.034638      178           68          110 6.5000608e-14 1.0009277e-14          0.1 0.0090011245    1.1686674  0.029898125 
number of iterations: 1458 
    2900    21.211405      178           68          110 6.5862009e-14 1.0032567e-14          0.1 0.0090011393     1.218561    0.0298981 
number of iterations: 1478 
    3000    21.440516      179           69          110 6.6734827e-14 1.0056894e-14          0.1 0.0090011544    1.2691009  0.029898075 
number of iterations: 1464 
    3100    21.617594      180           70          110 6.7619211e-14 1.0082253e-14          0.1 0.0090011696    1.3202957   0.02989805 
number of iterations: 1467 
    3200    21.812273      180           70          110 6.8515315e-14 1.0108645e-14          0.1 0.0090011851    1.3721546  0.029898024 
number of iterations: 1490 
    3300    22.017451      184           73          111 6.9423294e-14 1.0136073e-14          0.1 0.0090012008    1.4246867  0.029897998 
number of iterations: 1472 
    3400    22.207692      185           74          111 7.0343307e-14 1.0164535e-14          0.1 0.0090012167    1.4779013  0.029897971 
number of iterations: 1492 
    3500    22.377169      186           75          111 7.1275511e-14 1.0194031e-14          0.1 0.0090012328    1.5318076  0.029897944 
number of iterations: 1478 
    3600    22.589105      186           75          111 7.2220069e-14 1.0224561e-14          0.1 0.0090012491    1.5864152  0.029897917 
number of iterations: 1513 
    3700     22.76321      189           77          112 7.3177145e-14 1.0256126e-14          0.1 0.0090012656    1.6417335   0.02989789 
number of iterations: 1491 
    3800    23.014244      189           77          112 7.4146903e-14 1.0288728e-14          0.1 0.0090012823    1.6977724  0.029897862 
number of iterations: 1486 
    3900    23.204791      190           77          113 7.5129514e-14 1.0322369e-14          0.1 0.0090012993    1.7545416  0.029897833 
number of iterations: 1489 
    4000    23.416565      190           77          113 7.6125146e-14 1.035705e-14          0.1 0.0090013165    1.8120511  0.029897805 
number of iterations: 1495 
    4100    23.607299      191           78          113 7.7133972e-14 1.0392771e-14          0.1 0.0090013339    1.8703109  0.029897776 
number of iterations: 1494 
    4200    23.774128      191           78          113 7.8156168e-14 1.0429536e-14          0.1 0.0090013516    1.9293314  0.029897746 
number of iterations: 1497 
    4300    23.948639      191           78          113 7.919191e-14 1.0467346e-14          0.1 0.0090013695    1.9891227  0.029897716 
number of iterations: 1500 
    4400    24.120114      192           79          113 8.0241378e-14 1.0506205e-14          0.1 0.0090013876    2.0496955  0.029897686 
number of iterations: 1503 
    4500    24.312571      194           80          114 8.1304753e-14 1.0546116e-14          0.1 0.0090014059    2.1110601  0.029897655 
number of iterations: 1569 
    4600    24.494893      196           82          114 8.2382221e-14 1.0587078e-14          0.1  0.009001427    2.1732274   0.02989762 
number of iterations: 1509 
    4700    24.676375      197           82          115 8.3473967e-14 1.0629097e-14          0.1 0.0090014459    2.2362083  0.029897589 
number of iterations: 1510 
    4800    24.862416      198           83          115 8.4580182e-14 1.0672177e-14          0.1  0.009001465    2.3000138  0.029897557 
number of iterations: 1514 
    4900    25.073978      198           83          115 8.5701056e-14 1.071632e-14          0.1 0.0090014844    2.3646551  0.029897524 
number of iterations: 1517 
    5000      25.2842      198           83          115 8.6836784e-14 1.0761532e-14          0.1 0.0090015041    2.4301434  0.029897492 
number of iterations: 1578 
    5100    25.471123      200           84          116 8.7987563e-14 1.0807815e-14          0.1 0.0090015277    2.4964903  0.029897452 
number of iterations: 1473 
    5200    25.639884      202           86          116 8.9153592e-14 1.0855174e-14          0.1 0.0090015416    2.5637074  0.029897429 
number of iterations: 1522 
    5300    25.833196      202           86          116 9.0335074e-14 1.0903613e-14          0.1  0.009001562    2.6318063  0.029897395 
number of iterations: 1525 
    5400    26.002858      203           87          116 9.1532213e-14 1.0953139e-14          0.1 0.0090015827    2.7007991   0.02989736 
number of iterations: 1528 
    5500    26.163582      203           87          116 9.2745217e-14 1.1003756e-14          0.1 0.0090016037    2.7706977  0.029897325 
number of iterations: 1472 
    5600    26.332634      204           88          116 9.3974296e-14 1.1055468e-14          0.1 0.0090016186    2.8415143    0.0298973 
number of iterations: 1556 
    5700    26.511484      205           89          116 9.5219662e-14 1.1108283e-14          0.1   0.00900164    2.9132614  0.029897265 
number of iterations: 1563 
    5800    26.693892      208           91          117 9.6481533e-14 1.1162205e-14          0.1  0.009001663    2.9859517  0.029897226 
number of iterations: 1519 
    5900    26.890618      210           93          117 9.7760126e-14 1.1217239e-14          0.1 0.0090016774    3.0595976  0.029897202 
number of iterations: 1541 
    6000     27.08037      210           93          117 9.9055663e-14 1.1273391e-14          0.1 0.0090016996     3.134212  0.029897165 
number of iterations: 1542 
    6100    27.377282      211           93          118 1.0036837e-13 1.1330669e-14          0.1 0.0090017221    3.2098082  0.029897128 
number of iterations: 1522 
    6200    27.555466      213           94          119 1.0169847e-13 1.1389078e-14          0.1   0.00900174     3.286399  0.029897098 
number of iterations: 1548 
    6300    27.731678      213           94          119 1.030462e-13 1.1448625e-14          0.1 0.0090017631     3.363998  0.029897059 
number of iterations: 1580 
    6400    27.980071      218           98          120 1.0441179e-13 1.1509317e-14          0.1 0.0090017864    3.4426189   0.02989702 
number of iterations: 1510 
    6500    28.162882      221          100          121 1.0579548e-13 1.1571159e-14          0.1 0.0090018051     3.522275  0.029896989 
number of iterations: 1555 
    6600    28.332603      222          101          121 1.071975e-13 1.163416e-14          0.1  0.009001829    3.6029803  0.029896949 
number of iterations: 1555 
    6700    28.541289      226          103          123 1.086181e-13 1.1698328e-14          0.1 0.0090018471    3.6847491  0.029896919 
number of iterations: 1543 
    6800    28.714207      229          105          124 1.1005753e-13 1.176367e-14          0.1 0.0090018684    3.7675956  0.029896883 
number of iterations: 1563 
    6900    28.909301      231          106          125 1.1151604e-13 1.1830191e-14          0.1 0.0090018891    3.8515344  0.029896849 
number of iterations: 1567 
    7000    29.090434      234          109          125 1.1299387e-13 1.1897901e-14          0.1 0.0090019154    3.9365802  0.029896805 
number of iterations: 1569 
    7100     29.30461      234          109          125 1.1449129e-13 1.1966808e-14          0.1 0.0090019408    4.0227476  0.029896763 
number of iterations: 1606 
    7200    29.491393      236          110          126 1.1600855e-13 1.203692e-14          0.1 0.0090019681    4.1100516  0.029896717 
number of iterations: 1659 
    7300    29.682439      240          113          127 1.1754592e-13 1.2108244e-14          0.1   0.00900199    4.1985075   0.02989668 
number of iterations: 1563 
    7400    29.869199      244          114          130 1.1910366e-13 1.2180792e-14          0.1 0.0090020134    4.2881306  0.029896642 
number of iterations: 1600 
    7500    30.060293      245          115          130 1.2068205e-13 1.2254571e-14          0.1   0.00900204    4.3789364  0.029896597 
number of iterations: 1612 
    7600    30.244082      249          119          130 1.2228135e-13 1.2329591e-14          0.1 0.0090020671    4.4709407  0.029896552 
number of iterations: 1631 
    7700    30.421348      252          122          130 1.2390185e-13 1.2405862e-14          0.1 0.0090020945    4.5641597  0.029896506 
number of iterations: 1652 
    7800    30.600476      254          123          131 1.2554382e-13 1.2483393e-14          0.1 0.0090021259    4.6586101  0.029896454 
number of iterations: 1594 
    7900    30.784401      256          123          133 1.2720755e-13 1.2562195e-14          0.1  0.009002154    4.7543081  0.029896407 
number of iterations: 1640 
    8000    30.978978      262          128          134 1.2889333e-13 1.2642277e-14          0.1 0.0090021861    4.8512701  0.029896354 
number of iterations: 1640 
    8100     31.20997      267          132          135 1.3060145e-13 1.2723652e-14          0.1 0.0090022181    4.9495131    0.0298963 
number of iterations: 1705 
    8200    31.399825      271          136          135 1.3233221e-13 1.2806328e-14          0.1 0.0090022497    5.0490542  0.029896247 
number of iterations: 1635 
    8300    31.586418      275          139          136 1.340859e-13 1.2890316e-14          0.1 0.0090022802    5.1499108  0.029896197 
number of iterations: 1609 
    8400    31.792005      275          139          136 1.3586283e-13 1.2975626e-14          0.1 0.0090023104    5.2521005  0.029896146 
number of iterations: 1763 
    8500    31.999207      281          143          138 1.3766332e-13 1.3062269e-14          0.1 0.0090023441    5.3556411   0.02989609 
number of iterations: 1697 
    8600      32.1955      287          146          141 1.3948766e-13 1.3150258e-14          0.1 0.0090023798    5.4605509   0.02989603 
number of iterations: 1618 
    8700    32.398031      289          147          142 1.4133618e-13 1.3239604e-14          0.1 0.0090024113     5.566848  0.029895978 
number of iterations: 1668 
    8800    32.596828      293          149          144 1.4320919e-13 1.3330318e-14          0.1 0.0090024446    5.6745509  0.029895922 
number of iterations: 1625 
    8900    32.795775      295          150          145 1.4510703e-13 1.3422413e-14          0.1  0.009002477    5.7836785  0.029895868 
number of iterations: 1626 
    9000    33.079799      300          153          147 1.4703001e-13 1.3515899e-14          0.1 0.0090025057    5.8942495   0.02989582 
number of iterations: 1643 
    9100     33.27628      302          155          147 1.4897849e-13 1.3610788e-14          0.1 0.0090025389    6.0062829  0.029895765 
number of iterations: 1703 
    9200    33.467895      306          157          149 1.5095278e-13 1.3707094e-14          0.1 0.0090025769    6.1197987  0.029895702 
number of iterations: 1626 
    9300    33.654189      309          159          150 1.5295323e-13 1.380483e-14          0.1 0.0090026111    6.2348168  0.029895645 
number of iterations: 1657 
    9400    33.833305      310          160          150 1.549802e-13 1.3904008e-14          0.1 0.0090026495    6.3513566   0.02989558 
number of iterations: 1642 
    9500    34.013119      311          160          151 1.5703403e-13 1.4004642e-14          0.1 0.0090026846     6.469439  0.029895522 
number of iterations: 1778 
    9600    34.207872      313          162          151 1.5911507e-13 1.4106746e-14          0.1 0.0090027307    6.5890845  0.029895445 
number of iterations: 1650 
    9700    34.409101      315          162          153 1.612237e-13 1.4210334e-14          0.1 0.0090027669     6.710314  0.029895385 
number of iterations: 1653 
    9800     34.61061      318          163          155 1.6336027e-13 1.4315418e-14          0.1 0.0090028036    6.8331485  0.029895323 
number of iterations: 1718 
    9900    34.803919      321          165          156 1.6552515e-13 1.4422013e-14          0.1 0.0090028469    6.9576095  0.029895251 
number of iterations: 1659 
   10000    35.026055      322          165          157 1.6771872e-13 1.4530132e-14          0.1 0.0090028847    7.0837188  0.029895188 
number of iterations: 1662 
   10100     35.30427      322          165          157 1.6994136e-13 1.4639791e-14          0.1 0.0090029229    7.2114981  0.029895124 
number of iterations: 1708 
   10200    35.491982      325          167          158 1.7219346e-13 1.4751004e-14          0.1 0.0090029679    7.3409694   0.02989505 
number of iterations: 1665 
   10300     35.67813      328          169          159 1.744754e-13 1.4863788e-14          0.1 0.0090030072    7.4721556  0.029894984 
number of iterations: 1671 
   10400    35.860978      330          170          160 1.7678758e-13 1.4978156e-14          0.1  0.009003047    7.6050797  0.029894917 
number of iterations: 1674 
   10500    36.044054      330          170          160 1.791304e-13 1.5094124e-14          0.1 0.0090030874    7.7397647   0.02989485 
number of iterations: 1713 
   10600    36.224221      332          171          161 1.8150427e-13 1.5211709e-14          0.1 0.0090031283     7.876234  0.029894782 
number of iterations: 1696 
   10700    36.407576      337          174          163 1.839096e-13 1.5330925e-14          0.1 0.0090031737    8.0145119  0.029894706 
number of iterations: 1779 
   10800    36.584357      341          177          164 1.8634681e-13 1.5451791e-14          0.1 0.0090032244    8.1546216  0.029894622 
number of iterations: 1677 
   10900    36.758556      347          181          166 1.8881631e-13 1.5574322e-14          0.1  0.009003262    8.2965884  0.029894559 
number of iterations: 1768 
   11000    36.953031      351          183          168 1.9131854e-13 1.5698536e-14          0.1 0.0090033022    8.4404366  0.029894492 
number of iterations: 1717 
   11100    37.144407      354          185          169 1.9385393e-13 1.5824449e-14          0.1 0.0090033495    8.5861914  0.029894413 
number of iterations: 1726 
   11200    37.322721      357          187          170 1.9642292e-13 1.5952077e-14          0.1 0.0090034006    8.7338785  0.029894328 
number of iterations: 1698 
   11300    37.532309      359          188          171 1.9902595e-13 1.6081439e-14          0.1 0.0090034457    8.8835227  0.029894253 
number of iterations: 1740 
   11400    37.727278      364          192          172 2.0166348e-13 1.6212551e-14          0.1 0.0090034943     9.035151  0.029894171 
number of iterations: 1727 
   11500    37.920297      371          197          174 2.0433596e-13 1.6345433e-14          0.1 0.0090035396    9.1887897  0.029894096 
number of iterations: 1689 
   11600    38.126272      373          198          175 2.0704386e-13 1.6480101e-14          0.1 0.0090035853    9.3444649   0.02989402 
number of iterations: 1784 
   11700    38.318082      376          201          175 2.0978765e-13 1.6616574e-14          0.1 0.0090036391    9.5022038   0.02989393 
number of iterations: 1705 
   11800     38.53185      379          203          176 2.1256779e-13 1.6754871e-14          0.1 0.0090036873    9.6620345   0.02989385 
number of iterations: 1791 
   11900    38.717175      384          205          179 2.1538478e-13 1.689501e-14          0.1 0.0090037403    9.8239854  0.029893761 
number of iterations: 1777 
   12000    38.911091      390          209          181 2.182391e-13 1.7037012e-14          0.1 0.0090037926    9.9880838  0.029893674 
number of iterations: 1713 
   12100    39.171875      397          214          183 2.2113124e-13 1.7180895e-14          0.1 0.0090038415    10.154358  0.029893592 
number of iterations: 1726 
   12200    39.361022      399          215          184 2.2406172e-13 1.732668e-14          0.1 0.0090038938    10.322837  0.029893505 
number of iterations: 1722 
   12300    39.542687      401          215          186 2.2703102e-13 1.7474384e-14          0.1 0.0090039454    10.493551  0.029893419 
number of iterations: 1730 
   12400    39.725976      408          220          188 2.3003968e-13 1.7624031e-14          0.1 0.0090039955    10.666528  0.029893336 
number of iterations: 1828 
   12500    39.937105      418          228          190 2.3308821e-13 1.777564e-14          0.1 0.0090040653      10.8418  0.029893219 
number of iterations: 1713 
   12600    40.119069      424          233          191 2.3617714e-13 1.7929232e-14          0.1 0.0090041155    11.019397  0.029893136 
number of iterations: 1750 
   12700    40.306162      428          236          192  2.39307e-13 1.8084829e-14          0.1   0.00900417     11.19935  0.029893045 
number of iterations: 1738 
   12800    40.513792      434          241          193 2.4247834e-13 1.8242451e-14          0.1 0.0090042222    11.381689  0.029892957 
number of iterations: 1735 
   12900    40.690237      442          248          194 2.4569171e-13 1.8402121e-14          0.1 0.0090042717    11.566448  0.029892875 
number of iterations: 1807 
   13000    40.891214      445          249          196 2.4894766e-13 1.8563861e-14          0.1 0.0090043294    11.753659  0.029892779 
number of iterations: 1758 
   13100    41.100721      453          254          199 2.5224676e-13 1.8727692e-14          0.1 0.0090043868    11.943352  0.029892683 
number of iterations: 1758 
   13200    41.298993      453          254          199 2.5558958e-13 1.8893637e-14          0.1 0.0090044449    12.135563  0.029892586 
number of iterations: 1758 
   13300    41.498854      462          262          200 2.589767e-13 1.9061718e-14          0.1 0.0090044974    12.330323  0.029892499 
number of iterations: 1791 
   13400    41.700268      467          266          201 2.624087e-13 1.9231961e-14          0.1 0.0090045614    12.527667  0.029892392 
number of iterations: 1705 
   13500    41.933994      474          270          204 2.6588619e-13 1.9404388e-14          0.1 0.0090046104    12.727629   0.02989231 
number of iterations: 1758 
   13600    42.131309      484          273          211 2.6940976e-13 1.9579022e-14          0.1 0.0090046694    12.930245  0.029892212 
number of iterations: 1708 
   13700    42.322823      491          279          212 2.7298003e-13 1.9755887e-14          0.1 0.0090047205     13.13555  0.029892126 
number of iterations: 1818 
   13800    42.516219      495          281          214 2.7659761e-13 1.9935009e-14          0.1 0.0090047851    13.343578  0.029892019 
number of iterations: 1769 
   13900    42.724373      496          282          214 2.8026313e-13 2.0116411e-14          0.1 0.0090048485    13.554367  0.029891913 
number of iterations: 1772 
   14000    42.908358      500          283          217 2.8397723e-13 2.0300119e-14          0.1 0.0090049128    13.767953  0.029891806 
number of iterations: 1751 
   14100    43.114359      508          290          218 2.8774054e-13 2.0486156e-14          0.1 0.0090049717    13.984374  0.029891707 
number of iterations: 1782 
   14200    43.298604      513          295          218 2.9155373e-13 2.067455e-14          0.1 0.0090050297    14.203666  0.029891611 
number of iterations: 1823 
   14300    43.491832      518          298          220 2.9541745e-13 2.0865326e-14          0.1 0.0090050938    14.425869  0.029891504 
number of iterations: 1771 
   14400    43.686182      525          303          222 2.9933238e-13 2.105851e-14          0.1 0.0090051458     14.65102  0.029891417 
number of iterations: 1807 
   14500    43.875298      531          306          225 3.0329918e-13 2.1254129e-14          0.1 0.0090052169     14.87916  0.029891298 
number of iterations: 1832 
   14600    44.083834      537          310          227 3.0731855e-13 2.145221e-14          0.1 0.0090052842    15.110327  0.029891186 
number of iterations: 1790 
   14700    44.294213      547          316          231 3.1139119e-13 2.1652781e-14          0.1 0.0090053531    15.344563  0.029891071 
number of iterations: 1805 
   14800    44.500629      551          318          233 3.155178e-13 2.185587e-14          0.1 0.0090054284    15.581907  0.029890946 
number of iterations: 1804 
   14900    44.721059      555          319          236 3.196991e-13 2.2061504e-14          0.1  0.009005497    15.822402  0.029890831 
number of iterations: 1804 
   15000    44.936609      559          322          237 3.2393581e-13 2.2269712e-14          0.1 0.0090055671    16.066089  0.029890714 
number of iterations: 1803 
   15100     45.20183      562          324          238 3.2822866e-13 2.2480522e-14          0.1 0.0090056409     16.31301  0.029890591 
number of iterations: 1802 
   15200     45.39789      569          328          241 3.325784e-13 2.2693965e-14          0.1 0.0090057131     16.56321  0.029890471 
number of iterations: 1798 
   15300    45.594193      577          333          244 3.3698579e-13 2.2910068e-14          0.1 0.0090057733     16.81673   0.02989037 
number of iterations: 1847 
   15400     45.78583      581          336          245 3.4145158e-13 2.3128862e-14          0.1 0.0090058461    17.073616  0.029890249 
number of iterations: 1812 
   15500    45.984913      588          341          247 3.4597656e-13 2.3350377e-14          0.1 0.0090059272    17.333912  0.029890114 
number of iterations: 1849 
   15600    46.192034      593          344          249 3.505615e-13 2.3574643e-14          0.1 0.0090060086    17.597663  0.029889978 
number of iterations: 1823 
   15700    46.392209      596          344          252 3.552072e-13 2.3801693e-14          0.1 0.0090060883    17.864914  0.029889845 
number of iterations: 1823 
   15800    46.612078      600          346          254 3.5991446e-13 2.4031556e-14          0.1  0.009006169    18.135713  0.029889711 
number of iterations: 1914 
   15900    46.827344      608          354          254 3.6468411e-13 2.4264265e-14          0.1 0.0090062773    18.410107   0.02988953 
number of iterations: 1836 
   16000    47.037921      616          357          259 3.6951696e-13 2.4499852e-14          0.1 0.0090063606    18.688143  0.029889391 
number of iterations: 1801 
   16100    47.245908      626          364          262 3.7441386e-13 2.4738349e-14          0.1 0.0090064351     18.96987  0.029889267 
number of iterations: 1836 
   16200    47.456929      632          367          265 3.7937566e-13 2.497979e-14          0.1 0.0090065153    19.255338  0.029889133 
number of iterations: 1836 
   16300    47.655241      640          371          269 3.8440321e-13 2.5224209e-14          0.1 0.0090066017    19.544594  0.029888989 
number of iterations: 1845 
   16400    47.845635      648          378          270 3.8949738e-13 2.5471637e-14          0.1 0.0090066942    19.837691  0.029888835 
number of iterations: 1863 
   16500    48.199787      660          387          273 3.9465906e-13 2.5722112e-14          0.1 0.0090067902    20.134678  0.029888675 
number of iterations: 1848 
   16600    48.449499      667          390          277 3.9988915e-13 2.5975665e-14          0.1 0.0090068724    20.435608  0.029888538 
number of iterations: 1852 
   16700    48.654735      672          395          277 4.0518854e-13 2.6232332e-14          0.1  0.009006966    20.740534  0.029888381 
number of iterations: 1823 
   16800    48.867379      679          397          282 4.1055817e-13 2.6492148e-14          0.1 0.0090070539    21.049508  0.029888235 
number of iterations: 1862 
   16900    49.076184      687          402          285 4.1599895e-13 2.6755149e-14          0.1 0.0090071433    21.362584  0.029888086 
number of iterations: 1904 
   17000     49.31984      695          410          285 4.2151183e-13 2.7021373e-14          0.1 0.0090072551    21.679817  0.029887899 
number of iterations: 1880 
   17100    49.531589      703          415          288 4.2709777e-13 2.7290856e-14          0.1 0.0090073478    22.001263  0.029887745 
number of iterations: 1896 
   17200    49.745188      712          419          293 4.3275774e-13 2.7563634e-14          0.1 0.0090074498    22.326976  0.029887575 
number of iterations: 1887 
   17300    49.957889      720          424          296 4.3849272e-13 2.7839746e-14          0.1 0.0090075507    22.657014  0.029887406 
number of iterations: 1868 
   17400    50.153113      728          428          300 4.4430369e-13 2.8119228e-14          0.1 0.0090076445    22.991434   0.02988725 
number of iterations: 1854 
   17500    50.345758      742          437          305 4.5019167e-13 2.8402121e-14          0.1 0.0090077415    23.330294  0.029887088 
number of iterations: 1898 
   17600    50.553264      754          445          309 4.5615768e-13 2.8688462e-14          0.1 0.0090078547    23.673652  0.029886899 
number of iterations: 1920 
   17700    50.749715      764          454          310 4.6220275e-13 2.8978292e-14          0.1 0.0090079685    24.021571   0.02988671 
number of iterations: 1897 
   17800    50.958299      777          464          313 4.6832793e-13 2.9271651e-14          0.1 0.0090080754    24.374107  0.029886531 
number of iterations: 1902 
   17900     51.17457      789          471          318 4.7453428e-13 2.9568579e-14          0.1 0.0090081882    24.731325  0.029886343 
number of iterations: 1826 
   18000    51.387188      797          475          322 4.8082288e-13 2.9869116e-14          0.1 0.0090082812    25.093286  0.029886188 
number of iterations: 1952 
   18100      51.5876      808          483          325 4.8719482e-13 3.0173305e-14          0.1 0.0090084101    25.460053  0.029885973 
number of iterations: 1906 
   18200    51.832716      816          489          327 4.936512e-13 3.0481187e-14          0.1 0.0090085202    25.831691   0.02988579 
number of iterations: 1870 
   18300    52.043731      824          493          331 5.0019314e-13 3.0792806e-14          0.1 0.0090086208    26.208263  0.029885622 
number of iterations: 1921 
   18400    52.246087      840          505          335 5.0682177e-13 3.1108204e-14          0.1 0.0090087376    26.589837  0.029885427 
number of iterations: 1920 
   18500    52.442853      845          507          338 5.1353825e-13 3.1427426e-14          0.1 0.0090088685    26.976476  0.029885209 
number of iterations: 1917 
   18600    52.651037      856          514          342 5.2034373e-13 3.1750515e-14          0.1 0.0090089735    27.368249  0.029885034 
number of iterations: 1923 
   18700    52.870476      866          522          344 5.272394e-13 3.2077516e-14          0.1 0.0090091051    27.765225  0.029884814 
number of iterations: 1941 
   18800    53.082574      881          535          346 5.3422646e-13 3.2408473e-14          0.1 0.0090092454    28.167472  0.029884581 
number of iterations: 1870 
   18900    53.335263      896          545          351 5.413061e-13 3.2743433e-14          0.1 0.0090093591     28.57506  0.029884391 
number of iterations: 1924 
   19000    53.544742      905          549          356 5.4847957e-13 3.308244e-14          0.1 0.0090094854    28.988061   0.02988418 
number of iterations: 1925 
   19100    53.790036      912          554          358 5.557481e-13 3.3425542e-14          0.1 0.0090096108    29.406546  0.029883971 
number of iterations: 1924 
   19200    53.988244      926          564          362 5.6311295e-13 3.3772786e-14          0.1 0.0090097438    29.830588  0.029883749 
number of iterations: 1938 
   19300    54.201872      941          574          367 5.705754e-13 3.4124219e-14          0.1 0.0090098839    30.260261  0.029883516 
number of iterations: 1924 
   19400    54.410641      946          577          369 5.7813674e-13 3.447989e-14          0.1 0.0090100148    30.695639  0.029883297 
number of iterations: 1944 
   19500    54.619573      956          584          372 5.8579829e-13 3.4839849e-14          0.1 0.0090101433      31.1368  0.029883083 
number of iterations: 1948 
   19600    54.836885      970          592          378 5.9356137e-13 3.5204143e-14          0.1 0.0090102874    31.583818  0.029882843 
number of iterations: 1951 
   19700    55.059307      978          600          378 6.0142732e-13 3.5572825e-14          0.1 0.0090104271    32.036772   0.02988261 
number of iterations: 1936 
   19800     55.28192      989          608          381 6.0939752e-13 3.5945945e-14          0.1 0.0090105673     32.49574  0.029882376 
number of iterations: 1924 
   19900    55.499176     1001          615          386 6.1747334e-13 3.6323554e-14          0.1 0.0090107019    32.960802  0.029882152 
number of iterations: 1937 
   20000    55.703193     1007          619          388 6.2565617e-13 3.6705704e-14          0.1 0.0090108356    33.432039  0.029881929 
number of iterations: 1930 
   20100    55.904323     1019          625          394 6.3394745e-13 3.7092448e-14          0.1 0.0090109763    33.909533  0.029881694 
number of iterations: 1944 
   20200      56.1302     1028          633          395 6.423486e-13 3.7483839e-14          0.1 0.0090111032    34.393368  0.029881483 
number of iterations: 1981 
   20300    56.329657     1041          642          399 6.5086109e-13 3.7879931e-14          0.1 0.0090112522    34.883628  0.029881234 
number of iterations: 1951 
   20400    56.556066     1056          652          404 6.5948639e-13 3.828078e-14          0.1 0.0090113848    35.380398  0.029881013 
number of iterations: 1965 
   20500    56.793451     1063          655          408 6.6822598e-13 3.8686439e-14          0.1 0.0090115406    35.883765  0.029880753 
number of iterations: 1930 
   20600    56.993922     1081          669          412 6.770814e-13 3.9096963e-14          0.1 0.0090116787    36.393816  0.029880523 
number of iterations: 1935 
   20700    57.198507     1094          678          416 6.8605417e-13 3.9512412e-14          0.1 0.0090118157    36.910641  0.029880294 
number of iterations: 1958 
   20800    57.425443     1106          688          418 6.9514584e-13 3.993284e-14          0.1 0.0090119671    37.434329  0.029880042 
number of iterations: 1979 
   20900    57.629611     1120          695          425  7.04358e-13 4.0358307e-14          0.1 0.0090121228     37.96497  0.029879782 
number of iterations: 1968 
   21000    57.843309     1135          703          432 7.1369224e-13 4.078887e-14          0.1 0.0090122733    38.502657  0.029879531 
number of iterations: 1964 
   21100    58.045885     1144          710          434 7.2315018e-13 4.1224589e-14          0.1 0.0090124303    39.047485   0.02987927 
number of iterations: 1999 
   21200     58.27107     1151          714          437 7.3273345e-13 4.1665524e-14          0.1 0.0090125966    39.599547  0.029878992 
number of iterations: 1994 
   21300    58.481109     1164          720          444 7.4244372e-13 4.2111736e-14          0.1 0.0090127634     40.15894  0.029878714 
number of iterations: 1977 
   21400    58.696625     1183          732          451 7.5228267e-13 4.2563286e-14          0.1 0.0090129346    40.725762  0.029878429 
number of iterations: 2008 
   21500    58.914231     1199          745          454 7.6225201e-13 4.3020236e-14          0.1 0.0090131122    41.300112  0.029878133 
number of iterations: 1961 
   21600    59.118487     1216          756          460 7.7235346e-13 4.348265e-14          0.1 0.0090132813    41.882089  0.029877851 
number of iterations: 2009 
   21700    59.371039     1227          762          465 7.8258878e-13 4.3950592e-14          0.1 0.0090134632    42.471795  0.029877547 
number of iterations: 1993 
   21800    59.596271     1239          772          467 7.9295973e-13 4.4424126e-14          0.1 0.0090136359    43.069331  0.029877259 
number of iterations: 1965 
   21900    59.819934     1258          786          472 8.0346813e-13 4.4903316e-14          0.1 0.0090137956    43.674803  0.029876993 
number of iterations: 1982 
   22000    60.066485     1272          796          476 8.1411578e-13 4.5388228e-14          0.1 0.0090139788    44.288313  0.029876688 
number of iterations: 1983 
   22100    60.297977     1292          806          486 8.2490453e-13 4.5878929e-14          0.1 0.0090141569     44.90997  0.029876391 
number of iterations: 2000 
   22200    60.509391     1311          820          491 8.3583625e-13 4.6375485e-14          0.1 0.0090143421    45.539884  0.029876082 
number of iterations: 1955 
   22300    60.739857     1324          827          497 8.4691284e-13 4.6877967e-14          0.1 0.0090145141    46.178162  0.029875795 
number of iterations: 2026 
   22400     60.95515     1340          839          501 8.5813622e-13 4.7386442e-14          0.1 0.0090147105    46.824915  0.029875467 
number of iterations: 1998 
   22500    61.172024     1359          850          509 8.6950833e-13 4.7900981e-14          0.1 0.0090149008    47.480257   0.02987515 
number of iterations: 2045 
   22600    61.408252     1377          859          518 8.8103115e-13 4.8421655e-14          0.1 0.0090151095    48.144302  0.029874802 
number of iterations: 2043 
   22700    61.657278     1393          870          523 8.9270666e-13 4.8948534e-14          0.1 0.0090153179    48.817165  0.029874455 
number of iterations: 1999 
   22800    61.956414     1414          886          528 9.045369e-13 4.9481691e-14          0.1 0.0090155157    49.498963  0.029874125 
number of iterations: 2007 
   22900    62.185953     1434          902          532 9.1652391e-13  5.00212e-14          0.1 0.0090157232    50.189815  0.029873779 
number of iterations: 1988 
   23000    62.390493     1451          916          535 9.2866978e-13 5.0567135e-14          0.1 0.0090159101    50.889842  0.029873467 
number of iterations: 2022 
   23100    62.602994     1466          928          538 9.409766e-13 5.111957e-14          0.1 0.0090160909    51.599163  0.029873166 
number of iterations: 2016 
   23200    62.811339     1491          942          549 9.5344652e-13 5.1678582e-14          0.1 0.0090162973    52.317903  0.029872822 
number of iterations: 2044 
   23300    63.024167     1513          958          555 9.6608168e-13 5.2244248e-14          0.1 0.0090165245    53.046187  0.029872443 
number of iterations: 2020 
   23400    63.271167     1536          972          564 9.7888429e-13 5.2816645e-14          0.1  0.009016727    53.784144  0.029872105 
number of iterations: 1991 
   23500    63.485299     1558          985          573 9.9185655e-13 5.3395853e-14          0.1 0.0090169265    54.531901  0.029871772 
number of iterations: 2066 
   23600    63.701849     1581          999          582 1.0050007e-12 5.3981951e-14          0.1 0.0090171665    55.289586  0.029871372 
number of iterations: 2034 
   23700    63.918059     1607         1016          591 1.0183191e-12 5.4575019e-14          0.1 0.0090173859    56.057333  0.029871007 
number of iterations: 2041 
   23800    64.158426     1625         1031          594 1.0318139e-12 5.5175139e-14          0.1 0.0090175961    56.835275  0.029870656 
number of iterations: 2074 
   23900    64.393687     1647         1047          600 1.0454876e-12 5.5782395e-14          0.1 0.0090178399    57.623548  0.029870249 
number of iterations: 2068 
   24000    64.616639     1660         1055          605 1.0593425e-12 5.6396869e-14          0.1 0.0090180739    58.422288  0.029869859 
number of iterations: 2047 
   24100    64.829242     1679         1069          610 1.073381e-12 5.7018644e-14          0.1 0.0090183053    59.231634  0.029869473 
number of iterations: 2037 
   24200    65.065921     1697         1083          614 1.0876055e-12 5.7647808e-14          0.1 0.0090185401    60.051728  0.029869082 
number of iterations: 2040 
   24300    65.303123     1712         1092          620 1.1020186e-12 5.8284446e-14          0.1 0.0090187737    60.882713  0.029868692 
number of iterations: 2098 
   24400    65.541681     1734         1106          628 1.1166226e-12 5.8928645e-14          0.1 0.0090190181    61.724732  0.029868285 
number of iterations: 2070 
   24500    65.762602     1757         1122          635 1.1314202e-12 5.9580495e-14          0.1  0.009019266    62.577932  0.029867872 
number of iterations: 2110 
   24600    65.978487     1776         1136          640 1.1464139e-12 6.0240084e-14          0.1 0.0090195407    63.442461  0.029867413 
number of iterations: 2083 
   24700    66.195919     1797         1148          649 1.1616062e-12 6.0907503e-14          0.1 0.0090197939     64.31847  0.029866991 
number of iterations: 2143 
   24800    66.423648     1823         1166          657 1.1769999e-12 6.1582845e-14          0.1 0.0090200628     65.20611  0.029866543 
number of iterations: 2060 
   24900    66.664054     1844         1182          662 1.1925976e-12  6.22662e-14          0.1 0.0090203056    66.105538  0.029866138 
number of iterations: 2094 
   25000    66.913694     1872         1207          665 1.208402e-12 6.2957665e-14          0.1 0.0090205848    67.016911  0.029865673 
number of iterations: 2101 
   25100    67.144496     1901         1223          678 1.2244158e-12 6.3657333e-14          0.1 0.0090208551    67.940385  0.029865222 
number of iterations: 2054 
   25200    67.371652     1926         1240          686 1.2406418e-12 6.4365302e-14          0.1 0.0090211177    68.876121  0.029864784 
number of iterations: 2072 
   25300    67.615789     1950         1254          696 1.2570829e-12 6.5081666e-14          0.1 0.0090214001    69.824282  0.029864313 
number of iterations: 2085 
   25400    67.842749     1968         1267          701 1.2737418e-12 6.5806526e-14          0.1 0.0090216904    70.785033  0.029863829 
number of iterations: 2104 
   25500    68.078045     1983         1278          705 1.2906215e-12 6.653998e-14          0.1 0.0090219871    71.758542  0.029863335 
number of iterations: 2112 
   25600    68.300203     2009         1297          712 1.3077249e-12 6.7282129e-14          0.1 0.0090222801    72.744979  0.029862846 
number of iterations: 2102 
   25700    68.534438     2023         1305          718 1.325055e-12 6.8033075e-14          0.1 0.0090225745    73.744515  0.029862355 
number of iterations: 2132 
   25800    68.755862     2063         1333          730 1.3426147e-12 6.8792921e-14          0.1  0.009022871    74.757323  0.029861861 
number of iterations: 2092 
   25900    68.983559     2093         1352          741 1.3604071e-12 6.9561773e-14          0.1 0.0090231643    75.783582  0.029861372 
number of iterations: 2114 
   26000    69.217954     2113         1365          748 1.3784353e-12 7.0339733e-14          0.1 0.0090234622    76.823467  0.029860875 
number of iterations: 2124 
   26100    69.470579     2131         1376          755 1.3967024e-12 7.112691e-14          0.1 0.0090237789    77.877161  0.029860347 
number of iterations: 2140 
   26200    69.744145     2159         1387          772 1.4152115e-12 7.1923412e-14          0.1 0.0090240791    78.944848  0.029859846 
number of iterations: 2112 
   26300    69.983954     2188         1409          779 1.433966e-12 7.2729347e-14          0.1 0.0090243548    80.026715  0.029859387 
number of iterations: 2124 
   26400    70.217247     2208         1425          783 1.4529689e-12 7.3544827e-14          0.1 0.0090246859    81.122949  0.029858835 
number of iterations: 2117 
   26500    70.441701     2236         1444          792 1.4722237e-12 7.4369963e-14          0.1 0.0090249943    82.233739   0.02985832 
number of iterations: 2120 
   26600    70.672987     2262         1460          802 1.4917337e-12 7.520487e-14          0.1 0.0090253198     83.35928  0.029857778 
number of iterations: 2132 
   26700    70.895841     2288         1476          812 1.5115022e-12 7.604966e-14          0.1 0.0090256618    84.499765  0.029857208 
number of iterations: 2119 
   26800    71.142672     2315         1493          822 1.5315327e-12 7.6904449e-14          0.1 0.0090259996    85.655393  0.029856644 
number of iterations: 2118 
   26900    71.382383     2344         1514          830 1.5518286e-12 7.7769356e-14          0.1 0.0090263253    86.826366  0.029856101 
number of iterations: 2154 
   27000    71.642619     2372         1531          841 1.5723935e-12 7.8644499e-14          0.1  0.009026651     88.01289  0.029855558 
number of iterations: 2155 
   27100    71.921628     2399         1548          851 1.5932309e-12 7.9529998e-14          0.1 0.0090270277    89.215167   0.02985493 
number of iterations: 2148 
   27200    72.179223     2442         1578          864 1.6143444e-12 8.0425975e-14          0.1  0.009027412    90.433411  0.029854289 
number of iterations: 2144 
   27300    72.407182     2482         1607          875 1.6357378e-12 8.1332552e-14          0.1 0.0090277583    91.667831  0.029853712 
number of iterations: 2154 
   27400    72.634463     2505         1621          884 1.6574146e-12 8.2249854e-14          0.1 0.0090281001    92.918643  0.029853142 
number of iterations: 2140 
   27500    72.871704     2537         1646          891 1.6793787e-12 8.3178007e-14          0.1 0.0090284411    94.186065  0.029852574 
number of iterations: 2157 
   27600    73.148904     2564         1671          893 1.7016339e-12 8.4117138e-14          0.1 0.0090288046    95.470316  0.029851967 
number of iterations: 2190 
   27700    73.421899     2588         1689          899 1.7241839e-12 8.5067377e-14          0.1 0.0090292023    96.771619  0.029851304 
number of iterations: 2183 
   27800    73.665408     2622         1715          907 1.7470328e-12 8.6028854e-14          0.1 0.0090295948    98.090201   0.02985065 
number of iterations: 2164 
   27900     73.93036     2653         1739          914 1.7701845e-12  8.70017e-14          0.1 0.0090299573    99.426292  0.029850046 
number of iterations: 2154 
   28000    74.161404     2678         1754          924 1.7936431e-12 8.798605e-14          0.1  0.009030338    100.78013  0.029849411 
number of iterations: 2142 
   28100    74.408805     2723         1789          934 1.8174124e-12 8.8982038e-14          0.1 0.0090307338    102.15194  0.029848751 
number of iterations: 2174 
   28200    74.637688     2763         1816          947 1.8414968e-12 8.9989801e-14          0.1 0.0090311183    103.54197   0.02984811 
number of iterations: 2180 
   28300    74.871193     2800         1839          961 1.8659003e-12 9.1009477e-14          0.1 0.0090315459    104.95045  0.029847397 
number of iterations: 2172 
   28400    75.152578     2835         1862          973 1.8906272e-12 9.2041205e-14          0.1 0.0090319124    106.37764  0.029846786 
number of iterations: 2169 
   28500    75.403102     2881         1899          982 1.9156818e-12 9.3085127e-14          0.1  0.009032305    107.82377  0.029846131 
number of iterations: 2201 
   28600    75.665894     2919         1923          996 1.9410684e-12 9.4141387e-14          0.1 0.0090327251    109.28911  0.029845431 
number of iterations: 2183 
   28700    75.943917     2954         1946         1008 1.9667914e-12 9.5210131e-14          0.1  0.009033159    110.77391  0.029844707 
number of iterations: 2177 
   28800    76.192758     2996         1973         1023 1.9928553e-12 9.6291502e-14          0.1 0.0090335702    112.27842  0.029844022 
number of iterations: 2199 
   28900    76.436158     3024         1986         1038 2.0192646e-12 9.738565e-14          0.1 0.0090340233    113.80291  0.029843266 
number of iterations: 2201 
   29000    76.681178     3069         2024         1045 2.0460239e-12 9.8492727e-14          0.1  0.009034467    115.34764  0.029842526 
number of iterations: 2215 
   29100    76.928726     3106         2051         1055 2.0731378e-12 9.9612884e-14          0.1 0.0090349272    116.91289  0.029841759 
number of iterations: 2214 
   29200    77.191456     3150         2080         1070 2.100611e-12 1.0074627e-13          0.1 0.0090353872    118.49891  0.029840992 
number of iterations: 2202 
   29300    77.443396     3193         2107         1086 2.1284482e-12 1.0189305e-13          0.1 0.0090358755    120.10599  0.029840178 
number of iterations: 2217 
   29400    77.692398     3238         2136         1102 2.1566544e-12 1.0305338e-13          0.1 0.0090363568    121.73442  0.029839376 
number of iterations: 2179 
   29500    77.945441     3290         2174         1116 2.1852343e-12 1.0422741e-13          0.1 0.0090368174    123.38446  0.029838608 
number of iterations: 2198 
   29600    78.291169     3334         2202         1132 2.214193e-12 1.054153e-13          0.1  0.009037318    125.05641  0.029837773 
number of iterations: 2201 
   29700    78.546771     3362         2226         1136 2.2435354e-12 1.0661723e-13          0.1 0.0090377645    126.75056  0.029837029 
number of iterations: 2259 
   29800    78.795164     3415         2265         1150 2.2732666e-12 1.0783334e-13          0.1 0.0090382978     128.4672   0.02983614 
number of iterations: 2223 
   29900    79.031322     3452         2291         1161 2.3033919e-12 1.0906382e-13          0.1 0.0090387844    130.20665  0.029835328 
number of iterations: 2210 
   30000    79.282168     3490         2319         1171 2.3339163e-12 1.1030883e-13          0.1 0.0090392621    131.96918  0.029834532 
number of iterations: 2198 
   30100    79.521619     3528         2343         1185 2.3648453e-12 1.1156853e-13          0.1 0.0090397835    133.75512  0.029833663 
number of iterations: 2262 
   30200    79.790613     3568         2371         1197 2.3961841e-12 1.1284311e-13          0.1 0.0090403336    135.56478  0.029832746 
number of iterations: 2196 
   30300     80.04862     3611         2400         1211 2.4279382e-12 1.1413273e-13          0.1 0.0090408242    137.39845  0.029831928 
number of iterations: 2212 
   30400    80.324226     3656         2430         1226 2.4601132e-12 1.1543758e-13          0.1 0.0090413566    139.25648   0.02983104 
number of iterations: 2261 
   30500    80.574576     3701         2463         1238 2.4927144e-12 1.1675783e-13          0.1 0.0090419271    141.13918  0.029830089 
number of iterations: 2259 
   30600    80.822251     3748         2493         1255 2.5257478e-12 1.1809367e-13          0.1 0.0090424983    143.04687  0.029829137 
number of iterations: 2260 
   30700    81.097032     3796         2530         1266 2.5592188e-12 1.1944528e-13          0.1 0.0090430566     144.9799  0.029828206 
number of iterations: 2235 
   30800    81.346956     3847         2560         1287 2.5931334e-12 1.2081284e-13          0.1  0.009043625    146.93859  0.029827258 
number of iterations: 2262 
   30900    81.599302     3893         2587         1306 2.6274975e-12 1.2219654e-13          0.1 0.0090442025    148.92329  0.029826295 
number of iterations: 2240 
   31000    81.936242     3940         2621         1319 2.6623169e-12 1.2359657e-13          0.1 0.0090447611    150.93434  0.029825364 
number of iterations: 2273 
   31100    82.172151     3988         2657         1331 2.6975977e-12 1.2501312e-13          0.1 0.0090453489    152.97208  0.029824384 
number of iterations: 2283 
   31200    82.421948     4051         2703         1348 2.7333461e-12 1.2644639e-13          0.1 0.0090459712    155.03689  0.029823347 
number of iterations: 2262 
   31300    82.671179     4102         2733         1369 2.7695681e-12 1.2789658e-13          0.1 0.0090465616    157.12912  0.029822362 
number of iterations: 2260 
   31400    82.926033     4153         2763         1390 2.8062702e-12 1.2936387e-13          0.1 0.0090471847    159.24912  0.029821323 
number of iterations: 2280 
   31500    83.258034     4212         2806         1406 2.8434587e-12 1.3084848e-13          0.1 0.0090478364    161.39727  0.029820237 
number of iterations: 2224 
   31600    83.520721     4272         2844         1428  2.88114e-12 1.323506e-13          0.1 0.0090483951    163.57394  0.029819305 
number of iterations: 2258 
   31700    83.790075     4324         2884         1440 2.9193206e-12 1.3387044e-13          0.1 0.0090489933    165.77951  0.029818308 
number of iterations: 2266 
   31800    84.037177     4378         2926         1452 2.9580071e-12 1.3540822e-13          0.1  0.009049626    168.01436  0.029817253 
number of iterations: 2301 
   31900    84.312405     4436         2968         1468 2.9972063e-12 1.3696414e-13          0.1 0.0090502906    170.27889  0.029816145 
number of iterations: 2293 
   32000    84.580445     4489         3009         1480 3.036925e-12 1.3853841e-13          0.1 0.0090508907    172.57349  0.029815145 
number of iterations: 2265 
   32100    84.841343     4532         3040         1492  3.07717e-12 1.4013126e-13          0.1  0.009051551    174.89856  0.029814044 
number of iterations: 2281 
   32200    85.158652     4590         3076         1514 3.1179484e-12 1.4174289e-13          0.1 0.0090522253     177.2545   0.02981292 
number of iterations: 2303 
   32300    85.438145     4638         3112         1526 3.1580228e-12 1.4337354e-13          0.1 0.0090529172    179.64077  0.029811766 
number of iterations: 2293 
   32400    85.748254     4690         3151         1539 3.1998725e-12 1.4502342e-13          0.1 0.0090536176    182.05873  0.029810599 
number of iterations: 2319 
   32500    86.028407     4748         3192         1556 3.2422769e-12 1.4669276e-13          0.1 0.0090543267    184.50879  0.029809417 
number of iterations: 2331 
   32600     86.29717     4806         3229         1577 3.2852431e-12 1.4838179e-13          0.1 0.0090550878    186.99138  0.029808148 
number of iterations: 2266 
   32700    86.565196     4876         3284         1592 3.3287788e-12 1.5009073e-13          0.1 0.0090557672    189.50693  0.029807015 
number of iterations: 2331 
   32800    86.866579     4927         3316         1611 3.3728913e-12 1.5181984e-13          0.1 0.0090565535     192.0559  0.029805704 
number of iterations: 2310 
   32900    87.128921     4983         3357         1626 3.4175884e-12 1.5356934e-13          0.1  0.009057293     194.6387  0.029804471 
number of iterations: 2291 
   33000     87.38361     5037         3394         1643 3.4628778e-12 1.5533947e-13          0.1 0.0090580599    197.25579  0.029803193 
number of iterations: 2325 
   33100    87.671157     5097         3438         1659 3.5087674e-12 1.5699857e-13          0.1 0.0090588214    199.90767  0.029801923 
number of iterations: 2327 
   33200     87.95597     5156         3479         1677 3.5552651e-12 1.5880919e-13          0.1 0.0090595788    202.59476  0.029800661 
number of iterations: 2297 
   33300    88.299011     5216         3525         1691 3.6013397e-12 1.6064115e-13          0.1 0.0090602794    205.31673  0.029799493 
number of iterations: 2312 
   33400    88.568902     5284         3575         1709 3.6490641e-12 1.6249471e-13          0.1  0.009061093    208.07485  0.029798136 
number of iterations: 2315 
   33500    88.847891     5361         3625         1736 3.697421e-12 1.6437013e-13          0.1 0.0090618539    210.86958  0.029796868 
number of iterations: 2354 
   33600    89.119359     5422         3676         1746 3.7449555e-12 1.6626767e-13          0.1 0.0090626425    213.70032  0.029795553 
number of iterations: 2326 
   33700    89.410893     5488         3721         1767 3.794583e-12 1.6818758e-13          0.1 0.0090634171    216.56864  0.029794261 
number of iterations: 2338 
   33800     89.70265     5564         3775         1789 3.8448682e-12 1.7013013e-13          0.1 0.0090642043    219.47505  0.029792949 
number of iterations: 2348 
   33900    89.997031     5645         3822         1823 3.8958198e-12 1.7209559e-13          0.1 0.0090651194    222.42005  0.029791423 
number of iterations: 2361 
   34000    90.266772     5722         3871         1851 3.9474465e-12 1.7408422e-13          0.1 0.0090659612    225.40416   0.02979002 
number of iterations: 2351 
   34100     90.52729     5816         3936         1880 3.9997573e-12 1.760963e-13          0.1 0.0090668211    228.42789  0.029788587 
number of iterations: 2376 
   34200    90.786623     5884         3980         1904 4.0527614e-12 1.781321e-13          0.1 0.0090677536    231.49177  0.029787032 
number of iterations: 2334 
   34300    91.083076     5963         4036         1927 4.1064678e-12 1.8019191e-13          0.1 0.0090686459    234.59635  0.029785545 
number of iterations: 2341 
   34400    91.360861     6050         4105         1945 4.1608859e-12  1.82276e-13          0.1 0.0090695117    237.74215  0.029784101 
number of iterations: 2335 
   34500    91.672728     6120         4154         1966 4.2160252e-12 1.8438466e-13          0.1 0.0090703689    240.92971  0.029782672 
number of iterations: 2358 
   34600    92.002316     6199         4214         1985 4.2718951e-12 1.8651818e-13          0.1 0.0090712171    244.15959  0.029781258 
number of iterations: 2367 
   34700    92.288155     6286         4276         2010 4.327033e-12 1.8867686e-13          0.1 0.0090721862    247.43124  0.029779642 
number of iterations: 2383 
   34800     92.57258     6372         4336         2036 4.3843739e-12 1.9086099e-13          0.1 0.0090731588    250.74632  0.029778021 
number of iterations: 2333 
   34900    92.871379     6452         4387         2065 4.4412765e-12 1.9307086e-13          0.1 0.0090740554    254.10452  0.029776526 
number of iterations: 2364 
   35000    93.187573     6523         4442         2081 4.5001314e-12 1.9530679e-13          0.1 0.0090749572    257.50729  0.029775023 
Loop time of 93.1876 on 32 procs for 35000 steps with 6523 atoms

Performance: 324506653.040 tau/day, 375.586 timesteps/s
92.1% CPU use with 32 MPI tasks x no OpenMP threads

MPI task timing breakdown:
Section |  min time  |  avg time  |  max time  |%varavg| %total
---------------------------------------------------------------
Pair    | 0.0034165  | 0.091009   | 0.19392    |  18.0 |  0.10
Neigh   | 0.0032537  | 0.029209   | 0.056965   |   9.7 |  0.03
Comm    | 0.082599   | 0.20365    | 0.26896    |   9.6 |  0.22
Output  | 22.739     | 22.739     | 22.747     |   0.0 | 24.40
Modify  | 69.643     | 69.711     | 69.771     |   0.4 | 74.81
Other   |            | 0.4136     |            |       |  0.44

Nlocal:    203.844 ave 387 max 9 min
Histogram: 1 2 6 5 4 3 1 2 2 6
Nghost:    120.469 ave 306 max 31 min
Histogram: 6 4 6 6 2 3 4 0 0 1
Neighs:    801.969 ave 1601 max 34 min
Histogram: 1 5 6 4 2 3 2 2 0 7

Total # of neighbors = 25663
Ave neighs/atom = 3.93423
Neighbor list builds = 669
Dangerous builds = 0
Total wall time: 0:01:33
