 NUFEB Simulation

     50 atoms 
     2 atom types 
     4 nutrients 

  0.0e-4   1.00e-04  xlo xhi 
  0.0e-4   1.00e-04  ylo yhi 
  0.0e-4   5.00e-05  zlo zhi 

 Atoms 

     1 1 1.90e-06  370 9.36e-06 1.66e-05 4.55e-05 1.90e-06 
     2 1 1.58e-06  370 5.67e-05 1.20e-05 2.35e-05 1.58e-06 
     3 1 1.39e-06  370 9.35e-05 5.86e-05 4.00e-05 1.39e-06 
     4 1 1.67e-06  370 7.27e-05 4.56e-05 2.72e-05 1.67e-06 
     5 1 1.55e-06  370 8.56e-05 6.89e-05 3.85e-05 1.55e-06 
     6 1 1.46e-06  370 7.52e-05 1.22e-05 1.99e-05 1.46e-06 
     7 1 1.55e-06  370 2.70e-05 9.17e-05 4.22e-05 1.55e-06 
     8 1 1.59e-06  370 3.84e-05 7.67e-05 4.59e-05 1.59e-06 
     9 1 1.61e-06  370 2.58e-05 1.64e-05 1.34e-05 1.61e-06 
     10 1 1.72e-06  370 1.99e-05 4.68e-05 1.97e-05 1.72e-06 
     11 1 1.52e-06  370 7.18e-05 5.55e-05 1.68e-05 1.52e-06 
     12 1 1.89e-06  370 7.82e-05 9.43e-05 3.89e-05 1.89e-06 
     13 1 1.44e-06  370 4.53e-05 2.81e-05 2.04e-05 1.44e-06 
     14 1 1.75e-06  370 6.49e-05 2.77e-05 1.74e-05 1.75e-06 
     15 1 1.51e-06  370 7.66e-05 6.90e-05 4.78e-05 1.51e-06 
     16 1 1.54e-06  370 6.18e-05 8.84e-05 2.14e-06 1.54e-06 
     17 1 1.52e-06  370 8.94e-05 4.70e-05 2.09e-05 1.52e-06 
     18 1 1.55e-06  370 5.47e-05 6.03e-06 4.51e-05 1.55e-06 
     19 1 1.75e-06  370 2.67e-06 2.12e-05 8.83e-06 1.75e-06 
     20 1 1.65e-06  370 4.57e-05 6.41e-05 3.77e-05 1.65e-06 
     21 1 1.73e-06  370 5.96e-05 2.59e-05 4.41e-05 1.73e-06 
     22 1 1.80e-06  370 9.48e-05 3.64e-05 1.85e-05 1.80e-06 
     23 1 1.49e-06  370 2.00e-05 8.13e-05 8.05e-06 1.49e-06 
     24 1 1.47e-06  370 7.01e-05 7.25e-05 4.38e-05 1.47e-06 
     25 1 1.86e-06  370 6.33e-05 8.25e-05 2.40e-05 1.86e-06 
     26 1 1.83e-06  370 8.39e-05 3.00e-05 1.96e-05 1.83e-06 
     27 1 1.47e-06  370 2.20e-05 8.42e-05 4.59e-05 1.47e-06 
     28 1 1.52e-06  370 9.04e-05 3.99e-05 2.78e-05 1.52e-06 
     29 1 1.81e-06  370 9.54e-05 1.02e-05 3.84e-05 1.81e-06 
     30 1 1.43e-06  370 8.45e-05 7.39e-05 1.93e-06 1.43e-06 
     31 1 1.38e-06  370 9.59e-05 8.68e-05 3.68e-05 1.38e-06 
     32 1 1.41e-06  370 2.07e-05 2.40e-05 3.71e-05 1.41e-06 
     33 1 1.58e-06  370 8.75e-05 4.04e-05 1.45e-05 1.58e-06 
     34 1 1.73e-06  370 3.19e-05 6.70e-05 2.56e-05 1.73e-06 
     35 1 1.47e-06  370 4.54e-05 8.57e-05 4.27e-05 1.47e-06 
     36 1 1.83e-06  370 6.65e-05 7.19e-05 1.33e-05 1.83e-06 
     37 1 1.78e-06  370 7.62e-05 6.44e-05 4.32e-05 1.78e-06 
     38 1 1.55e-06  370 1.60e-05 8.76e-05 3.13e-05 1.55e-06 
     39 1 1.47e-06  370 2.89e-05 1.48e-05 2.60e-05 1.47e-06 
     40 1 1.64e-06  370 2.81e-05 3.92e-05 1.00e-05 1.64e-06 
     41 1 1.65e-06  370 2.46e-05 4.88e-05 5.27e-06 1.65e-06 
     42 1 1.52e-06  370 2.99e-05 5.78e-05 1.73e-05 1.52e-06 
     43 1 1.64e-06  370 2.88e-05 5.25e-05 2.54e-05 1.64e-06 
     44 1 1.61e-06  370 1.33e-05 7.38e-05 3.52e-05 1.61e-06 
     45 1 1.62e-06  370 6.49e-06 5.44e-05 2.34e-05 1.62e-06 
     46 1 1.48e-06  370 5.25e-05 6.87e-05 4.65e-05 1.48e-06 
     47 1 1.53e-06  370 4.09e-05 2.73e-05 3.43e-05 1.53e-06 
     48 1 1.56e-06  370 5.40e-05 2.06e-05 1.16e-05 1.56e-06 
     49 1 1.57e-06  370 6.49e-05 9.78e-05 3.87e-05 1.57e-06 
     50 1 1.65e-06  370 5.01e-06 2.98e-05 3.03e-05 1.65e-06 

 Nutrients 

     1 sub g nn nn nn 1.00e-01 1.00e-01 
     2 o2 l nn nn nd 9.00e-03 9.00e-03 
     3 suc l nn nn nn 3.42e-20 3.42e-20 
     4 co2 l nn nn nd 2.99e-02 2.99e-02 

 Type Name 

     1 cyano  
     2 ecw  

 Diffusion Coeffs 

     sub 0 
     o2 2.3e-09 
     suc 5.2e-10 
     co2 1.9e-09 

 Growth Rate 

     cyano 2.047e-05 
     ecw 6.71e-05 

 Ks 

     cyano 0.00035 0.0002 0.01 0.000138 
     ecw 0 0.001 3.6 0.05 

 Yield 

     cyano 0.55 
     ecw 0.43 

 Maintenance 

     cyano 0 
     ecw 9.5e-07 

 Decay 

     cyano 0 
     ecw 0 



