 NUFEB Simulation

     100 atoms 
     2 atom types 
     4 nutrients 

  0.0e-4   1.00e-04  xlo xhi 
  0.0e-4   1.00e-04  ylo yhi 
  0.0e-4   1.00e-05  zlo zhi 

 Atoms 

     1 1 1.53e-06  370 4.86e-05 6.98e-05 6.05e-06 1.53e-06 
     2 1 1.90e-06  370 1.75e-05 6.59e-05 7.77e-06 1.90e-06 
     3 1 1.48e-06  370 7.24e-05 6.18e-05 3.47e-06 1.48e-06 
     4 1 1.85e-06  370 2.49e-05 8.85e-05 5.23e-06 1.85e-06 
     5 1 1.53e-06  370 5.23e-05 6.92e-05 7.87e-06 1.53e-06 
     6 1 1.77e-06  370 2.72e-05 6.30e-05 7.94e-06 1.77e-06 
     7 1 1.53e-06  370 6.28e-05 9.26e-05 5.91e-06 1.53e-06 
     8 1 1.80e-06  370 7.00e-05 8.28e-05 2.50e-06 1.80e-06 
     9 1 1.77e-06  370 8.00e-06 7.01e-05 5.94e-06 1.77e-06 
     10 1 1.79e-06  370 4.26e-05 1.14e-05 3.89e-06 1.79e-06 
     11 1 1.58e-06  370 6.08e-06 7.37e-05 2.54e-06 1.58e-06 
     12 1 1.39e-06  370 1.07e-05 2.21e-05 6.81e-06 1.39e-06 
     13 1 1.63e-06  370 8.88e-05 9.05e-05 3.80e-06 1.63e-06 
     14 1 1.76e-06  370 6.71e-05 5.91e-05 5.49e-06 1.76e-06 
     15 1 1.78e-06  370 5.07e-05 9.60e-05 4.09e-06 1.78e-06 
     16 1 1.93e-06  370 2.76e-05 1.18e-05 2.70e-06 1.93e-06 
     17 1 1.71e-06  370 5.27e-05 8.62e-05 7.49e-06 1.71e-06 
     18 1 1.85e-06  370 4.02e-05 9.50e-05 4.30e-06 1.85e-06 
     19 1 1.59e-06  370 6.41e-05 5.17e-06 1.71e-06 1.59e-06 
     20 1 1.66e-06  370 3.14e-05 3.37e-06 6.63e-06 1.66e-06 
     21 1 1.70e-06  370 9.16e-05 6.02e-05 5.32e-06 1.70e-06 
     22 1 1.90e-06  370 6.32e-05 6.70e-05 8.00e-06 1.90e-06 
     23 1 1.64e-06  370 3.53e-05 5.23e-05 8.09e-06 1.64e-06 
     24 1 1.71e-06  370 3.32e-05 1.81e-05 7.42e-06 1.71e-06 
     25 1 1.70e-06  370 3.45e-06 9.56e-05 6.15e-06 1.70e-06 
     26 1 1.78e-06  370 3.23e-05 6.72e-05 3.43e-06 1.78e-06 
     27 1 1.75e-06  370 2.56e-05 2.62e-05 5.02e-06 1.75e-06 
     28 1 1.61e-06  370 6.54e-05 4.75e-05 1.97e-06 1.61e-06 
     29 1 1.61e-06  370 1.13e-05 5.91e-05 5.64e-06 1.61e-06 
     30 1 1.87e-06  370 9.66e-05 5.24e-05 3.68e-06 1.87e-06 
     31 1 1.74e-06  370 6.54e-05 3.38e-06 2.62e-06 1.74e-06 
     32 1 1.86e-06  370 9.53e-06 5.56e-05 7.51e-06 1.86e-06 
     33 1 1.75e-06  370 7.32e-05 3.22e-05 5.07e-06 1.75e-06 
     34 1 1.56e-06  370 7.14e-05 6.45e-05 1.79e-06 1.56e-06 
     35 1 1.53e-06  370 4.64e-05 6.07e-05 8.29e-06 1.53e-06 
     36 1 1.85e-06  370 2.81e-05 4.36e-05 2.40e-06 1.85e-06 
     37 1 1.79e-06  370 2.33e-05 2.63e-05 7.20e-06 1.79e-06 
     38 1 1.93e-06  370 6.77e-05 6.26e-05 5.78e-06 1.93e-06 
     39 1 1.53e-06  370 8.95e-05 4.33e-05 1.79e-06 1.53e-06 
     40 1 1.49e-06  370 6.82e-05 3.65e-05 4.92e-06 1.49e-06 
     41 1 1.62e-06  370 4.56e-05 6.28e-05 6.92e-06 1.62e-06 
     42 1 1.71e-06  370 9.78e-05 4.80e-05 7.72e-06 1.71e-06 
     43 1 1.92e-06  370 7.53e-05 8.98e-05 5.57e-06 1.92e-06 
     44 1 1.89e-06  370 5.36e-05 8.69e-05 3.82e-06 1.89e-06 
     45 1 1.87e-06  370 4.03e-05 1.15e-05 2.30e-06 1.87e-06 
     46 1 1.56e-06  370 7.49e-05 9.31e-05 4.34e-06 1.56e-06 
     47 1 1.77e-06  370 2.57e-06 8.35e-06 4.82e-06 1.77e-06 
     48 1 1.42e-06  370 1.59e-05 4.23e-05 2.83e-06 1.42e-06 
     49 1 1.44e-06  370 2.52e-06 8.35e-06 1.48e-06 1.44e-06 
     50 1 1.69e-06  370 8.10e-05 4.97e-05 3.10e-06 1.69e-06 
     51 2 1.21e-06  230 2.91e-05 6.54e-06 7.53e-06 1.21e-06 
     52 2 8.99e-07  230 6.29e-05 3.99e-05 9.03e-06 8.99e-07 
     53 2 8.95e-07  230 3.19e-05 4.73e-05 1.48e-06 8.95e-07 
     54 2 1.03e-06  230 4.02e-05 5.05e-05 3.46e-06 1.03e-06 
     55 2 1.06e-06  230 1.72e-05 4.10e-05 7.86e-06 1.06e-06 
     56 2 1.17e-06  230 9.63e-05 9.45e-05 2.88e-06 1.17e-06 
     57 2 1.04e-06  230 2.90e-05 7.67e-05 6.04e-06 1.04e-06 
     58 2 1.20e-06  230 8.09e-05 4.47e-05 8.68e-06 1.20e-06 
     59 2 9.00e-07  230 1.38e-05 6.00e-05 5.48e-06 9.00e-07 
     60 2 1.15e-06  230 5.63e-05 6.83e-05 3.82e-06 1.15e-06 
     61 2 1.23e-06  230 6.00e-05 5.75e-05 1.43e-06 1.23e-06 
     62 2 1.23e-06  230 2.76e-05 1.41e-05 7.48e-06 1.23e-06 
     63 2 9.51e-07  230 7.87e-05 6.07e-05 1.94e-06 9.51e-07 
     64 2 1.13e-06  230 5.06e-05 7.71e-06 7.30e-06 1.13e-06 
     65 2 1.20e-06  230 6.50e-05 5.32e-05 2.76e-06 1.20e-06 
     66 2 1.16e-06  230 1.39e-05 4.08e-05 7.81e-06 1.16e-06 
     67 2 1.26e-06  230 4.90e-05 5.56e-05 2.62e-06 1.26e-06 
     68 2 1.06e-06  230 2.63e-05 2.45e-05 3.97e-06 1.06e-06 
     69 2 9.14e-07  230 2.15e-05 5.33e-05 6.75e-06 9.14e-07 
     70 2 1.31e-06  230 5.96e-06 1.60e-05 2.31e-06 1.31e-06 
     71 2 8.86e-07  230 9.34e-05 6.84e-06 9.05e-06 8.86e-07 
     72 2 1.29e-06  230 7.37e-05 4.08e-05 5.25e-06 1.29e-06 
     73 2 1.23e-06  230 7.52e-05 6.19e-05 6.51e-06 1.23e-06 
     74 2 1.08e-06  230 7.11e-05 4.06e-05 6.37e-06 1.08e-06 
     75 2 1.21e-06  230 5.99e-05 4.47e-05 2.94e-06 1.21e-06 
     76 2 1.06e-06  230 9.15e-05 7.85e-05 1.55e-06 1.06e-06 
     77 2 1.07e-06  230 4.10e-05 1.99e-05 4.92e-06 1.07e-06 
     78 2 1.37e-06  230 8.98e-05 4.22e-05 8.21e-06 1.37e-06 
     79 2 9.30e-07  230 2.55e-06 9.82e-05 2.84e-06 9.30e-07 
     80 2 8.80e-07  230 2.69e-05 8.19e-05 4.53e-06 8.80e-07 
     81 2 1.29e-06  230 4.81e-05 4.74e-05 5.87e-06 1.29e-06 
     82 2 1.34e-06  230 1.55e-05 1.25e-05 5.76e-06 1.34e-06 
     83 2 1.30e-06  230 7.66e-05 3.28e-05 5.03e-06 1.30e-06 
     84 2 1.36e-06  230 8.84e-05 1.67e-05 8.56e-06 1.36e-06 
     85 2 9.54e-07  230 6.03e-05 7.43e-05 5.36e-06 9.54e-07 
     86 2 8.86e-07  230 1.51e-05 5.32e-05 1.71e-06 8.86e-07 
     87 2 1.06e-06  230 2.86e-05 1.28e-05 7.02e-06 1.06e-06 
     88 2 1.09e-06  230 7.55e-05 3.27e-05 4.36e-06 1.09e-06 
     89 2 1.07e-06  230 3.81e-05 1.02e-05 3.28e-06 1.07e-06 
     90 2 1.17e-06  230 1.86e-05 8.80e-06 5.78e-06 1.17e-06 
     91 2 1.05e-06  230 5.27e-05 9.27e-05 6.73e-06 1.05e-06 
     92 2 1.33e-06  230 3.07e-05 7.07e-06 3.41e-06 1.33e-06 
     93 2 8.80e-07  230 5.13e-05 4.35e-05 2.10e-06 8.80e-07 
     94 2 1.04e-06  230 5.37e-05 2.43e-05 5.55e-06 1.04e-06 
     95 2 1.25e-06  230 3.20e-05 5.47e-05 8.06e-06 1.25e-06 
     96 2 1.11e-06  230 4.34e-05 9.14e-05 7.21e-06 1.11e-06 
     97 2 1.25e-06  230 7.16e-05 9.13e-05 7.84e-06 1.25e-06 
     98 2 1.15e-06  230 3.73e-05 9.66e-05 8.41e-06 1.15e-06 
     99 2 1.29e-06  230 7.21e-05 7.65e-05 2.23e-06 1.29e-06 
     100 2 9.62e-07  230 6.94e-05 9.73e-05 3.31e-06 9.62e-07 

 Nutrients 

     1 sub g nn nn nn 1.00e-01 1.00e-01 
     2 o2 l nn nn nd 9.00e-03 9.00e-03 
     3 suc l nn nn nn 3.42e-20 3.42e-20 
     4 co2 l nn nn nd 2.99e-02 2.99e-02 

 Type Name 

     1 cyano  
     2 ecw  

 Diffusion Coeffs 

     sub 0 
     o2 2.3e-09 
     suc 5.2e-10 
     co2 1.9e-09 

 Growth Rate 

     cyano 1.67e-05 
     ecw 1.9e-05 

 Ks 

     cyano 0.00035 0.0002 0.01 0.000138 
     ecw 0 0.001 3.6 0.05 

 Yield 

     cyano 0.55 
     ecw 0.43 

 Maintenance 

     cyano 0 
     ecw 9.5e-07 

 Decay 

     cyano 0 
     ecw 0 



