 NUFEB Simulation

     100 atoms 
     2 atom types 
     4 nutrients 

  0.0e-4   1.00e-04  xlo xhi 
  0.0e-4   1.00e-04  ylo yhi 
  0.0e-4   1.00e-05  zlo zhi 

 Atoms 

     1 1 1.85e-06  370 7.31e-05 8.10e-05 4.26e-06 1.85e-06 
     2 1 1.54e-06  370 4.37e-05 9.33e-05 1.81e-06 1.54e-06 
     3 1 1.80e-06  370 5.18e-05 7.05e-05 7.38e-06 1.80e-06 
     4 1 1.58e-06  370 9.50e-05 6.11e-05 5.52e-06 1.58e-06 
     5 1 1.81e-06  370 2.48e-05 9.69e-05 5.47e-06 1.81e-06 
     6 1 1.70e-06  370 8.30e-05 4.85e-06 1.89e-06 1.70e-06 
     7 1 1.54e-06  370 6.71e-05 6.61e-05 5.57e-06 1.54e-06 
     8 1 1.65e-06  370 8.86e-05 9.99e-06 4.79e-06 1.65e-06 
     9 1 1.75e-06  370 4.50e-05 8.77e-05 5.46e-06 1.75e-06 
     10 1 1.44e-06  370 4.62e-05 1.54e-05 6.80e-06 1.44e-06 
     11 1 1.82e-06  370 2.51e-05 7.71e-05 6.20e-06 1.82e-06 
     12 1 1.46e-06  370 8.77e-05 3.58e-05 7.78e-06 1.46e-06 
     13 1 1.75e-06  370 3.14e-05 4.27e-05 2.90e-06 1.75e-06 
     14 1 1.68e-06  370 7.69e-05 4.11e-05 2.49e-06 1.68e-06 
     15 1 1.86e-06  370 9.50e-05 8.03e-06 6.80e-06 1.86e-06 
     16 1 1.44e-06  370 6.16e-05 5.07e-06 5.06e-06 1.44e-06 
     17 1 1.41e-06  370 3.32e-05 3.69e-05 5.49e-06 1.41e-06 
     18 1 1.75e-06  370 5.56e-05 5.01e-05 7.90e-06 1.75e-06 
     19 1 1.42e-06  370 9.68e-05 2.18e-05 4.53e-06 1.42e-06 
     20 1 1.66e-06  370 8.77e-05 8.69e-05 4.27e-06 1.66e-06 
     21 1 1.85e-06  370 2.37e-05 6.18e-05 2.33e-06 1.85e-06 
     22 1 1.89e-06  370 7.78e-05 2.64e-05 4.26e-06 1.89e-06 
     23 1 1.63e-06  370 4.64e-05 7.14e-06 6.05e-06 1.63e-06 
     24 1 1.87e-06  370 4.07e-05 7.68e-05 7.83e-06 1.87e-06 
     25 1 1.82e-06  370 5.00e-06 8.09e-05 3.92e-06 1.82e-06 
     26 1 1.45e-06  370 3.95e-05 7.80e-05 7.13e-06 1.45e-06 
     27 1 1.56e-06  370 3.62e-05 8.17e-06 5.54e-06 1.56e-06 
     28 1 1.39e-06  370 3.88e-06 3.68e-05 4.31e-06 1.39e-06 
     29 1 1.46e-06  370 9.32e-05 4.78e-06 4.93e-06 1.46e-06 
     30 1 1.45e-06  370 2.04e-06 9.64e-05 3.69e-06 1.45e-06 
     31 1 1.47e-06  370 9.40e-05 9.10e-05 4.38e-06 1.47e-06 
     32 1 1.80e-06  370 8.12e-05 2.06e-05 1.92e-06 1.80e-06 
     33 1 1.89e-06  370 4.14e-05 4.66e-05 4.17e-06 1.89e-06 
     34 1 1.39e-06  370 7.76e-06 5.02e-05 3.85e-06 1.39e-06 
     35 1 1.82e-06  370 3.20e-05 7.27e-05 7.80e-06 1.82e-06 
     36 1 1.87e-06  370 4.37e-05 1.79e-05 7.23e-06 1.87e-06 
     37 1 1.51e-06  370 1.32e-05 7.35e-05 4.20e-06 1.51e-06 
     38 1 1.60e-06  370 8.77e-05 2.09e-05 4.36e-06 1.60e-06 
     39 1 1.91e-06  370 6.42e-05 2.52e-05 5.85e-06 1.91e-06 
     40 1 1.46e-06  370 4.60e-05 1.56e-05 5.05e-06 1.46e-06 
     41 1 1.93e-06  370 2.95e-05 6.27e-05 5.73e-06 1.93e-06 
     42 1 1.47e-06  370 6.13e-05 6.97e-05 8.09e-06 1.47e-06 
     43 1 1.90e-06  370 9.86e-06 9.42e-05 4.09e-06 1.90e-06 
     44 1 1.81e-06  370 6.72e-05 4.74e-05 4.34e-06 1.81e-06 
     45 1 1.49e-06  370 2.78e-05 3.23e-05 6.29e-06 1.49e-06 
     46 1 1.47e-06  370 4.83e-05 2.02e-05 2.06e-06 1.47e-06 
     47 1 1.38e-06  370 9.10e-05 7.13e-05 7.18e-06 1.38e-06 
     48 1 1.85e-06  370 7.48e-05 7.57e-06 5.06e-06 1.85e-06 
     49 1 1.94e-06  370 7.76e-05 8.05e-05 2.32e-06 1.94e-06 
     50 1 1.80e-06  370 2.72e-05 7.07e-05 6.54e-06 1.80e-06 
     51 2 1.14e-06  230 6.26e-05 9.51e-05 3.74e-06 1.14e-06 
     52 2 1.04e-06  230 5.67e-05 9.18e-05 8.76e-06 1.04e-06 
     53 2 1.30e-06  230 1.24e-05 7.74e-05 7.39e-06 1.30e-06 
     54 2 1.31e-06  230 7.95e-05 4.20e-05 5.18e-06 1.31e-06 
     55 2 1.00e-06  230 1.70e-05 2.95e-05 6.27e-06 1.00e-06 
     56 2 1.24e-06  230 4.58e-05 2.38e-05 5.10e-06 1.24e-06 
     57 2 1.23e-06  230 5.03e-05 9.34e-05 7.76e-06 1.23e-06 
     58 2 1.31e-06  230 7.71e-05 6.35e-05 4.40e-06 1.31e-06 
     59 2 9.94e-07  230 6.53e-05 2.69e-05 7.58e-06 9.94e-07 
     60 2 9.58e-07  230 6.78e-05 3.63e-05 1.20e-06 9.58e-07 
     61 2 1.33e-06  230 9.06e-05 7.28e-06 8.61e-06 1.33e-06 
     62 2 1.32e-06  230 1.84e-05 6.30e-05 2.98e-06 1.32e-06 
     63 2 1.34e-06  230 5.48e-05 5.23e-05 4.61e-06 1.34e-06 
     64 2 1.00e-06  230 5.32e-05 8.01e-05 5.25e-06 1.00e-06 
     65 2 1.18e-06  230 4.91e-05 7.56e-05 4.87e-06 1.18e-06 
     66 2 1.12e-06  230 1.15e-05 2.08e-05 6.50e-06 1.12e-06 
     67 2 1.05e-06  230 8.91e-05 7.41e-05 4.44e-06 1.05e-06 
     68 2 1.18e-06  230 8.67e-05 1.99e-05 5.33e-06 1.18e-06 
     69 2 1.06e-06  230 8.65e-05 6.14e-05 5.04e-06 1.06e-06 
     70 2 1.01e-06  230 2.13e-06 5.23e-05 8.94e-06 1.01e-06 
     71 2 1.14e-06  230 6.43e-05 5.44e-05 5.72e-06 1.14e-06 
     72 2 1.13e-06  230 2.19e-05 6.57e-05 3.65e-06 1.13e-06 
     73 2 1.29e-06  230 7.42e-05 5.98e-05 7.37e-06 1.29e-06 
     74 2 1.01e-06  230 8.68e-05 3.41e-05 8.70e-06 1.01e-06 
     75 2 1.23e-06  230 7.30e-05 2.50e-05 3.38e-06 1.23e-06 
     76 2 1.29e-06  230 7.67e-05 3.38e-05 3.09e-06 1.29e-06 
     77 2 1.03e-06  230 1.12e-05 9.29e-05 7.00e-06 1.03e-06 
     78 2 1.36e-06  230 2.92e-05 9.09e-05 7.93e-06 1.36e-06 
     79 2 1.09e-06  230 2.64e-05 8.80e-05 1.55e-06 1.09e-06 
     80 2 1.13e-06  230 5.61e-05 5.40e-06 4.93e-06 1.13e-06 
     81 2 1.31e-06  230 9.25e-05 4.37e-05 6.19e-06 1.31e-06 
     82 2 1.11e-06  230 9.19e-05 6.88e-05 1.66e-06 1.11e-06 
     83 2 1.15e-06  230 1.00e-05 9.66e-05 4.31e-06 1.15e-06 
     84 2 9.10e-07  230 7.28e-05 6.10e-05 3.11e-06 9.10e-07 
     85 2 9.64e-07  230 6.19e-05 4.33e-05 7.05e-06 9.64e-07 
     86 2 1.35e-06  230 2.60e-05 6.23e-05 2.36e-06 1.35e-06 
     87 2 1.05e-06  230 1.91e-05 3.33e-05 2.15e-06 1.05e-06 
     88 2 9.37e-07  230 7.53e-05 5.97e-05 7.06e-06 9.37e-07 
     89 2 1.18e-06  230 3.41e-06 3.32e-05 5.06e-06 1.18e-06 
     90 2 1.03e-06  230 5.11e-05 2.35e-05 6.69e-06 1.03e-06 
     91 2 1.23e-06  230 5.14e-05 5.40e-05 7.51e-06 1.23e-06 
     92 2 1.02e-06  230 7.14e-05 5.26e-05 5.36e-06 1.02e-06 
     93 2 9.66e-07  230 5.96e-05 1.11e-06 1.35e-06 9.66e-07 
     94 2 1.05e-06  230 4.40e-06 3.50e-05 3.47e-06 1.05e-06 
     95 2 9.39e-07  230 7.58e-05 8.14e-05 5.40e-06 9.39e-07 
     96 2 1.17e-06  230 1.30e-05 6.60e-05 8.32e-06 1.17e-06 
     97 2 9.59e-07  230 8.28e-05 8.40e-05 2.07e-06 9.59e-07 
     98 2 9.39e-07  230 4.27e-05 6.56e-05 7.80e-06 9.39e-07 
     99 2 1.22e-06  230 3.10e-05 8.76e-05 4.80e-06 1.22e-06 
     100 2 1.13e-06  230 3.32e-05 9.22e-05 3.25e-06 1.13e-06 

 Nutrients 

     1 sub g nn nn nn 1.00e-01 1.00e-01 
     2 o2 l nn nn nd 9.00e-03 9.00e-03 
     3 suc l nn nn nn 3.42e-20 3.42e-20 
     4 co2 l nn nn nd 2.99e-02 2.99e-02 

 Type Name 

     1 cyano  
     2 ecw  

 Diffusion Coeffs 

     sub 0 
     o2 2.3e-09 
     suc 5.2e-10 
     co2 1.9e-09 

 Growth Rate 

     cyano 1.67e-05 
     ecw 1.6e-05 

 Ks 

     cyano 0.00035 0.0002 0.01 0.000138 
     ecw 0 0.001 3.6 0.05 

 Yield 

     cyano 0.55 
     ecw 0.43 

 Maintenance 

     cyano 0 
     ecw 9.5e-07 

 Decay 

     cyano 0 
     ecw 0 



