 NUFEB Simulation

     100 atoms 
     2 atom types 
     4 nutrients 

  0.0e-4   1.00e-04  xlo xhi 
  0.0e-4   1.00e-04  ylo yhi 
  0.0e-4   1.00e-05  zlo zhi 

 Atoms 

     1 1 1.73e-06  370 5.33e-05 1.79e-05 1.93e-06 1.73e-06 
     2 1 1.45e-06  370 9.44e-05 4.52e-05 7.47e-06 1.45e-06 
     3 1 1.46e-06  370 5.98e-05 4.24e-05 4.92e-06 1.46e-06 
     4 1 1.54e-06  370 4.71e-05 8.56e-06 5.12e-06 1.54e-06 
     5 1 1.74e-06  370 3.82e-05 3.78e-05 6.16e-06 1.74e-06 
     6 1 1.69e-06  370 9.24e-06 9.32e-06 6.32e-06 1.69e-06 
     7 1 1.63e-06  370 6.16e-05 5.61e-05 2.87e-06 1.63e-06 
     8 1 1.51e-06  370 8.45e-05 7.02e-05 8.09e-06 1.51e-06 
     9 1 1.89e-06  370 1.90e-05 1.31e-05 5.56e-06 1.89e-06 
     10 1 1.61e-06  370 5.25e-06 8.60e-05 4.96e-06 1.61e-06 
     11 1 1.65e-06  370 7.46e-05 4.20e-05 7.36e-06 1.65e-06 
     12 1 1.45e-06  370 7.53e-05 7.51e-05 5.21e-06 1.45e-06 
     13 1 1.46e-06  370 6.61e-05 3.26e-05 4.68e-06 1.46e-06 
     14 1 1.85e-06  370 3.69e-05 7.75e-05 2.10e-06 1.85e-06 
     15 1 1.86e-06  370 1.72e-05 9.65e-05 7.32e-06 1.86e-06 
     16 1 1.47e-06  370 7.77e-05 1.79e-06 3.16e-06 1.47e-06 
     17 1 1.54e-06  370 4.16e-05 6.48e-05 6.44e-06 1.54e-06 
     18 1 1.80e-06  370 7.80e-05 8.49e-05 7.83e-06 1.80e-06 
     19 1 1.58e-06  370 1.18e-05 7.04e-05 3.80e-06 1.58e-06 
     20 1 1.51e-06  370 2.16e-05 2.69e-05 6.43e-06 1.51e-06 
     21 1 1.58e-06  370 4.18e-05 7.45e-05 6.18e-06 1.58e-06 
     22 1 1.57e-06  370 9.07e-05 2.07e-05 5.60e-06 1.57e-06 
     23 1 1.63e-06  370 2.01e-05 4.15e-05 7.93e-06 1.63e-06 
     24 1 1.94e-06  370 8.85e-05 9.51e-05 4.56e-06 1.94e-06 
     25 1 1.40e-06  370 8.15e-05 4.96e-06 2.36e-06 1.40e-06 
     26 1 1.44e-06  370 5.28e-05 7.55e-05 7.13e-06 1.44e-06 
     27 1 1.63e-06  370 2.84e-05 4.74e-05 4.85e-06 1.63e-06 
     28 1 1.40e-06  370 8.13e-05 9.61e-05 4.43e-06 1.40e-06 
     29 1 1.86e-06  370 5.71e-05 2.50e-05 4.80e-06 1.86e-06 
     30 1 1.41e-06  370 9.10e-05 8.04e-05 1.94e-06 1.41e-06 
     31 1 1.70e-06  370 1.99e-05 4.88e-05 4.03e-06 1.70e-06 
     32 1 1.78e-06  370 5.66e-05 5.72e-06 2.41e-06 1.78e-06 
     33 1 1.55e-06  370 4.60e-05 9.09e-05 4.67e-06 1.55e-06 
     34 1 1.93e-06  370 2.52e-05 1.30e-05 5.00e-06 1.93e-06 
     35 1 1.53e-06  370 5.50e-05 7.56e-05 3.71e-06 1.53e-06 
     36 1 1.59e-06  370 3.10e-05 5.72e-06 5.27e-06 1.59e-06 
     37 1 1.62e-06  370 5.13e-05 1.80e-05 5.34e-06 1.62e-06 
     38 1 1.57e-06  370 3.90e-05 4.33e-05 3.55e-06 1.57e-06 
     39 1 1.56e-06  370 8.49e-05 6.28e-05 4.56e-06 1.56e-06 
     40 1 1.46e-06  370 5.98e-05 1.81e-05 7.02e-06 1.46e-06 
     41 1 1.68e-06  370 1.10e-05 7.72e-06 2.43e-06 1.68e-06 
     42 1 1.47e-06  370 8.41e-05 6.93e-05 5.73e-06 1.47e-06 
     43 1 1.55e-06  370 6.29e-06 7.73e-05 6.07e-06 1.55e-06 
     44 1 1.61e-06  370 2.19e-05 7.32e-05 2.78e-06 1.61e-06 
     45 1 1.47e-06  370 6.90e-05 4.93e-05 6.14e-06 1.47e-06 
     46 1 1.92e-06  370 4.53e-05 7.43e-05 6.96e-06 1.92e-06 
     47 1 1.71e-06  370 5.62e-06 2.11e-05 4.24e-06 1.71e-06 
     48 1 1.88e-06  370 1.34e-05 8.77e-05 5.03e-06 1.88e-06 
     49 1 1.77e-06  370 1.74e-05 2.70e-05 2.07e-06 1.77e-06 
     50 1 1.69e-06  370 7.14e-05 9.73e-05 6.01e-06 1.69e-06 
     51 2 1.24e-06  230 7.93e-05 3.09e-05 5.30e-06 1.24e-06 
     52 2 9.68e-07  230 9.57e-05 8.65e-05 6.77e-06 9.68e-07 
     53 2 1.10e-06  230 5.22e-05 2.14e-05 4.33e-06 1.10e-06 
     54 2 1.37e-06  230 3.88e-05 7.29e-05 5.79e-06 1.37e-06 
     55 2 1.34e-06  230 9.76e-05 2.29e-05 3.57e-06 1.34e-06 
     56 2 9.23e-07  230 1.83e-06 8.96e-05 3.40e-06 9.23e-07 
     57 2 9.15e-07  230 6.43e-05 4.85e-05 4.33e-06 9.15e-07 
     58 2 1.39e-06  230 6.27e-05 4.77e-05 1.67e-06 1.39e-06 
     59 2 1.28e-06  230 7.93e-05 1.24e-05 6.53e-06 1.28e-06 
     60 2 1.31e-06  230 8.65e-05 5.67e-05 7.25e-06 1.31e-06 
     61 2 1.33e-06  230 7.77e-05 8.02e-05 8.02e-06 1.33e-06 
     62 2 9.13e-07  230 2.66e-06 8.83e-05 6.72e-06 9.13e-07 
     63 2 1.06e-06  230 8.90e-05 3.17e-05 6.46e-06 1.06e-06 
     64 2 1.33e-06  230 2.21e-05 8.73e-05 6.56e-06 1.33e-06 
     65 2 1.15e-06  230 2.53e-05 7.99e-05 3.79e-06 1.15e-06 
     66 2 1.20e-06  230 4.63e-05 4.64e-05 3.69e-06 1.20e-06 
     67 2 1.19e-06  230 5.86e-05 2.36e-06 8.21e-06 1.19e-06 
     68 2 1.19e-06  230 9.23e-05 1.66e-05 5.27e-06 1.19e-06 
     69 2 1.05e-06  230 2.19e-05 6.71e-05 5.69e-06 1.05e-06 
     70 2 1.32e-06  230 2.52e-05 8.19e-05 1.66e-06 1.32e-06 
     71 2 1.14e-06  230 4.33e-05 8.21e-05 2.77e-06 1.14e-06 
     72 2 1.34e-06  230 2.47e-05 6.99e-05 3.35e-06 1.34e-06 
     73 2 8.80e-07  230 3.75e-05 9.55e-05 4.31e-06 8.80e-07 
     74 2 1.27e-06  230 2.26e-05 8.26e-05 8.12e-06 1.27e-06 
     75 2 1.03e-06  230 1.45e-05 9.17e-05 2.86e-06 1.03e-06 
     76 2 1.36e-06  230 3.92e-05 5.09e-06 5.21e-06 1.36e-06 
     77 2 1.05e-06  230 9.48e-05 7.79e-05 8.01e-06 1.05e-06 
     78 2 1.00e-06  230 7.41e-05 2.77e-05 4.15e-06 1.00e-06 
     79 2 1.27e-06  230 4.36e-05 2.57e-05 6.45e-06 1.27e-06 
     80 2 1.28e-06  230 1.57e-05 5.42e-05 4.22e-06 1.28e-06 
     81 2 9.51e-07  230 4.19e-05 6.76e-05 7.67e-06 9.51e-07 
     82 2 1.20e-06  230 1.45e-05 6.73e-05 7.24e-06 1.20e-06 
     83 2 1.33e-06  230 2.77e-05 5.72e-05 7.73e-06 1.33e-06 
     84 2 1.23e-06  230 2.55e-05 5.84e-05 2.05e-06 1.23e-06 
     85 2 1.12e-06  230 4.50e-05 9.52e-05 6.39e-06 1.12e-06 
     86 2 1.27e-06  230 7.04e-05 2.90e-05 4.42e-06 1.27e-06 
     87 2 1.06e-06  230 4.09e-05 1.21e-05 2.69e-06 1.06e-06 
     88 2 1.33e-06  230 1.53e-05 6.67e-06 2.13e-06 1.33e-06 
     89 2 1.03e-06  230 2.61e-05 8.61e-05 2.19e-06 1.03e-06 
     90 2 1.39e-06  230 1.61e-05 8.99e-05 4.85e-06 1.39e-06 
     91 2 1.02e-06  230 3.52e-05 2.43e-05 6.08e-06 1.02e-06 
     92 2 1.05e-06  230 3.27e-05 9.07e-05 1.10e-06 1.05e-06 
     93 2 1.32e-06  230 2.20e-05 5.77e-05 4.60e-06 1.32e-06 
     94 2 1.29e-06  230 5.26e-05 7.67e-05 5.15e-06 1.29e-06 
     95 2 9.00e-07  230 1.86e-05 9.00e-05 6.67e-06 9.00e-07 
     96 2 1.16e-06  230 9.36e-05 5.22e-05 6.36e-06 1.16e-06 
     97 2 9.60e-07  230 6.65e-05 1.86e-05 8.12e-06 9.60e-07 
     98 2 1.08e-06  230 3.70e-05 3.32e-05 2.12e-06 1.08e-06 
     99 2 1.30e-06  230 5.37e-05 2.67e-05 4.27e-06 1.30e-06 
     100 2 1.22e-06  230 3.91e-05 6.90e-05 2.30e-06 1.22e-06 

 Nutrients 

     1 sub g nn nn nn 1.00e-01 1.00e-01 
     2 o2 l nn nn nd 9.00e-03 9.00e-03 
     3 suc l nn nn nn 3.42e-20 3.42e-20 
     4 co2 l nn nn nd 2.99e-02 2.99e-02 

 Type Name 

     1 cyano  
     2 ecw  

 Diffusion Coeffs 

     sub 0 
     o2 2.3e-09 
     suc 5.2e-10 
     co2 1.9e-09 

 Growth Rate 

     cyano 1.67e-05 
     ecw 1.9e-05 

 Ks 

     cyano 0.00035 0.0002 0.01 0.000138 
     ecw 0 0.001 3.6 0.05 

 Yield 

     cyano 0.55 
     ecw 0.43 

 Maintenance 

     cyano 0 
     ecw 9.5e-07 

 Decay 

     cyano 0 
     ecw 0 



