 NUFEB Simulation

     50 atoms 
     2 atom types 
     4 nutrients 

  0.0e-4   1.00e-04  xlo xhi 
  0.0e-4   1.00e-04  ylo yhi 
  0.0e-4   5.00e-05  zlo zhi 

 Atoms 

     1 1 1.63e-06  370 7.46e-05 3.94e-05 2.41e-05 1.63e-06 
     2 1 1.70e-06  370 2.12e-05 2.25e-05 3.64e-05 1.70e-06 
     3 1 1.57e-06  370 8.21e-05 7.09e-05 1.02e-05 1.57e-06 
     4 1 1.53e-06  370 7.21e-05 4.20e-05 3.55e-05 1.53e-06 
     5 1 1.42e-06  370 7.44e-06 1.82e-05 3.95e-05 1.42e-06 
     6 1 1.56e-06  370 6.66e-05 6.97e-05 1.01e-05 1.56e-06 
     7 1 1.72e-06  370 2.03e-05 4.06e-06 4.26e-05 1.72e-06 
     8 1 1.72e-06  370 2.68e-05 5.70e-05 7.57e-06 1.72e-06 
     9 1 1.64e-06  370 1.82e-05 9.05e-05 1.62e-05 1.64e-06 
     10 1 1.86e-06  370 7.73e-05 4.94e-05 2.77e-05 1.86e-06 
     11 1 1.73e-06  370 7.25e-05 1.36e-05 3.22e-05 1.73e-06 
     12 1 1.78e-06  370 1.98e-05 3.34e-05 3.07e-05 1.78e-06 
     13 1 1.60e-06  370 6.71e-05 9.45e-06 5.08e-06 1.60e-06 
     14 1 1.55e-06  370 7.45e-06 9.76e-06 7.89e-06 1.55e-06 
     15 1 1.68e-06  370 5.42e-05 3.69e-05 4.22e-05 1.68e-06 
     16 1 1.43e-06  370 4.08e-06 1.25e-05 2.30e-05 1.43e-06 
     17 1 1.60e-06  370 2.30e-05 7.43e-05 3.23e-05 1.60e-06 
     18 1 1.84e-06  370 1.75e-05 6.92e-05 2.20e-05 1.84e-06 
     19 1 1.49e-06  370 7.16e-05 8.44e-05 3.14e-05 1.49e-06 
     20 1 1.69e-06  370 3.83e-05 8.65e-05 5.30e-06 1.69e-06 
     21 1 1.89e-06  370 8.30e-05 5.28e-05 2.62e-05 1.89e-06 
     22 1 1.53e-06  370 6.54e-05 4.89e-05 3.14e-05 1.53e-06 
     23 1 1.48e-06  370 3.68e-05 1.66e-05 4.35e-05 1.48e-06 
     24 1 1.87e-06  370 7.13e-05 9.16e-05 1.43e-05 1.87e-06 
     25 1 1.49e-06  370 7.80e-06 6.73e-05 4.34e-06 1.49e-06 
     26 1 1.65e-06  370 9.50e-05 4.29e-05 6.87e-06 1.65e-06 
     27 1 1.53e-06  370 9.68e-05 8.29e-06 1.14e-05 1.53e-06 
     28 1 1.53e-06  370 4.88e-05 8.37e-05 6.08e-06 1.53e-06 
     29 1 1.81e-06  370 7.09e-05 5.96e-05 1.14e-05 1.81e-06 
     30 1 1.75e-06  370 1.06e-05 8.36e-05 2.82e-05 1.75e-06 
     31 1 1.68e-06  370 8.98e-05 4.84e-06 2.65e-05 1.68e-06 
     32 1 1.52e-06  370 8.60e-05 7.54e-05 1.78e-05 1.52e-06 
     33 1 1.60e-06  370 1.99e-05 5.98e-05 3.19e-05 1.60e-06 
     34 1 1.74e-06  370 4.43e-05 9.75e-05 2.97e-05 1.74e-06 
     35 1 1.66e-06  370 9.69e-05 9.06e-05 2.47e-05 1.66e-06 
     36 1 1.50e-06  370 2.33e-05 7.45e-05 2.27e-05 1.50e-06 
     37 1 1.39e-06  370 8.13e-05 7.16e-05 2.48e-05 1.39e-06 
     38 1 1.92e-06  370 8.30e-05 2.09e-05 4.68e-05 1.92e-06 
     39 1 1.52e-06  370 7.12e-05 4.56e-06 2.56e-06 1.52e-06 
     40 1 1.62e-06  370 2.64e-05 5.06e-05 3.61e-05 1.62e-06 
     41 1 1.38e-06  370 1.52e-06 8.82e-05 2.22e-05 1.38e-06 
     42 1 1.80e-06  370 8.40e-06 7.82e-05 2.39e-05 1.80e-06 
     43 1 1.44e-06  370 2.31e-05 7.97e-05 4.76e-05 1.44e-06 
     44 1 1.38e-06  370 3.28e-06 1.76e-05 1.55e-05 1.38e-06 
     45 1 1.49e-06  370 6.40e-05 8.43e-05 3.72e-06 1.49e-06 
     46 1 1.83e-06  370 4.21e-05 7.61e-06 2.20e-05 1.83e-06 
     47 1 1.85e-06  370 1.94e-05 5.61e-05 3.20e-05 1.85e-06 
     48 1 1.38e-06  370 8.19e-05 2.01e-05 1.09e-05 1.38e-06 
     49 1 1.38e-06  370 3.64e-05 5.98e-06 2.56e-05 1.38e-06 
     50 1 1.57e-06  370 2.78e-05 9.42e-05 3.22e-05 1.57e-06 

 Nutrients 

     1 sub g nn nn nn 1.00e-01 1.00e-01 
     2 o2 l nn nn nd 9.00e-03 9.00e-03 
     3 suc l nn nn nn 3.42e-20 3.42e-20 
     4 co2 l nn nn nd 2.99e-02 2.99e-02 

 Type Name 

     1 cyano  
     2 ecw  

 Diffusion Coeffs 

     sub 0 
     o2 2.3e-09 
     suc 5.2e-10 
     co2 1.9e-09 

 Growth Rate 

     cyano 2.047e-05 
     ecw 6.71e-05 

 Ks 

     cyano 0.00035 0.0002 0.01 0.000138 
     ecw 0 0.001 3.6 0.05 

 Yield 

     cyano 0.55 
     ecw 0.43 

 Maintenance 

     cyano 0 
     ecw 9.5e-07 

 Decay 

     cyano 0 
     ecw 0 



