LAMMPS (20 Nov 2019)
Reading data file ...
  orthogonal box = (0 0 0) to (0.0001 0.0001 5e-05)
  2 by 2 by 2 MPI processor grid
  reading atoms ...
  50 atoms
  4 nutrients
Lattice spacing in x,y,z = 100 100 100
50 atoms in group CYANO
0 atoms in group ECW
Model is defined as a closed system. 
Neighbor list info ...
  update every 1 steps, delay 0 steps, check yes
  max neighbors/atom: 5000, page size: 100000
  master list distance cutoff = 2.42e-06
  ghost atom cutoff = 2.42e-06
  binsize = 1.21e-06, bins = 83 83 42
  1 neighbor lists, perpetual/occasional/extra = 1 0 0
  (1) pair gran/hooke/history, perpetual
      attributes: half, newton off, size, history
      pair build: half/size/bin/newtoff
      stencil: half/bin/3d/newtoff
      bin: standard
Setting up Verlet run ...
  Unit style    : lj
  Current step  : 0
  Time step     : 10
Per MPI rank memory allocation (min/avg/max) = 6.973 | 10.94 | 12.35 Mbytes
Step CPU Atoms c_myNtypes[1] c_myNtypes[2] c_myMass[1] c_myMass[2] c_myCon[1] c_myCon[2] c_myCon[3] c_myCon[4] 
       0            0       50           50            0 4.2149994e-14            0          0.1        0.009     3.42e-20       0.0299 
number of iterations: 321280 
     100    4.9932112       50           50            0 4.2988727e-14            0          0.1 0.0090012223 0.00083481752  0.029897965 
number of iterations: 20178 
     200    5.5538867       50           50            0 4.3844151e-14            0          0.1 0.0090012467 0.0016601306  0.029897925 
number of iterations: 20265 
     300    6.0889607       50           50            0 4.4716596e-14            0          0.1 0.0090012715 0.0025017389  0.029897883 
number of iterations: 20351 
     400    6.6286114       50           50            0 4.5606402e-14            0          0.1 0.0090012968  0.003360055  0.029897841 
number of iterations: 20438 
     500    7.1588667       51           51            0 4.6513914e-14            0          0.1 0.0090013226 0.0042354245  0.029897798 
number of iterations: 20524 
     600    7.7073541       51           51            0 4.7439484e-14            0          0.1 0.0090013489 0.0051281937  0.029897755 
number of iterations: 20611 
     700    8.2468078       52           52            0 4.8383472e-14            0          0.1 0.0090013758  0.006038713   0.02989771 
number of iterations: 20698 
     800     8.812387       52           52            0 4.9346244e-14            0          0.1 0.0090014031 0.0069673397  0.029897664 
number of iterations: 20784 
     900    9.3898527       54           54            0 5.0328174e-14            0          0.1 0.0090014311 0.0079144368  0.029897618 
number of iterations: 20877 
    1000    9.9485737       55           55            0 5.1329644e-14            0          0.1 0.0090014595 0.0088803742   0.02989757 
number of iterations: 20958 
    1100    10.481291       56           56            0 5.2351041e-14            0          0.1 0.0090014886 0.0098655265  0.029897522 
number of iterations: 21044 
    1200    11.003793       57           57            0 5.3392763e-14            0          0.1 0.0090015182  0.010870277  0.029897473 
number of iterations: 21131 
    1300     11.53769       57           57            0 5.4455214e-14            0          0.1 0.0090015484  0.011895016  0.029897422 
number of iterations: 21218 
    1400    12.081354       59           59            0 5.5538806e-14            0          0.1 0.0090015793  0.012940141  0.029897371 
number of iterations: 21305 
    1500    12.666897       59           59            0 5.6643961e-14            0          0.1 0.0090016107   0.01400606  0.029897319 
number of iterations: 21397 
    1600    13.228657       60           60            0 5.7771107e-14            0          0.1 0.0090016427  0.015093186  0.029897265 
number of iterations: 21478 
    1700    13.803276       60           60            0 5.8920681e-14            0          0.1 0.0090016754  0.016201942  0.029897211 
number of iterations: 21565 
    1800     14.39941       60           60            0 6.0093131e-14            0          0.1 0.0090017088  0.017332758  0.029897155 
number of iterations: 21655 
    1900    14.975961       61           61            0 6.1288911e-14            0          0.1 0.0090017428   0.01848607  0.029897099 
number of iterations: 20482 
    2000    15.487362       62           62            0 6.2508486e-14            0          0.1 0.0090017697  0.019662328  0.029897054 
number of iterations: 21803 
    2100    16.065631       65           65            0 6.3752328e-14            0          0.1  0.009001805  0.020861988  0.029896995 
number of iterations: 21890 
    2200    16.637524       65           65            0 6.5020922e-14            0          0.1 0.0090018409  0.022085518  0.029896935 
number of iterations: 21977 
    2300    17.200992       66           66            0 6.6314759e-14            0          0.1 0.0090018775  0.023333392  0.029896874 
number of iterations: 22064 
    2400    17.769998       67           67            0 6.7634341e-14            0          0.1 0.0090019149  0.024606095  0.029896812 
number of iterations: 22155 
    2500    18.318561       69           69            0 6.8980182e-14            0          0.1  0.009001953  0.025904118  0.029896749 
number of iterations: 22238 
    2600     18.91394       69           69            0 7.0352804e-14            0          0.1 0.0090019919  0.027227969  0.029896684 
number of iterations: 22333 
    2700     19.59756       70           70            0 7.1752738e-14            0          0.1 0.0090020315   0.02857816  0.029896618 
number of iterations: 22437 
    2800     20.20299       71           71            0 7.318053e-14            0          0.1 0.0090020719  0.029955217  0.029896551 
number of iterations: 22531 
    2900    20.780037       72           72            0 7.4636733e-14            0          0.1 0.0090021132  0.031359676  0.029896482 
number of iterations: 22645 
    3000    21.346423       73           73            0 7.6121913e-14            0          0.1 0.0090021552   0.03279208  0.029896412 
number of iterations: 22749 
    3100     21.90925       74           74            0 7.7636646e-14            0          0.1 0.0090021981  0.034252986  0.029896341 
number of iterations: 22870 
    3200    22.499441       78           78            0 7.918152e-14            0          0.1 0.0090022419   0.03574296  0.029896268 
number of iterations: 22958 
    3300    23.069434       78           78            0 8.0757136e-14            0          0.1 0.0090022865  0.037262582  0.029896193 
number of iterations: 23063 
    3400    23.668464       79           79            0 8.2364104e-14            0          0.1  0.009002332   0.03881244  0.029896118 
number of iterations: 23538 
    3500    24.271006       81           81            0 8.4003049e-14            0          0.1 0.0090023809  0.040393135  0.029896036 
number of iterations: 23279 
    3600    24.867465       83           83            0 8.5674607e-14            0          0.1 0.0090024283  0.042005282  0.029895957 
number of iterations: 23393 
    3700     25.45646       85           85            0 8.7379426e-14            0          0.1 0.0090024766   0.04364951  0.029895877 
number of iterations: 23488 
    3800    26.050201       85           85            0 8.911817e-14            0          0.1 0.0090025259  0.045326455  0.029895795 
number of iterations: 23592 
    3900    26.635611       90           90            0 9.0891512e-14            0          0.1 0.0090025762  0.047036768  0.029895711 
number of iterations: 23697 
    4000    27.256561       92           92            0 9.2700142e-14            0          0.1 0.0090026274  0.048781113  0.029895626 
number of iterations: 23802 
    4100    27.863402       92           92            0 9.4544761e-14            0          0.1 0.0090026797  0.050560167  0.029895539 
number of iterations: 23906 
    4200    28.533019       93           93            0 9.6426086e-14            0          0.1  0.009002733  0.052374621   0.02989545 
number of iterations: 24011 
    4300    29.125523       97           97            0 9.8344847e-14            0          0.1 0.0090027874  0.054225179  0.029895359 
number of iterations: 25363 
    4400    29.773075       99           99            0 1.0030179e-13            0          0.1 0.0090028559  0.056112561  0.029895245 
number of iterations: 24246 
    4500    30.403094       99           99            0 1.0229767e-13            0          0.1 0.0090029127  0.058037499  0.029895151 
number of iterations: 24351 
    4600    31.016142       99           99            0 1.0433327e-13            0          0.1 0.0090029707  0.060000739  0.029895054 
number of iterations: 24467 
    4700    31.713719      102          102            0 1.0640937e-13            0          0.1 0.0090030298  0.062003042  0.029894956 
number of iterations: 24571 
    4800    32.320641      105          105            0 1.0852679e-13            0          0.1 0.0090030901  0.064045186  0.029894855 
number of iterations: 24666 
    4900    32.939579      105          105            0 1.1068634e-13            0          0.1 0.0090031516  0.066127965  0.029894753 
number of iterations: 23904 
    5000    33.546321      108          108            0 1.1288886e-13            0          0.1 0.0090032056  0.068252187  0.029894663 
number of iterations: 24437 
    5100    34.166547      110          110            0 1.1513521e-13            0          0.1 0.0090032635  0.070418672  0.029894567 
number of iterations: 24956 
    5200    34.816711      113          113            0 1.1742626e-13            0          0.1 0.0090033284  0.072628266  0.029894458 
number of iterations: 25063 
    5300    35.428003      115          115            0 1.197629e-13            0          0.1 0.0090033946  0.074881826  0.029894348 
number of iterations: 25169 
    5400     36.05153      120          120            0 1.2214603e-13            0          0.1 0.0090034622  0.077180231  0.029894236 
number of iterations: 25271 
    5500    36.670787      126          126            0 1.2457659e-13            0          0.1 0.0090035311  0.079524371  0.029894121 
number of iterations: 25376 
    5600    37.306091      126          126            0 1.2705551e-13            0          0.1 0.0090036014  0.081915155  0.029894004 
number of iterations: 25481 
    5700    37.939609      129          129            0 1.2958376e-13            0          0.1  0.009003673  0.084353512  0.029893885 
number of iterations: 25586 
    5800    38.577215      132          132            0 1.3216231e-13            0          0.1 0.0090037461  0.086840388  0.029893763 
number of iterations: 25691 
    5900    39.267737      136          136            0 1.3479218e-13            0          0.1 0.0090038207   0.08937675  0.029893639 
number of iterations: 25796 
    6000    39.964412      139          139            0 1.3747438e-13            0          0.1 0.0090038967  0.091963584  0.029893512 
number of iterations: 25901 
    6100    40.621285      143          143            0 1.4020995e-13            0          0.1 0.0090039742  0.094601893  0.029893383 
number of iterations: 26006 
    6200    41.277686      145          145            0 1.4299995e-13            0          0.1 0.0090040533  0.097292701  0.029893251 
number of iterations: 26111 
    6300    41.903073      146          146            0 1.4584548e-13            0          0.1  0.009004134   0.10003705  0.029893117 
number of iterations: 26214 
    6400    42.545145      148          148            0 1.4874762e-13            0          0.1 0.0090042163   0.10283601   0.02989298 
number of iterations: 26322 
    6500    43.238456      149          149            0 1.5170751e-13            0          0.1 0.0090043002   0.10569066   0.02989284 
number of iterations: 26428 
    6600    43.916859      153          153            0 1.5472631e-13            0          0.1 0.0090043857   0.10860211  0.029892698 
number of iterations: 26530 
    6700      44.5929      155          155            0 1.5780517e-13            0          0.1  0.009004473   0.11157149  0.029892553 
number of iterations: 26415 
    6800     45.24791      159          159            0 1.609453e-13            0          0.1 0.0090045592   0.11459997  0.029892409 
number of iterations: 26952 
    6900     45.96902      161          161            0 1.6414791e-13            0          0.1 0.0090046528    0.1176887  0.029892253 
number of iterations: 26847 
    7000    46.657186      161          161            0 1.6741425e-13            0          0.1 0.0090047454    0.1208389  0.029892099 
number of iterations: 27100 
    7100    47.338044      164          164            0 1.7074558e-13            0          0.1 0.0090048418   0.12405178  0.029891939 
number of iterations: 27253 
    7200    48.012436      169          169            0 1.7414321e-13            0          0.1 0.0090049408   0.12732859  0.029891774 
number of iterations: 27188 
    7300     48.68703      173          173            0 1.7760844e-13            0          0.1 0.0090050391   0.13067061   0.02989161 
number of iterations: 27277 
    7400    49.366468      175          175            0 1.8114263e-13            0          0.1 0.0090051394   0.13407912  0.029891443 
number of iterations: 27381 
    7500    50.053232      179          179            0 1.8474714e-13            0          0.1 0.0090052417   0.13755546  0.029891273 
number of iterations: 27489 
    7600     50.70694      183          183            0 1.8842338e-13            0          0.1  0.009005346   0.14110097  0.029891099 
number of iterations: 27592 
    7700    51.379228      188          188            0 1.9217277e-13            0          0.1 0.0090054523   0.14471704  0.029890922 
number of iterations: 27966 
    7800    52.075145      193          193            0 1.9599677e-13            0          0.1 0.0090055653   0.14840506  0.029890734 
number of iterations: 27807 
    7900    52.767338      197          197            0 1.9989686e-13            0          0.1 0.0090056761   0.15216648  0.029890549 
number of iterations: 27913 
    8000    53.470541      201          201            0 2.0387456e-13            0          0.1  0.009005789   0.15600275  0.029890361 
number of iterations: 28018 
    8100    54.159692      203          203            0 2.0793141e-13            0          0.1 0.0090059042   0.15991536  0.029890169 
number of iterations: 28123 
    8200    54.863814      206          206            0 2.1206899e-13            0          0.1 0.0090060217   0.16390582  0.029889974 
number of iterations: 28233 
    8300    55.565289      210          210            0 2.162889e-13            0          0.1 0.0090061415   0.16797568  0.029889774 
number of iterations: 28334 
    8400    56.250305      215          215            0 2.2059277e-13            0          0.1 0.0090062638   0.17212653  0.029889571 
number of iterations: 28749 
    8500     56.94449      220          220            0 2.2498229e-13            0          0.1  0.009006395   0.17635996  0.029889352 
number of iterations: 28552 
    8600    57.636491      222          222            0 2.2945916e-13            0          0.1 0.0090065223   0.18067763   0.02988914 
number of iterations: 28653 
    8700    58.338304      228          228            0 2.3402511e-13            0          0.1 0.0090066521   0.18508122  0.029888924 
number of iterations: 28763 
    8800    59.040479      236          236            0 2.3868192e-13            0          0.1 0.0090067844   0.18957243  0.029888704 
number of iterations: 28868 
    8900    59.768485      242          242            0 2.4343139e-13            0          0.1 0.0090069194   0.19415302  0.029888479 
number of iterations: 28970 
    9000    60.468568      245          245            0 2.4827537e-13            0          0.1 0.0090070571   0.19882475   0.02988825 
number of iterations: 29082 
    9100     61.16608      246          246            0 2.5321574e-13            0          0.1 0.0090071976   0.20358945  0.029888016 
number of iterations: 29186 
    9200    61.859953      249          249            0 2.5825441e-13            0          0.1 0.0090073408   0.20844896  0.029887777 
number of iterations: 29605 
    9300    62.578393      260          260            0 2.6339335e-13            0          0.1 0.0090074947   0.21340516  0.029887521 
number of iterations: 29291 
    9400    63.292974      267          267            0 2.6863455e-13            0          0.1 0.0090076415   0.21845999  0.029887277 
number of iterations: 29612 
    9500    64.031395      272          272            0 2.7398004e-13            0          0.1 0.0090077959   0.22361541   0.02988702 
number of iterations: 29616 
    9600    64.797246      279          279            0 2.7943189e-13            0          0.1 0.0090079511    0.2288734  0.029886761 
number of iterations: 29719 
    9700    65.521527      284          284            0 2.8499224e-13            0          0.1 0.0090081093   0.23423602  0.029886498 
number of iterations: 29823 
    9800    66.243714      288          288            0 2.9066322e-13            0          0.1 0.0090082706   0.23970533  0.029886229 
number of iterations: 30015 
    9900    66.988568      292          292            0 2.9644705e-13            0          0.1 0.0090084372   0.24528348  0.029885952 
number of iterations: 30037 
   10000    67.806337      296          296            0 3.0234597e-13            0          0.1 0.0090086051   0.25097262  0.029885672 
Loop time of 67.8064 on 8 procs for 10000 steps with 296 atoms

Performance: 127421629.425 tau/day, 147.479 timesteps/s
87.0% CPU use with 8 MPI tasks x no OpenMP threads

MPI task timing breakdown:
Section |  min time  |  avg time  |  max time  |%varavg| %total
---------------------------------------------------------------
Pair    | 0.0087037  | 0.011275   | 0.014485   |   1.7 |  0.02
Neigh   | 0.0074535  | 0.0086208  | 0.010207   |   1.1 |  0.01
Comm    | 0.024985   | 0.041707   | 0.049465   |   3.4 |  0.06
Output  | 13.097     | 13.098     | 13.1       |   0.0 | 19.32
Modify  | 54.577     | 54.58      | 54.582     |   0.0 | 80.49
Other   |            | 0.06768    |            |       |  0.10

Nlocal:    37 ave 72 max 9 min
Histogram: 1 0 3 0 1 0 2 0 0 1
Nghost:    5.75 ave 13 max 0 min
Histogram: 1 0 2 1 2 0 0 1 0 1
Neighs:    45.25 ave 88 max 9 min
Histogram: 1 0 2 1 1 1 0 1 0 1

Total # of neighbors = 362
Ave neighs/atom = 1.22297
Neighbor list builds = 114
Dangerous builds = 0
Total wall time: 0:01:08
