LAMMPS (20 Nov 2019)
Reading data file ...
  orthogonal box = (0 0 0) to (0.0001 0.0001 1e-05)
  8 by 4 by 1 MPI processor grid
  reading atoms ...
  100 atoms
  4 nutrients
Lattice spacing in x,y,z = 100 100 100
50 atoms in group CYANO
50 atoms in group ECW
Model is defined as a closed system. 
Neighbor list info ...
  update every 1 steps, delay 0 steps, check yes
  max neighbors/atom: 5000, page size: 100000
  master list distance cutoff = 2.41e-06
  ghost atom cutoff = 2.41e-06
  binsize = 1.205e-06, bins = 83 83 9
  1 neighbor lists, perpetual/occasional/extra = 1 0 0
  (1) pair gran/hooke/history, perpetual
      attributes: half, newton off, size, history
      pair build: half/size/bin/newtoff
      stencil: half/bin/3d/newtoff
      bin: standard
Setting up Verlet run ...
  Unit style    : lj
  Current step  : 0
  Time step     : 10
Per MPI rank memory allocation (min/avg/max) = 6.792 | 10.82 | 12.11 Mbytes
Step CPU Atoms c_myNtypes[1] c_myNtypes[2] c_myMass[1] c_myMass[2] c_myCon[1] c_myCon[2] c_myCon[3] c_myCon[4] 
       0            0      100           50           50 4.3873779e-14 8.8632295e-15          0.1        0.009     3.42e-20       0.0299 
number of iterations: 326191 
     100    15.826027      134           50           84 4.4455203e-14 8.8559608e-15          0.1 0.0090007835  0.035257379  0.029898695 
number of iterations: 5268 
     200    16.200269      145           50           95 4.5044333e-14 8.8489908e-15          0.1 0.0090007939  0.069866455  0.029898678 
number of iterations: 3574 
     300    16.520417      145           50           95 4.5641271e-14 8.8423244e-15          0.1 0.0090008044   0.10492239   0.02989866 
number of iterations: 2805 
     400    16.782664      145           50           95 4.6246119e-14 8.8359578e-15          0.1 0.0090008151   0.14043426  0.029898642 
number of iterations: 2338 
     500    17.047028      145           50           95 4.6858982e-14 8.8298881e-15          0.1 0.0090008258   0.17640922  0.029898624 
number of iterations: 2016 
     600    17.262742      145           50           95 4.7479968e-14 8.8241126e-15          0.1 0.0090008368   0.21285403  0.029898606 
number of iterations: 1780 
     700     17.49253      147           52           95 4.8109182e-14 8.8186288e-15          0.1 0.0090008548   0.24977533  0.029898576 
number of iterations: 1598 
     800    17.709135      147           52           95 4.8746736e-14 8.813434e-15          0.1 0.0090008661   0.28717972  0.029898557 
number of iterations: 1455 
     900    17.916957      147           52           95 4.9392738e-14 8.8085258e-15          0.1 0.0090008776   0.32507385  0.029898538 
number of iterations: 1451 
    1000    18.127678      147           52           95 5.0047301e-14 8.8039018e-15          0.1 0.0090008892   0.36346442  0.029898519 
number of iterations: 1458 
    1100    18.345939      148           53           95 5.0710538e-14 8.7995597e-15          0.1 0.0090009021   0.40235816  0.029898497 
number of iterations: 1569 
    1200     18.57364      151           56           95 5.1382565e-14 8.7954971e-15          0.1 0.0090009027   0.44176208  0.029898496 
number of iterations: 1517 
    1300    18.813786      152           57           95 5.2063498e-14 8.7917121e-15          0.1 0.0090009181   0.48168293  0.029898471 
number of iterations: 1455 
    1400    18.993852      152           57           95 5.2753455e-14 8.7882023e-15          0.1 0.0090009302   0.52212769   0.02989845 
number of iterations: 1458 
    1500    19.200949      152           57           95 5.3452555e-14 8.7849656e-15          0.1 0.0090009426   0.56310343   0.02989843 
number of iterations: 1489 
    1600    19.406268      153           58           95 5.416092e-14 8.7819999e-15          0.1 0.0090009518   0.60461732  0.029898414 
number of iterations: 1558 
    1700    19.601753      154           59           95 5.4878672e-14 8.7793033e-15          0.1 0.0090009657   0.64667638  0.029898391 
number of iterations: 1371 
    1800    19.790652      155           60           95 5.5605936e-14 8.7768737e-15          0.1  0.009000972   0.68928818  0.029898381 
number of iterations: 1468 
    1900    19.973305      155           60           95 5.6342838e-14 8.7747089e-15          0.1 0.0090009849   0.73246014  0.029898359 
number of iterations: 1471 
    2000    20.200002      155           60           95 5.7089505e-14 8.7728068e-15          0.1 0.0090009979   0.77619983  0.029898337 
number of iterations: 1457 
    2100    20.392818      157           62           95 5.7846067e-14 8.7711654e-15          0.1 0.0090010102   0.82051488  0.029898317 
number of iterations: 1476 
    2200    20.595059      157           62           95 5.8612656e-14 8.7697826e-15          0.1 0.0090010236   0.86541303  0.029898295 
number of iterations: 1479 
    2300    20.796361      157           62           95 5.9389403e-14 8.7686566e-15          0.1 0.0090010371   0.91090213  0.029898272 
number of iterations: 1481 
    2400    21.034828      157           62           95 6.0176444e-14 8.7677854e-15          0.1 0.0090010509   0.95699012  0.029898249 
number of iterations: 1495 
    2500    21.224814      159           64           95 6.0973915e-14 8.7671671e-15          0.1 0.0090010671    1.0036851  0.029898222 
number of iterations: 1556 
    2600    21.416826      162           67           95 6.1781955e-14 8.7667998e-15          0.1 0.0090010787    1.0509951  0.029898203 
number of iterations: 1505 
    2700    21.606375      163           68           95 6.2600702e-14 8.7666816e-15          0.1  0.009001093    1.0989284  0.029898179 
number of iterations: 1494 
    2800    21.887249      163           68           95  6.34303e-14 8.7668107e-15          0.1 0.0090011075    1.1474935  0.029898155 
number of iterations: 1496 
    2900    22.079682      163           68           95 6.4270892e-14 8.7671851e-15          0.1 0.0090011222    1.1966988   0.02989813 
number of iterations: 1499 
    3000    22.279987      163           68           95 6.5122623e-14 8.7678032e-15          0.1 0.0090011371    1.2465529  0.029898106 
number of iterations: 1502 
    3100     22.47816      163           68           95 6.5985642e-14 8.768663e-15          0.1 0.0090011521    1.2970645  0.029898081 
number of iterations: 1505 
    3200    22.684167      163           68           95 6.6860098e-14 8.7697629e-15          0.1 0.0090011674    1.3482425  0.029898055 
number of iterations: 1507 
    3300    22.890391      164           69           95 6.7746142e-14 8.7711007e-15          0.1 0.0090011829    1.4000958  0.029898029 
number of iterations: 1415 
    3400    23.087413      165           70           95 6.8643928e-14 8.772675e-15          0.1  0.009001192    1.4526334  0.029898014 
number of iterations: 1510 
    3500    23.284212      165           70           95 6.9553612e-14 8.7744842e-15          0.1 0.0090012078    1.5058646  0.029897988 
number of iterations: 1513 
    3600    23.469398      165           70           95 7.0475351e-14 8.7765263e-15          0.1 0.0090012238    1.5597987  0.029897961 
number of iterations: 1516 
    3700     23.66051      165           70           95 7.1409305e-14 8.7787998e-15          0.1   0.00900124    1.6144451  0.029897934 
number of iterations: 1550 
    3800    23.856513      166           71           95 7.2355637e-14 8.7813031e-15          0.1 0.0090012599    1.6698134  0.029897901 
number of iterations: 1659 
    3900    24.041815      168           73           95 7.3314509e-14 8.7840349e-15          0.1 0.0090012807     1.725913  0.029897866 
number of iterations: 1524 
    4000    24.265284      168           73           95 7.4286088e-14 8.7869933e-15          0.1 0.0090012977    1.7827538  0.029897838 
number of iterations: 1527 
    4100    24.436983      168           73           95 7.5270543e-14 8.7901765e-15          0.1 0.0090013149    1.8403459  0.029897809 
number of iterations: 1591 
    4200    24.657175      169           74           95 7.6268044e-14 8.793583e-15          0.1 0.0090013337    1.8986991  0.029897778 
number of iterations: 1533 
    4300      24.8357      169           74           95 7.7278764e-14 8.7972112e-15          0.1 0.0090013513    1.9578238  0.029897749 
number of iterations: 1521 
    4400    25.026864      169           74           95 7.8302878e-14 8.8010595e-15          0.1 0.0090013693      2.01773  0.029897719 
number of iterations: 1539 
    4500    25.227955      169           74           95 7.9340564e-14 8.8051264e-15          0.1 0.0090013874    2.0784285  0.029897689 
number of iterations: 1535 
    4600    25.411629      171           76           95 8.0392002e-14 8.8094107e-15          0.1 0.0090013993    2.1399298  0.029897669 
number of iterations: 1544 
    4700    25.612671      171           76           95 8.1457373e-14 8.8139108e-15          0.1 0.0090014179    2.2022446  0.029897638 
number of iterations: 1535 
    4800    25.796454      174           79           95 8.2536863e-14 8.8186248e-15          0.1 0.0090014303    2.2653839  0.029897617 
number of iterations: 1462 
    4900    25.976685      175           80           95 8.3630659e-14 8.8235516e-15          0.1  0.009001446    2.3293586  0.029897591 
number of iterations: 1550 
    5000    26.175846      175           80           95 8.473895e-14 8.8286897e-15          0.1 0.0090014652    2.3941799  0.029897559 
number of iterations: 1644 
    5100    26.372309      177           82           95 8.5861928e-14 8.8340377e-15          0.1 0.0090014913    2.4598592  0.029897515 
number of iterations: 1559 
    5200    26.574271      179           84           95 8.6999788e-14 8.8395944e-15          0.1 0.0090015082    2.5264078  0.029897487 
number of iterations: 1733 
    5300    26.778147      182           87           95 8.8152727e-14 8.8453584e-15          0.1 0.0090015375     2.593837  0.029897439 
number of iterations: 1502 
    5400    26.982657      185           90           95 8.9320945e-14 8.8513276e-15          0.1 0.0090015464    2.6621588  0.029897424 
number of iterations: 1565 
    5500    27.166543      185           90           95 9.0504645e-14 8.8575011e-15          0.1 0.0090015669    2.7313854   0.02989739 
number of iterations: 1568 
    5600    27.343285      187           91           96 9.1704031e-14 8.8638776e-15          0.1 0.0090015876    2.8015286  0.029897355 
number of iterations: 1692 
    5700    27.537051      188           92           96 9.2919312e-14 8.8704562e-15          0.1 0.0090016119     2.872601  0.029897315 
number of iterations: 1574 
    5800     27.74205      190           93           97 9.4150697e-14 8.8772351e-15          0.1   0.00900163    2.9446148  0.029897284 
number of iterations: 1625 
    5900    27.928899      193           96           97 9.5398402e-14 8.8842132e-15          0.1 0.0090016507    3.0175825   0.02989725 
number of iterations: 1580 
    6000    28.119739      193           96           97 9.6662641e-14 8.891389e-15          0.1 0.0090016726     3.091517  0.029897213 
number of iterations: 1583 
    6100    28.308752      193           96           97 9.7943634e-14 8.8987613e-15          0.1 0.0090016948     3.166431  0.029897176 
number of iterations: 1501 
    6200    28.483811      196           99           97 9.9241603e-14 8.9063289e-15          0.1 0.0090017148    3.2423378  0.029897143 
number of iterations: 1587 
    6300    28.727544      196           99           97 1.0055677e-13 8.9140904e-15          0.1 0.0090017375    3.3192504  0.029897105 
number of iterations: 1576 
    6400    28.915941      197          100           97 1.0188937e-13 8.9220447e-15          0.1 0.0090017582    3.3971824  0.029897071 
number of iterations: 1513 
    6500    29.110752      199          102           97 1.0323963e-13 8.9301905e-15          0.1 0.0090017772    3.4761473  0.029897039 
number of iterations: 1598 
    6600     29.30599      200          103           97 1.0460778e-13 8.9385266e-15          0.1 0.0090018044    3.5561589  0.029896994 
number of iterations: 1703 
    6700    29.513843      203          106           97 1.0599407e-13 8.9470519e-15          0.1 0.0090018352    3.6372311  0.029896943 
number of iterations: 1601 
    6800    29.694089      204          107           97 1.0739872e-13 8.9557651e-15          0.1 0.0090018596    3.7193782  0.029896902 
number of iterations: 1617 
    6900    29.890293      205          108           97 1.0882199e-13 8.9646652e-15          0.1 0.0090018842    3.8026143  0.029896861 
number of iterations: 1607 
    7000     30.07913      207          110           97 1.1026412e-13 8.9737509e-15          0.1 0.0090019092    3.8869541  0.029896819 
number of iterations: 1527 
    7100    30.280082      208          111           97 1.1172536e-13 8.9830213e-15          0.1 0.0090019288    3.9724123  0.029896787 
number of iterations: 1598 
    7200    30.482178      208          111           97 1.1320597e-13 8.9924749e-15          0.1 0.0090019544    4.0590038  0.029896744 
number of iterations: 1576 
    7300    30.665406      211          114           97 1.147062e-13 9.0021109e-15          0.1 0.0090019798    4.1467436  0.029896702 
number of iterations: 1539 
    7400    30.835703      213          116           97 1.1622631e-13 9.011928e-15          0.1 0.0090019976     4.235647  0.029896672 
number of iterations: 1723 
    7500    31.029148      215          118           97 1.1776656e-13 9.0219253e-15          0.1 0.0090020306    4.3257296  0.029896617 
number of iterations: 1555 
    7600    31.218506      215          118           97 1.1932723e-13 9.0321018e-15          0.1 0.0090020509    4.4170067  0.029896583 
number of iterations: 1622 
    7700     31.41434      215          118           97 1.2090858e-13 9.0424564e-15          0.1 0.0090020781    4.5094946  0.029896538 
number of iterations: 1736 
    7800    31.605106      216          119           97 1.2251088e-13 9.0529881e-15          0.1  0.009002111    4.6032093  0.029896483 
number of iterations: 1639 
    7900    31.824355      221          124           97 1.2413442e-13 9.0636958e-15          0.1 0.0090021326     4.698167  0.029896447 
number of iterations: 1630 
    8000    32.026832      224          127           97 1.2577948e-13 9.0745784e-15          0.1 0.0090021528    4.7943845  0.029896414 
number of iterations: 1627 
    8100    32.266357      226          128           98 1.2744633e-13 9.085635e-15          0.1 0.0090021788    4.8918787   0.02989637 
number of iterations: 1636 
    8200    32.457764      226          128           98 1.2913527e-13 9.0968645e-15          0.1 0.0090022077    4.9906664  0.029896322 
number of iterations: 1660 
    8300    32.641971      228          130           98 1.308466e-13 9.1082661e-15          0.1 0.0090022433    5.0907648  0.029896263 
number of iterations: 1642 
    8400    32.852861      229          131           98 1.3258061e-13 9.1198386e-15          0.1  0.009002273    5.1921914  0.029896213 
number of iterations: 1688 
    8500    33.039413      231          132           99 1.3433759e-13 9.1315813e-15          0.1  0.009002305    5.2949637   0.02989616 
number of iterations: 1774 
    8600    33.243145      231          132           99 1.3611786e-13 9.143493e-15          0.1 0.0090023411    5.3990997    0.0298961 
number of iterations: 1672 
    8700      33.4479      234          134          100 1.3792172e-13 9.1555731e-15          0.1 0.0090023773    5.5046177   0.02989604 
number of iterations: 1710 
    8800    33.637511      236          136          100 1.3974948e-13 9.1678204e-15          0.1 0.0090024094    5.6115359  0.029895986 
number of iterations: 1658 
    8900    33.826501      237          137          100 1.4160147e-13 9.1802342e-15          0.1 0.0090024414    5.7198731  0.029895933 
number of iterations: 1638 
    9000    34.032958      238          138          100  1.43478e-13 9.1928134e-15          0.1 0.0090024723    5.8296482  0.029895881 
number of iterations: 1729 
    9100    34.224703      242          142          100 1.453794e-13 9.2055571e-15          0.1 0.0090025101    5.9408805  0.029895819 
number of iterations: 1749 
    9200     34.42437      245          145          100  1.47306e-13 9.2184644e-15          0.1 0.0090025465    6.0535888  0.029895758 
number of iterations: 1719 
    9300    34.621621      250          150          100 1.4925812e-13 9.2315347e-15          0.1 0.0090025787    6.1677929  0.029895704 
number of iterations: 1735 
    9400    34.820705      253          153          100 1.5123612e-13 9.244767e-15          0.1 0.0090026204    6.2835127  0.029895635 
number of iterations: 1625 
    9500    35.007315      253          153          100 1.5324033e-13 9.2581604e-15          0.1 0.0090026446    6.4007689  0.029895594 
number of iterations: 1597 
    9600    35.188112      256          156          100 1.552711e-13 9.271714e-15          0.1 0.0090026689    6.5195815  0.029895554 
number of iterations: 1689 
    9700    35.388845      257          157          100 1.5732878e-13 9.2854271e-15          0.1 0.0090026893    6.6399712   0.02989552 
number of iterations: 1679 
    9800    35.584307      258          158          100 1.5941374e-13 9.299299e-15          0.1  0.009002725    6.7619589  0.029895461 
number of iterations: 1651 
    9900    35.798286      261          161          100 1.6152632e-13 9.3133287e-15          0.1 0.0090027582    6.8855659  0.029895405 
number of iterations: 1689 
   10000    35.997701      262          161          101 1.6366689e-13 9.3275155e-15          0.1 0.0090027947    7.0108138  0.029895344 
number of iterations: 1752 
   10100    36.213204      263          162          101 1.6583584e-13 9.3418586e-15          0.1 0.0090028361    7.1377244  0.029895276 
number of iterations: 1696 
   10200    36.403839      267          166          101 1.6803353e-13 9.3563572e-15          0.1 0.0090028737    7.2663197  0.029895213 
number of iterations: 1740 
   10300    36.596245      269          168          101 1.7026034e-13 9.3710107e-15          0.1 0.0090029182    7.3966222  0.029895139 
number of iterations: 1714 
   10400     36.78062      269          168          101 1.7251666e-13 9.3858184e-15          0.1 0.0090029569    7.5286543  0.029895074 
number of iterations: 1662 
   10500    36.965674      272          171          101 1.7480289e-13 9.4007794e-15          0.1 0.0090029829    7.6624391  0.029895031 
number of iterations: 1707 
   10600    37.143945      276          174          102 1.7711941e-13 9.4158929e-15          0.1 0.0090030212    7.7979998  0.029894967 
number of iterations: 1709 
   10700    37.354565      277          174          103 1.7946663e-13 9.4311581e-15          0.1 0.0090030613    7.9353602  0.029894901 
number of iterations: 1752 
   10800    37.566087      280          177          103 1.8184495e-13 9.4465745e-15          0.1 0.0090031096     8.074544   0.02989482 
number of iterations: 1678 
   10900     37.75476      281          178          103 1.8425479e-13 9.4621413e-15          0.1  0.009003147    8.2155756  0.029894758 
number of iterations: 1736 
   11000     37.95304      284          181          103 1.8669657e-13 9.4778577e-15          0.1 0.0090031854    8.3584797  0.029894694 
number of iterations: 1806 
   11100    38.192335      287          184          103 1.8917071e-13 9.4937231e-15          0.1 0.0090032343    8.5032811  0.029894612 
number of iterations: 1743 
   11200    38.397656      288          185          103 1.9167764e-13 9.5097369e-15          0.1 0.0090032817    8.6500052  0.029894533 
number of iterations: 1693 
   11300    38.613319      293          190          103 1.9421778e-13 9.5258987e-15          0.1 0.0090033201    8.7986773  0.029894469 
number of iterations: 1731 
   11400    38.835706      297          194          103 1.9679159e-13 9.5422074e-15          0.1 0.0090033595    8.9493235  0.029894404 
number of iterations: 1741 
   11500    39.039639      299          196          103 1.9939951e-13 9.5586626e-15          0.1 0.0090034054    9.1019696  0.029894327 
number of iterations: 1818 
   11600    39.236509      302          199          103 2.0204199e-13 9.5752636e-15          0.1 0.0090034676    9.2566422  0.029894224 
number of iterations: 1786 
   11700    39.449619      308          205          103 2.0471949e-13 9.5920098e-15          0.1 0.0090035128    9.4133685  0.029894149 
number of iterations: 1719 
   11800    39.632879      308          205          103 2.0743247e-13 9.6089004e-15          0.1 0.0090035538    9.5721755   0.02989408 
number of iterations: 1709 
   11900    39.826299      312          209          103 2.101814e-13 9.6259349e-15          0.1 0.0090035992    9.7330913  0.029894005 
number of iterations: 1635 
   12000    40.014705      316          213          103 2.1296677e-13 9.6431127e-15          0.1 0.0090036327    9.8961439  0.029893949 
number of iterations: 1742 
   12100    40.231822      318          215          103 2.1578904e-13 9.6604331e-15          0.1  0.009003683    10.061361  0.029893865 
number of iterations: 1746 
   12200    40.432004      321          218          103 2.1864872e-13 9.6778956e-15          0.1 0.0090037319    10.228773  0.029893784 
number of iterations: 1806 
   12300    40.638575      326          223          103 2.2154629e-13 9.6954996e-15          0.1 0.0090037921    10.398406  0.029893683 
number of iterations: 1801 
   12400     40.83242      328          225          103 2.2448226e-13 9.7132445e-15          0.1 0.0090038481    10.570292   0.02989359 
number of iterations: 1702 
   12500    41.036189      329          226          103 2.2745714e-13 9.7311297e-15          0.1 0.0090038948     10.74446  0.029893512 
number of iterations: 1759 
   12600      41.2293      332          229          103 2.3047145e-13 9.7491548e-15          0.1 0.0090039427    10.920941  0.029893433 
number of iterations: 1815 
   12700    41.416523      335          231          104 2.335257e-13 9.7673191e-15          0.1 0.0090039974    11.099766  0.029893342 
number of iterations: 1711 
   12800    41.608126      339          234          105 2.3662042e-13 9.7856222e-15          0.1 0.0090040439    11.280965  0.029893264 
number of iterations: 1786 
   12900     41.85021      344          238          106 2.3975616e-13 9.8040635e-15          0.1 0.0090040973     11.46457  0.029893175 
number of iterations: 1786 
   13000     42.06701      348          241          107 2.4293345e-13 9.8226426e-15          0.1 0.0090041568    11.650612  0.029893076 
number of iterations: 1779 
   13100    42.283988      351          244          107 2.4615285e-13 9.8413588e-15          0.1 0.0090042092    11.839125  0.029892989 
number of iterations: 1778 
   13200    42.470023      351          244          107 2.4941491e-13 9.8602117e-15          0.1  0.009004265    12.030141  0.029892896 
number of iterations: 1781 
   13300    42.659326      354          247          107 2.527202e-13 9.8792008e-15          0.1 0.0090043251    12.223692  0.029892796 
number of iterations: 1809 
   13400    42.872872      362          255          107 2.5606929e-13 9.8983254e-15          0.1 0.0090043829    12.419814    0.0298927 
number of iterations: 1804 
   13500     43.07473      363          256          107 2.5946277e-13 9.9175852e-15          0.1 0.0090044438    12.618539  0.029892598 
number of iterations: 1789 
   13600    43.275623      363          256          107 2.6290121e-13 9.9369797e-15          0.1 0.0090045027    12.819904    0.0298925 
number of iterations: 1814 
   13700    43.488155      366          259          107 2.6638523e-13 9.9565085e-15          0.1 0.0090045631    13.023941  0.029892399 
number of iterations: 1790 
   13800    43.693823      368          261          107 2.6991541e-13 9.976171e-15          0.1 0.0090046279    13.230688  0.029892292 
number of iterations: 1801 
   13900    43.902964      370          263          107 2.7349238e-13 9.9959669e-15          0.1  0.009004684     13.44018  0.029892198 
number of iterations: 1859 
   14000    44.109671      379          271          108 2.7711675e-13 1.0015896e-14          0.1 0.0090047555    13.652453  0.029892079 
number of iterations: 1761 
   14100    44.322665      383          275          108 2.8078914e-13 1.0035957e-14          0.1 0.0090048077    13.867545  0.029891992 
number of iterations: 1828 
   14200    44.518512      384          276          108 2.8451021e-13 1.005615e-14          0.1 0.0090048731    14.085492  0.029891883 
number of iterations: 1812 
   14300    44.734102      386          278          108 2.8828059e-13 1.0076475e-14          0.1 0.0090049418    14.306333  0.029891769 
number of iterations: 1797 
   14400     44.94811      391          283          108 2.9210093e-13 1.009693e-14          0.1 0.0090049955    14.530105  0.029891679 
number of iterations: 1750 
   14500    45.139122      394          286          108 2.959719e-13 1.0117517e-14          0.1 0.0090050478    14.756849  0.029891592 
number of iterations: 1795 
   14600    45.326784      400          292          108 2.9989417e-13 1.0138233e-14          0.1 0.0090051102    14.986603  0.029891488 
number of iterations: 1778 
   14700    45.525809      404          296          108 3.0386842e-13 1.015908e-14          0.1 0.0090051604    15.219407  0.029891405 
number of iterations: 1835 
   14800    45.746883      410          302          108 3.0789534e-13 1.0180056e-14          0.1 0.0090052457    15.455302  0.029891263 
number of iterations: 1841 
   14900    45.949849      412          304          108 3.1197562e-13 1.0201161e-14          0.1 0.0090053027    15.694329  0.029891168 
number of iterations: 1838 
   15000    46.154195      416          308          108 3.1610997e-13 1.0222395e-14          0.1 0.0090053771    15.936529  0.029891044 
number of iterations: 1832 
   15100    46.389253      422          314          108 3.2029912e-13 1.0243758e-14          0.1 0.0090054418    16.181944  0.029890936 
number of iterations: 1791 
   15200     46.58384      428          318          110 3.2454377e-13 1.0265248e-14          0.1 0.0090055029    16.430618  0.029890834 
number of iterations: 1845 
   15300    46.776394      435          325          110 3.2884468e-13 1.0286866e-14          0.1 0.0090055784    16.682592  0.029890709 
number of iterations: 1859 
   15400    46.966144      439          327          112 3.3320259e-13 1.0308611e-14          0.1 0.0090056519    16.937912  0.029890586 
number of iterations: 1861 
   15500    47.169866      445          332          113 3.3761824e-13 1.0330483e-14          0.1 0.0090057278    17.196622   0.02989046 
number of iterations: 1819 
   15600    47.363832      451          338          113 3.4209242e-13 1.0352482e-14          0.1 0.0090058015    17.458767  0.029890337 
number of iterations: 1862 
   15700    47.566062      456          343          113 3.4662588e-13 1.0374607e-14          0.1 0.0090058796    17.724391  0.029890207 
number of iterations: 1880 
   15800    47.799176      461          348          113 3.5121942e-13 1.0396858e-14          0.1 0.0090059563    17.993542  0.029890079 
number of iterations: 1836 
   15900    48.010953      465          352          113 3.5587384e-13 1.0419235e-14          0.1 0.0090060317    18.266266  0.029889954 
number of iterations: 1893 
   16000    48.245419      467          354          113 3.6058994e-13 1.0441736e-14          0.1 0.0090061251     18.54261  0.029889798 
number of iterations: 1867 
   16100    48.469025      472          359          113 3.6536854e-13 1.0464363e-14          0.1 0.0090062048    18.822623  0.029889666 
number of iterations: 1842 
   16200    48.719006      477          363          114 3.7021046e-13 1.0487115e-14          0.1 0.0090062859    19.106352  0.029889531 
number of iterations: 1891 
   16300    48.929667      483          368          115 3.7511655e-13 1.0509991e-14          0.1 0.0090063751    19.393848  0.029889382 
number of iterations: 1866 
   16400    49.142095      485          370          115 3.8008765e-13 1.053299e-14          0.1 0.0090064611    19.685161  0.029889239 
number of iterations: 1903 
   16500    49.343508      492          377          115 3.8512463e-13 1.0556114e-14          0.1  0.009006544     19.98034  0.029889101 
number of iterations: 1886 
   16600    49.539009      498          383          115 3.9022837e-13 1.0579361e-14          0.1 0.0090066386    20.279438  0.029888943 
number of iterations: 1861 
   16700    49.753308      502          387          115 3.9539973e-13 1.0602731e-14          0.1 0.0090067191    20.582505  0.029888809 
number of iterations: 1779 
   16800     49.94269      510          395          115 4.0063963e-13 1.0626225e-14          0.1  0.009006776    20.889595  0.029888714 
number of iterations: 1906 
   16900    50.149182      518          402          116 4.0594897e-13 1.064984e-14          0.1 0.0090068734    21.200762  0.029888552 
number of iterations: 1878 
   17000    50.359124      526          410          116 4.1132867e-13 1.0673579e-14          0.1 0.0090069704     21.51606  0.029888391 
number of iterations: 1888 
   17100    50.598862      533          417          116 4.1677966e-13 1.0697439e-14          0.1 0.0090070527    21.835542  0.029888254 
number of iterations: 1887 
   17200    50.792263      540          424          116 4.2230289e-13 1.0721421e-14          0.1 0.0090071537    22.159264  0.029888085 
number of iterations: 1915 
   17300    51.002237      543          427          116 4.2789931e-13 1.0745525e-14          0.1 0.0090072502    22.487284  0.029887925 
number of iterations: 1898 
   17400    51.209879      551          434          117 4.335699e-13 1.076975e-14          0.1 0.0090073574    22.819656  0.029887746 
number of iterations: 1937 
   17500    51.407227      554          437          117 4.3931564e-13 1.0794097e-14          0.1 0.0090074671    23.156441  0.029887564 
number of iterations: 1914 
   17600    51.608452      558          441          117 4.4513751e-13 1.0818564e-14          0.1 0.0090075609    23.497695  0.029887407 
number of iterations: 1941 
   17700    51.915791      563          446          117 4.5103654e-13 1.0843152e-14          0.1 0.0090076659    23.843479  0.029887233 
number of iterations: 1813 
   17800    52.143434      570          453          117 4.5701375e-13 1.0867861e-14          0.1 0.0090077371    24.193853  0.029887114 
number of iterations: 1912 
   17900    52.372952      576          459          117 4.6307016e-13 1.089269e-14          0.1   0.00900785    24.548876  0.029886926 
number of iterations: 1942 
   18000    52.581242      583          466          117 4.6920683e-13 1.0917639e-14          0.1 0.0090079628    24.908612  0.029886738 
number of iterations: 1898 
   18100    52.823308      589          472          117 4.7542483e-13 1.0942708e-14          0.1 0.0090080515    25.273122   0.02988659 
number of iterations: 1901 
   18200    53.037224      596          479          117 4.8172523e-13 1.0967896e-14          0.1 0.0090081583     25.64247  0.029886413 
number of iterations: 1898 
   18300    53.229761      602          484          118 4.8810912e-13 1.0993204e-14          0.1 0.0090082677    26.016721  0.029886231 
number of iterations: 1912 
   18400      53.4553      612          493          119 4.9457762e-13 1.1018631e-14          0.1 0.0090083758    26.395938   0.02988605 
number of iterations: 1912 
   18500    53.671148      617          497          120 5.0113183e-13 1.1044178e-14          0.1 0.0090084774    26.780189  0.029885881 
number of iterations: 1913 
   18600    53.873164      624          503          121 5.077729e-13 1.1069843e-14          0.1  0.009008597    27.169539  0.029885682 
number of iterations: 1925 
   18700    54.089407      632          511          121 5.1450198e-13 1.1095627e-14          0.1 0.0090087011    27.564057  0.029885509 
number of iterations: 1930 
   18800    54.300422      635          514          121 5.2132023e-13 1.1121529e-14          0.1 0.0090088192    27.963811  0.029885312 
number of iterations: 1937 
   18900    54.504409      642          521          121 5.2822884e-13 1.114755e-14          0.1 0.0090089309    28.368869  0.029885126 
number of iterations: 1928 
   19000    54.769752      646          525          121 5.3522901e-13 1.1173689e-14          0.1 0.0090090607    28.779303   0.02988491 
number of iterations: 1999 
   19100    54.983894      654          533          121 5.4232193e-13 1.1199946e-14          0.1 0.0090092013    29.195185  0.029884676 
number of iterations: 1903 
   19200     55.17568      665          544          121 5.4950886e-13 1.1226321e-14          0.1 0.0090093082    29.616585  0.029884498 
number of iterations: 1953 
   19300    55.393098      669          548          121 5.5679103e-13 1.1252814e-14          0.1 0.0090094375    30.043578  0.029884282 
number of iterations: 1928 
   19400    55.592509      678          557          121 5.641697e-13 1.1279424e-14          0.1 0.0090095527    30.476237  0.029884091 
number of iterations: 1946 
   19500    55.864859      685          563          122 5.7164615e-13 1.1306152e-14          0.1 0.0090096702    30.914638  0.029883895 
number of iterations: 1920 
   19600    56.101119      693          570          123 5.7922168e-13 1.1332998e-14          0.1 0.0090097926    31.358857  0.029883691 
number of iterations: 1971 
   19700    56.328509      701          577          124 5.868976e-13 1.135996e-14          0.1  0.009009933     31.80897  0.029883457 
number of iterations: 1938 
   19800    56.546032      710          586          124 5.9467525e-13 1.138704e-14          0.1 0.0090100464    32.265056  0.029883269 
number of iterations: 1956 
   19900    56.762692      714          590          124 6.0255596e-13 1.1414236e-14          0.1 0.0090101816    32.727194  0.029883043 
number of iterations: 1965 
   20000    56.996513      718          594          124 6.1054111e-13 1.144155e-14          0.1   0.00901031    33.195464   0.02988283 
number of iterations: 2002 
   20100     57.21345      726          602          124 6.1863208e-13 1.146898e-14          0.1 0.0090104571    33.669947  0.029882585 
number of iterations: 1981 
   20200    57.406814      732          608          124 6.2683027e-13 1.1496527e-14          0.1 0.0090105979    34.150727   0.02988235 
number of iterations: 1993 
   20300    57.642508      737          613          124 6.351371e-13 1.152419e-14          0.1 0.0090107389    34.637886  0.029882115 
number of iterations: 1999 
   20400    57.867671      749          625          124 6.4355402e-13 1.1551969e-14          0.1 0.0090108767     35.13151  0.029881886 
number of iterations: 1964 
   20500    58.112913      760          635          125 6.5208248e-13 1.1579865e-14          0.1 0.0090110109    35.631682  0.029881662 
number of iterations: 1986 
   20600    58.319653      771          646          125 6.6072395e-13 1.1607878e-14          0.1 0.0090111736    36.138491  0.029881392 
number of iterations: 2024 
   20700    58.567448      780          654          126 6.6947995e-13 1.1636006e-14          0.1  0.009011331    36.652025   0.02988113 
number of iterations: 1965 
   20800    58.815093      787          660          127 6.7835198e-13 1.166425e-14          0.1 0.0090114709    37.172371  0.029880896 
number of iterations: 2009 
   20900     59.04477      801          674          127 6.8734158e-13 1.169261e-14          0.1 0.0090116273    37.699622  0.029880636 
number of iterations: 1973 
   21000    59.278792      814          687          127 6.9645031e-13 1.1721087e-14          0.1 0.0090117694    38.233869  0.029880399 
number of iterations: 2023 
   21100    59.498449      827          700          127 7.0567975e-13 1.1749679e-14          0.1 0.0090119422    38.775204  0.029880112 
number of iterations: 1959 
   21200    59.712976      835          708          127 7.1503151e-13 1.1778386e-14          0.1 0.0090120997    39.323722  0.029879849 
number of iterations: 2030 
   21300    59.934165      853          726          127 7.2450719e-13 1.180721e-14          0.1 0.0090122759    39.879518  0.029879556 
number of iterations: 2003 
   21400    60.160587      861          734          127 7.3410844e-13 1.1836149e-14          0.1  0.009012438    40.442687  0.029879286 
number of iterations: 2029 
   21500    60.363946      869          742          127 7.4383693e-13 1.1865203e-14          0.1   0.00901262    41.013328  0.029878983 
number of iterations: 1973 
   21600    60.568003      879          752          127 7.5369434e-13 1.1894373e-14          0.1 0.0090127713    41.591541  0.029878731 
number of iterations: 2019 
   21700    60.781015      886          759          127 7.6368238e-13 1.1923659e-14          0.1  0.009012944    42.177425  0.029878444 
number of iterations: 1981 
   21800    60.991916      897          770          127 7.7380278e-13 1.195306e-14          0.1 0.0090131021    42.771084   0.02987818 
number of iterations: 2009 
   21900     61.21458      906          779          127 7.840573e-13 1.1982576e-14          0.1  0.009013276     43.37262  0.029877891 
number of iterations: 2037 
   22000    61.438422      917          790          127 7.9444771e-13 1.2012208e-14          0.1 0.0090134456    43.982135  0.029877608 
number of iterations: 2026 
   22100    61.656924      927          800          127 8.0497582e-13 1.2041955e-14          0.1 0.0090136402    44.599737  0.029877284 
number of iterations: 2010 
   22200    61.897114      935          808          127 8.1564344e-13 1.2071817e-14          0.1 0.0090137985    45.225534  0.029877021 
number of iterations: 2055 
   22300    62.105642      948          820          128 8.2645243e-13 1.2101794e-14          0.1 0.0090140197    45.859633  0.029876652 
number of iterations: 1993 
   22400    62.324818      961          832          129 8.3740467e-13 1.2131887e-14          0.1 0.0090141996    46.502145  0.029876353 
number of iterations: 2005 
   22500    62.558268      970          841          129 8.4850204e-13 1.2162095e-14          0.1 0.0090143762    47.153181  0.029876059 
number of iterations: 2021 
   22600    62.807537      978          849          129 8.5974647e-13 1.2192418e-14          0.1 0.0090145583    47.812853  0.029875755 
number of iterations: 2033 
   22700    63.036935      986          857          129 8.7113992e-13 1.2222856e-14          0.1  0.009014749    48.481276  0.029875438 
number of iterations: 2040 
   22800    63.266597      998          869          129 8.8268435e-13 1.2253409e-14          0.1 0.0090149341    49.158567   0.02987513 
number of iterations: 2039 
   22900    63.495658     1005          876          129 8.9438176e-13 1.2284077e-14          0.1 0.0090151208    49.844843  0.029874819 
number of iterations: 2062 
   23000    63.735327     1013          883          130 9.0623419e-13 1.2314861e-14          0.1 0.0090153345    50.540222  0.029874463 
number of iterations: 2094 
   23100    63.986908     1028          898          130 9.1824369e-13 1.234576e-14          0.1 0.0090155613    51.244827  0.029874085 
number of iterations: 2059 
   23200    64.195364     1040          910          130 9.3041234e-13 1.2376773e-14          0.1 0.0090157569    51.958777   0.02987376 
number of iterations: 2023 
   23300    64.423662     1050          920          130 9.4274225e-13 1.2407902e-14          0.1 0.0090159589    52.682199  0.029873423 
number of iterations: 2053 
   23400    64.666116     1067          936          131 9.5523555e-13 1.2439146e-14          0.1 0.0090161452     53.41522  0.029873113 
number of iterations: 2085 
   23500       64.887     1088          956          132 9.6789441e-13 1.2470505e-14          0.1 0.0090163879    54.157965  0.029872709 
number of iterations: 2040 
   23600     65.11216     1102          970          132 9.8072103e-13 1.2501979e-14          0.1 0.0090165753    54.910563  0.029872397 
number of iterations: 2051 
   23700    65.325119     1120          987          133 9.9371763e-13 1.2533569e-14          0.1 0.0090167862    55.673145  0.029872046 
number of iterations: 2042 
   23800    65.564126     1133          999          134 1.0068865e-12 1.2565273e-14          0.1 0.0090170018    56.445846  0.029871687 
number of iterations: 2084 
   23900    65.804379     1142         1008          134 1.0202298e-12 1.2597093e-14          0.1 0.0090172381    57.228797  0.029871293 
number of iterations: 2040 
   24000    66.023069     1152         1017          135  1.03375e-12 1.2629028e-14          0.1 0.0090174521    58.022133  0.029870937 
number of iterations: 2091 
   24100    66.254743     1166         1031          135 1.0474493e-12 1.2661078e-14          0.1 0.0090176877    58.825993  0.029870545 
number of iterations: 2055 
   24200    66.487614     1175         1040          135 1.0613302e-12 1.2693243e-14          0.1 0.0090179094    59.640516  0.029870175 
number of iterations: 2080 
   24300    66.702841     1188         1052          136 1.075395e-12 1.2725524e-14          0.1 0.0090181471    60.465845   0.02986978 
number of iterations: 2027 
   24400    66.921009     1201         1065          136 1.0896462e-12 1.275792e-14          0.1 0.0090183415     61.30212  0.029869456 
number of iterations: 2104 
   24500    67.144322     1225         1089          136 1.1040863e-12 1.2790432e-14          0.1 0.0090185807    62.149487  0.029869058 
number of iterations: 2119 
   24600     67.37353     1240         1103          137 1.1187177e-12 1.2823058e-14          0.1 0.0090188476    63.008092  0.029868613 
number of iterations: 2065 
   24700    67.677776     1261         1124          137 1.1335431e-12 1.2855801e-14          0.1 0.0090190986    63.878086  0.029868195 
number of iterations: 2113 
   24800    67.912237     1273         1136          137 1.1485648e-12 1.2888659e-14          0.1 0.0090193432     64.75962  0.029867788 
number of iterations: 2082 
   24900    68.146997     1284         1147          137 1.1637857e-12 1.2921633e-14          0.1 0.0090195792    65.652846  0.029867395 
number of iterations: 2121 
   25000    68.363916     1296         1159          137 1.1792083e-12 1.2954722e-14          0.1 0.0090198509    66.557918  0.029866943 
number of iterations: 2126 
   25100    68.663032     1311         1173          138 1.1948352e-12 1.2987927e-14          0.1 0.0090201328    67.474995  0.029866473 
number of iterations: 2108 
   25200    68.904609     1324         1186          138 1.2106692e-12 1.3021248e-14          0.1 0.0090204084    68.404234  0.029866014 
number of iterations: 2117 
   25300    69.120693     1340         1202          138 1.2267131e-12 1.3054685e-14          0.1 0.0090206783    69.345797  0.029865565 
number of iterations: 2134 
   25400    69.336544     1356         1218          138 1.2429696e-12 1.3088238e-14          0.1 0.0090209665    70.299849  0.029865085 
number of iterations: 2117 
   25500    69.583068     1369         1231          138 1.2594415e-12 1.3121906e-14          0.1 0.0090212243    71.266552  0.029864656 
number of iterations: 2147 
   25600    69.804466     1389         1249          140 1.2761317e-12 1.3155691e-14          0.1 0.0090215261    72.246075  0.029864153 
number of iterations: 2095 
   25700    70.017838     1410         1269          141 1.293043e-12 1.3189592e-14          0.1 0.0090217948    73.238587  0.029863706 
number of iterations: 2109 
   25800    70.241863     1428         1287          141 1.3089712e-12 1.3223609e-14          0.1 0.0090220671     74.24334  0.029863252 
number of iterations: 2143 
   25900    70.476374     1448         1307          141 1.3263177e-12 1.3257743e-14          0.1  0.009022366     75.26142  0.029862755 
number of iterations: 2121 
   26000    70.708662     1471         1329          142 1.3438941e-12 1.3291992e-14          0.1 0.0090226666       76.293  0.029862254 
number of iterations: 2143 
   26100    70.934765     1486         1344          142 1.3617035e-12 1.3326359e-14          0.1 0.0090229551    77.338264  0.029861774 
number of iterations: 2126 
   26200    71.191273     1500         1358          142 1.3797488e-12 1.3360841e-14          0.1 0.0090232558    78.397389  0.029861273 
number of iterations: 2146 
   26300    71.419053     1520         1378          142 1.3980333e-12 1.3395441e-14          0.1 0.0090235685    79.470559  0.029860752 
number of iterations: 2125 
   26400       71.635     1542         1400          142 1.4165601e-12 1.3430157e-14          0.1 0.0090238657    80.557964  0.029860257 
number of iterations: 2164 
   26500    71.880539     1562         1420          142 1.4353324e-12 1.346499e-14          0.1 0.0090242111    81.659789  0.029859682 
number of iterations: 2154 
   26600    72.135327     1588         1445          143 1.4543535e-12 1.349994e-14          0.1 0.0090245169    82.776225  0.029859173 
number of iterations: 2174 
   26700    72.353766     1607         1464          143 1.4736266e-12 1.3535007e-14          0.1 0.0090248753    83.907465  0.029858576 
number of iterations: 2092 
   26800    72.571225     1623         1480          143 1.4919187e-12 1.3570191e-14          0.1 0.0090251543    85.052764  0.029858112 
number of iterations: 2140 
   26900    72.810859     1652         1509          143 1.5116897e-12 1.3605492e-14          0.1 0.0090254673    86.213251   0.02985759 
number of iterations: 2193 
   27000    73.066766     1668         1523          145 1.5317226e-12 1.3640911e-14          0.1 0.0090258512    87.389124  0.029856951 
number of iterations: 2128 
   27100    73.295222     1691         1544          147 1.552021e-12 1.3676447e-14          0.1 0.0090261663    88.580593  0.029856427 
number of iterations: 2181 
   27200    73.570829     1709         1562          147 1.5725884e-12 1.3712101e-14          0.1 0.0090265357    89.787863  0.029855811 
number of iterations: 2153 
   27300    73.810334     1728         1581          147 1.5934284e-12 1.3747872e-14          0.1 0.0090268785    91.011144  0.029855241 
number of iterations: 2147 
   27400    74.023539     1747         1599          148 1.6145446e-12 1.3783762e-14          0.1 0.0090272015    92.250649  0.029854703 
number of iterations: 2187 
   27500    74.266683     1764         1616          148 1.6359405e-12 1.3819769e-14          0.1 0.0090275632    93.506591  0.029854101 
number of iterations: 2185 
   27600    74.510751     1782         1634          148  1.65762e-12 1.3855894e-14          0.1 0.0090279374    94.779186  0.029853477 
number of iterations: 2188 
   27700    74.742693     1804         1656          148 1.6795868e-12 1.3892138e-14          0.1 0.0090283301    96.068659  0.029852824 
number of iterations: 2131 
   27800    74.979607     1826         1678          148 1.7018447e-12  1.39285e-14          0.1 0.0090286525     97.37523  0.029852287 
number of iterations: 2204 
   27900    75.219196     1841         1693          148 1.7243976e-12 1.396498e-14          0.1  0.009029069     98.69913  0.029851593 
number of iterations: 2182 
   28000    75.450266     1856         1708          148 1.7472493e-12 1.4001579e-14          0.1 0.0090294478    100.04058  0.029850962 
number of iterations: 2180 
   28100    75.697566     1877         1729          148 1.7704039e-12 1.4038297e-14          0.1 0.0090298294    101.39982  0.029850327 
number of iterations: 2151 
   28200    75.937121     1902         1753          149 1.7938652e-12 1.4075134e-14          0.1 0.0090301937    102.77709   0.02984972 
number of iterations: 2196 
   28300    76.193084     1924         1775          149 1.8176375e-12 1.4112089e-14          0.1 0.0090305817    104.17262  0.029849074 
number of iterations: 2204 
   28400    76.422175     1943         1794          149 1.8417249e-12 1.4149164e-14          0.1 0.0090310011    105.58665  0.029848376 
number of iterations: 2145 
   28500    76.653408     1965         1816          149 1.8650334e-12 1.4186358e-14          0.1 0.0090313803     107.0186  0.029847745 
number of iterations: 2215 
   28600    76.904019     1985         1835          150 1.8897488e-12 1.4223672e-14          0.1 0.0090318278    108.46953  0.029846999 
number of iterations: 2157 
   28700    77.134995     2013         1863          150 1.9147917e-12 1.4261105e-14          0.1 0.0090322055     109.9397  0.029846371 
number of iterations: 2216 
   28800    77.395317     2045         1895          150 1.9390379e-12 1.4298658e-14          0.1 0.0090326138    111.42851  0.029845691 
number of iterations: 2207 
   28900    77.639414     2076         1926          150 1.964734e-12 1.4336331e-14          0.1 0.0090330464    112.93707   0.02984497 
number of iterations: 2220 
   29000    77.886354     2107         1956          151 1.9907706e-12 1.4374124e-14          0.1 0.0090335053    114.46563  0.029844206 
number of iterations: 2188 
   29100    78.129117     2138         1987          151 2.0160284e-12 1.4412037e-14          0.1 0.0090339046    116.01359  0.029843541 
number of iterations: 2226 
   29200    78.391219     2162         2010          152 2.0427447e-12 1.4450071e-14          0.1 0.0090343832    117.58209  0.029842744 
number of iterations: 2241 
   29300    78.670973     2194         2042          152 2.0698151e-12 1.4488225e-14          0.1 0.0090348705    119.17138  0.029841933 
number of iterations: 2212 
   29400    78.900103     2222         2069          153 2.0972442e-12  1.45265e-14          0.1 0.0090353011    120.78174  0.029841216 
number of iterations: 2222 
   29500    79.132613     2253         2099          154 2.1250368e-12 1.4564895e-14          0.1 0.0090357454    122.41346  0.029840476 
number of iterations: 2236 
   29600    79.373197     2276         2121          155 2.1519749e-12 1.4603412e-14          0.1 0.0090362291    124.06587  0.029839671 
number of iterations: 2209 
   29700     79.61117     2305         2150          155 2.1804928e-12 1.464205e-14          0.1  0.009036696     125.7402  0.029838893 
number of iterations: 2234 
   29800    79.850477     2336         2181          155 2.2085095e-12 1.468081e-14          0.1   0.00903712    127.43607  0.029838187 
number of iterations: 2223 
   29900    80.089616     2371         2216          155 2.2377766e-12 1.4719691e-14          0.1 0.0090376086    129.15442  0.029837374 
number of iterations: 2228 
   30000    80.360513     2397         2242          155 2.2674315e-12 1.4758694e-14          0.1  0.009038105    130.89556  0.029836547 
number of iterations: 2226 
   30100     80.60222     2423         2267          156 2.2974794e-12 1.4797818e-14          0.1 0.0090386196    132.65979   0.02983569 
number of iterations: 2256 
   30200    80.840743     2455         2299          156 2.3279255e-12 1.4837065e-14          0.1 0.0090391155    134.44741  0.029834865 
number of iterations: 2247 
   30300    81.094871     2475         2319          156 2.358775e-12 1.4876435e-14          0.1 0.0090396272    136.25873  0.029834012 
number of iterations: 2264 
   30400    81.350579     2503         2347          156 2.3900334e-12 1.4915927e-14          0.1 0.0090401851    138.09408  0.029833083 
number of iterations: 2204 
   30500    81.600699     2533         2377          156 2.4208194e-12 1.4955541e-14          0.1  0.009040657    139.95309  0.029832298 
number of iterations: 2227 
   30600    81.887981     2564         2408          156 2.4528999e-12 1.4995279e-14          0.1 0.0090411542    141.83674   0.02983147 
number of iterations: 2259 
   30700    82.156984     2607         2450          157 2.4854056e-12 1.503514e-14          0.1  0.009041667    143.74537  0.029830616 
number of iterations: 2259 
   30800    82.423577     2637         2480          157 2.518342e-12 1.5075124e-14          0.1 0.0090422181    145.67931  0.029829698 
number of iterations: 2242 
   30900    82.673713     2669         2511          158 2.5517149e-12 1.5115231e-14          0.1 0.0090427403    147.63889  0.029828829 
number of iterations: 2212 
   31000    82.926081     2704         2545          159 2.5840549e-12 1.5155463e-14          0.1 0.0090432456    149.62333  0.029827987 
number of iterations: 2250 
   31100    83.163276     2748         2588          160 2.6174291e-12 1.5195818e-14          0.1 0.0090437918    151.63342  0.029827078 
number of iterations: 2277 
   31200    83.413247     2771         2611          160 2.652115e-12 1.5236298e-14          0.1 0.0090443963    153.67016  0.029826071 
number of iterations: 2267 
   31300    83.654194     2803         2643          160 2.6872606e-12 1.5276901e-14          0.1 0.0090449522    155.73391  0.029825146 
number of iterations: 2277 
   31400    83.929515     2854         2693          161 2.722872e-12 1.531763e-14          0.1 0.0090455441    157.82502   0.02982416 
number of iterations: 2256 
   31500    84.166137     2888         2725          163 2.7589553e-12 1.5358483e-14          0.1 0.0090461225    159.94385  0.029823197 
number of iterations: 2293 
   31600    84.433893     2931         2767          164 2.7955167e-12 1.5399461e-14          0.1 0.0090467084    162.09078  0.029822221 
number of iterations: 2269 
   31700    84.708332     2964         2799          165 2.8325626e-12 1.5440565e-14          0.1 0.0090473319    164.26618  0.029821183 
number of iterations: 2306 
   31800     84.96886     2997         2831          166 2.868762e-12 1.5481793e-14          0.1 0.0090479566    166.46939  0.029820143 
number of iterations: 2285 
   31900     85.21731     3039         2873          166 2.9067785e-12 1.5523148e-14          0.1 0.0090486109    168.70181  0.029819054 
number of iterations: 2279 
   32000    85.474922     3080         2913          167 2.9425736e-12 1.5564628e-14          0.1 0.0090492559    170.96175  0.029817979 
number of iterations: 2257 
   32100    85.721784     3107         2940          167 2.9815682e-12 1.5606235e-14          0.1 0.0090498741    173.25165   0.02981695 
number of iterations: 2276 
   32200    85.993104     3154         2986          168 3.0210797e-12 1.5647968e-14          0.1 0.0090504853     175.5719  0.029815932 
number of iterations: 2306 
   32300    86.239183     3188         3019          169 3.0611147e-12 1.5689827e-14          0.1  0.009051166    177.92291  0.029814799 
number of iterations: 2293 
   32400    86.485447     3216         3047          169 3.1016802e-12 1.5731814e-14          0.1 0.0090518444     180.3051  0.029813669 
number of iterations: 2289 
   32500    86.752898     3266         3095          171 3.1427833e-12 1.5773927e-14          0.1 0.0090524961    182.71887  0.029812584 
number of iterations: 2302 
   32600    87.021606     3303         3131          172 3.1844311e-12 1.5816168e-14          0.1 0.0090532047    185.16463  0.029811404 
number of iterations: 2314 
   32700    87.285398     3343         3171          172 3.2266308e-12 1.5858536e-14          0.1 0.0090539111    187.64283  0.029810228 
number of iterations: 2334 
   32800    87.535589     3381         3209          172 3.2680449e-12 1.5901032e-14          0.1 0.0090546818    190.15284  0.029808945 
number of iterations: 2295 
   32900    87.799682     3420         3248          172 3.3113526e-12 1.5943656e-14          0.1 0.0090553554    192.69613  0.029807823 
number of iterations: 2336 
   33000    88.059372     3465         3293          172 3.3538714e-12 1.5986408e-14          0.1 0.0090560951    195.27209  0.029806591 
number of iterations: 2329 
   33100    88.337146     3509         3337          172 3.3983164e-12 1.6029289e-14          0.1 0.0090568445    197.88222  0.029805344 
number of iterations: 2297 
   33200    88.660545     3551         3379          172 3.4433504e-12 1.6072298e-14          0.1  0.009057583    200.52694  0.029804114 
number of iterations: 2319 
   33300    88.916706     3603         3431          172 3.4889812e-12 1.6115437e-14          0.1 0.0090583349    203.20673  0.029802862 
number of iterations: 2293 
   33400    89.172231     3663         3491          172 3.5352166e-12 1.6158704e-14          0.1 0.0090590244    205.92205  0.029801714 
number of iterations: 2297 
   33500    89.421701     3711         3539          172 3.5820648e-12 1.6202102e-14          0.1 0.0090596762    208.67337  0.029800628 
number of iterations: 2300 
   33600    89.667759     3754         3580          174 3.6283825e-12 1.6245629e-14          0.1 0.0090604119    211.46028  0.029799403 
number of iterations: 2294 
   33700    89.931669     3794         3619          175 3.6755604e-12 1.6289286e-14          0.1 0.0090611258    214.28346  0.029798215 
number of iterations: 2345 
   33800    90.197106     3841         3665          176 3.7222019e-12 1.6333073e-14          0.1 0.0090619368    217.14249  0.029796864 
number of iterations: 2339 
   33900    90.450633     3889         3713          176 3.7705952e-12 1.6376991e-14          0.1 0.0090627655    220.03871  0.029795484 
number of iterations: 2336 
   34000    90.744133     3940         3763          177 3.8205625e-12 1.6421039e-14          0.1 0.0090635629    222.97336  0.029794157 
number of iterations: 2346 
   34100    91.045901     3994         3817          177 3.8699404e-12 1.6465219e-14          0.1 0.0090644018    225.94594   0.02979276 
number of iterations: 2311 
   34200     91.30903     4034         3857          177 3.9202295e-12 1.6509531e-14          0.1 0.0090651647    228.95715  0.029791489 
number of iterations: 2319 
   34300    91.580301     4088         3911          177 3.9713499e-12 1.6553973e-14          0.1  0.009065951    232.00765   0.02979018 
number of iterations: 2359 
   34400    91.882186     4137         3960          177 4.0231976e-12 1.6598548e-14          0.1 0.0090668483      235.098  0.029788686 
number of iterations: 2338 
   34500    92.159512     4182         4001          181 4.0756756e-12 1.6643255e-14          0.1 0.0090676527    238.22869  0.029787347 
number of iterations: 2359 
   34600    92.421031     4237         4056          181 4.1296857e-12 1.6688094e-14          0.1  0.009068497    241.40087  0.029785941 
number of iterations: 2361 
   34700    92.742132     4287         4106          181 4.1844115e-12 1.6733066e-14          0.1 0.0090694166    244.61512   0.02978441 
number of iterations: 2373 
   34800    93.063891     4343         4162          181 4.2398625e-12 1.677817e-14          0.1 0.0090703334    247.87196  0.029782883 
number of iterations: 2321 
   34900    93.325907     4407         4226          181 4.2951694e-12 1.6823408e-14          0.1 0.0090711616    251.17132  0.029781504 
number of iterations: 2351 
   35000    93.585284     4451         4270          181 4.3513152e-12 1.686878e-14          0.1 0.0090720569    254.51381  0.029780013 
Loop time of 93.5854 on 32 procs for 35000 steps with 4451 atoms

Performance: 323127456.604 tau/day, 373.990 timesteps/s
92.3% CPU use with 32 MPI tasks x no OpenMP threads

MPI task timing breakdown:
Section |  min time  |  avg time  |  max time  |%varavg| %total
---------------------------------------------------------------
Pair    | 0.0063055  | 0.065577   | 0.22239    |  17.5 |  0.07
Neigh   | 0.0038058  | 0.020106   | 0.059279   |   8.4 |  0.02
Comm    | 0.052087   | 0.14955    | 0.22401    |  14.0 |  0.16
Output  | 21.76      | 21.761     | 21.771     |   0.0 | 23.25
Modify  | 71.049     | 71.095     | 71.175     |   0.3 | 75.97
Other   |            | 0.4946     |            |       |  0.53

Nlocal:    139.094 ave 363 max 8 min
Histogram: 3 5 4 8 3 3 3 1 1 1
Nghost:    72.1875 ave 167 max 4 min
Histogram: 1 6 5 6 1 6 1 3 1 2
Neighs:    496.594 ave 1514 max 7 min
Histogram: 5 4 7 7 2 4 0 1 1 1

Total # of neighbors = 15891
Ave neighs/atom = 3.57021
Neighbor list builds = 704
Dangerous builds = 0
Total wall time: 0:01:33
