 NUFEB Simulation

     100 atoms 
     2 atom types 
     4 nutrients 

  0.0e-4   1.00e-04  xlo xhi 
  0.0e-4   1.00e-04  ylo yhi 
  0.0e-4   1.00e-05  zlo zhi 

 Atoms 

     1 1 1.65e-06  370 8.11e-05 3.26e-05 6.86e-06 1.65e-06 
     2 1 1.80e-06  370 3.64e-05 3.10e-05 7.42e-06 1.80e-06 
     3 1 1.45e-06  370 1.47e-05 3.79e-05 2.60e-06 1.45e-06 
     4 1 1.72e-06  370 8.78e-05 5.03e-05 3.96e-06 1.72e-06 
     5 1 1.47e-06  370 4.95e-05 1.04e-05 4.62e-06 1.47e-06 
     6 1 1.77e-06  370 8.57e-05 6.54e-05 5.11e-06 1.77e-06 
     7 1 1.86e-06  370 4.91e-05 4.44e-05 7.19e-06 1.86e-06 
     8 1 1.43e-06  370 9.09e-05 6.39e-05 4.65e-06 1.43e-06 
     9 1 1.90e-06  370 5.39e-05 1.23e-05 7.69e-06 1.90e-06 
     10 1 1.83e-06  370 5.50e-05 2.93e-06 7.22e-06 1.83e-06 
     11 1 1.62e-06  370 5.20e-05 8.78e-05 1.99e-06 1.62e-06 
     12 1 1.54e-06  370 7.34e-05 1.91e-06 6.03e-06 1.54e-06 
     13 1 1.54e-06  370 4.40e-05 5.78e-05 2.63e-06 1.54e-06 
     14 1 1.76e-06  370 5.13e-05 3.07e-05 3.13e-06 1.76e-06 
     15 1 1.58e-06  370 1.28e-05 9.05e-05 3.25e-06 1.58e-06 
     16 1 1.56e-06  370 7.84e-05 2.67e-05 7.01e-06 1.56e-06 
     17 1 1.71e-06  370 9.64e-05 3.78e-05 4.91e-06 1.71e-06 
     18 1 1.57e-06  370 1.57e-05 1.78e-05 5.65e-06 1.57e-06 
     19 1 1.69e-06  370 3.89e-06 1.76e-05 4.64e-06 1.69e-06 
     20 1 1.53e-06  370 1.38e-05 5.09e-05 3.84e-06 1.53e-06 
     21 1 1.66e-06  370 9.55e-05 3.57e-05 8.08e-06 1.66e-06 
     22 1 1.52e-06  370 6.27e-05 1.84e-06 2.28e-06 1.52e-06 
     23 1 1.84e-06  370 9.06e-05 8.07e-05 5.25e-06 1.84e-06 
     24 1 1.61e-06  370 2.84e-05 5.47e-05 6.18e-06 1.61e-06 
     25 1 1.81e-06  370 6.58e-05 3.41e-05 2.38e-06 1.81e-06 
     26 1 1.71e-06  370 9.62e-05 2.32e-05 5.23e-06 1.71e-06 
     27 1 1.45e-06  370 6.34e-05 3.42e-05 8.54e-06 1.45e-06 
     28 1 1.60e-06  370 3.61e-05 9.03e-05 5.03e-06 1.60e-06 
     29 1 1.83e-06  370 7.13e-06 3.55e-05 7.16e-06 1.83e-06 
     30 1 1.52e-06  370 3.02e-05 4.48e-05 4.36e-06 1.52e-06 
     31 1 1.92e-06  370 1.71e-05 8.79e-05 6.06e-06 1.92e-06 
     32 1 1.90e-06  370 4.76e-05 7.30e-05 3.60e-06 1.90e-06 
     33 1 1.69e-06  370 4.52e-05 5.20e-05 7.71e-06 1.69e-06 
     34 1 1.84e-06  370 3.85e-05 3.56e-05 6.22e-06 1.84e-06 
     35 1 1.90e-06  370 2.35e-05 3.87e-05 2.21e-06 1.90e-06 
     36 1 1.45e-06  370 8.43e-05 1.31e-05 4.33e-06 1.45e-06 
     37 1 1.42e-06  370 7.24e-05 4.37e-06 6.65e-06 1.42e-06 
     38 1 1.84e-06  370 5.11e-05 4.25e-05 4.14e-06 1.84e-06 
     39 1 1.84e-06  370 8.70e-05 3.07e-05 3.46e-06 1.84e-06 
     40 1 1.48e-06  370 1.53e-05 3.22e-05 6.31e-06 1.48e-06 
     41 1 1.50e-06  370 7.24e-05 9.31e-06 3.98e-06 1.50e-06 
     42 1 1.76e-06  370 5.69e-06 2.75e-05 7.85e-06 1.76e-06 
     43 1 1.55e-06  370 7.64e-05 4.02e-05 1.63e-06 1.55e-06 
     44 1 1.49e-06  370 4.55e-05 7.25e-05 7.25e-06 1.49e-06 
     45 1 1.44e-06  370 4.61e-05 3.78e-05 7.08e-06 1.44e-06 
     46 1 1.43e-06  370 6.32e-05 4.00e-05 7.62e-06 1.43e-06 
     47 1 1.93e-06  370 6.75e-05 5.56e-05 3.83e-06 1.93e-06 
     48 1 1.58e-06  370 8.69e-05 7.93e-05 6.25e-06 1.58e-06 
     49 1 1.49e-06  370 7.37e-05 4.35e-05 7.20e-06 1.49e-06 
     50 1 1.38e-06  370 2.77e-06 6.29e-05 2.25e-06 1.38e-06 
     51 2 1.07e-06  230 1.18e-05 5.20e-05 5.09e-06 1.07e-06 
     52 2 1.09e-06  230 8.88e-05 7.20e-05 4.16e-06 1.09e-06 
     53 2 1.16e-06  230 9.42e-05 1.33e-05 5.29e-06 1.16e-06 
     54 2 1.14e-06  230 2.09e-05 1.31e-05 3.74e-06 1.14e-06 
     55 2 9.13e-07  230 7.49e-05 1.90e-05 8.54e-06 9.13e-07 
     56 2 9.64e-07  230 2.97e-05 3.99e-05 5.54e-06 9.64e-07 
     57 2 1.04e-06  230 8.38e-05 3.78e-05 3.31e-06 1.04e-06 
     58 2 1.06e-06  230 3.92e-06 3.47e-05 8.84e-06 1.06e-06 
     59 2 1.09e-06  230 9.44e-05 2.56e-05 5.75e-06 1.09e-06 
     60 2 9.81e-07  230 7.64e-05 4.82e-05 6.35e-06 9.81e-07 
     61 2 1.34e-06  230 3.41e-05 7.90e-05 6.54e-06 1.34e-06 
     62 2 1.01e-06  230 3.68e-05 3.29e-05 4.03e-06 1.01e-06 
     63 2 1.19e-06  230 8.59e-05 7.15e-05 1.35e-06 1.19e-06 
     64 2 1.29e-06  230 6.85e-05 1.10e-05 7.50e-06 1.29e-06 
     65 2 1.11e-06  230 1.18e-05 7.75e-05 7.50e-06 1.11e-06 
     66 2 1.14e-06  230 6.11e-05 3.89e-05 3.48e-06 1.14e-06 
     67 2 1.34e-06  230 7.88e-05 3.18e-05 2.28e-06 1.34e-06 
     68 2 1.21e-06  230 3.72e-06 2.66e-05 7.99e-06 1.21e-06 
     69 2 1.24e-06  230 2.38e-05 1.40e-05 7.47e-06 1.24e-06 
     70 2 1.34e-06  230 6.27e-05 6.10e-05 5.75e-06 1.34e-06 
     71 2 9.40e-07  230 5.16e-05 5.47e-05 3.35e-06 9.40e-07 
     72 2 1.20e-06  230 7.32e-05 5.32e-05 2.31e-06 1.20e-06 
     73 2 1.33e-06  230 4.58e-05 9.75e-05 6.56e-06 1.33e-06 
     74 2 1.34e-06  230 3.13e-05 6.91e-05 4.97e-06 1.34e-06 
     75 2 1.35e-06  230 1.71e-05 9.86e-05 4.92e-06 1.35e-06 
     76 2 8.98e-07  230 8.25e-05 1.70e-06 5.11e-06 8.98e-07 
     77 2 9.35e-07  230 7.14e-05 5.32e-05 8.67e-06 9.35e-07 
     78 2 9.13e-07  230 1.16e-05 5.31e-05 8.24e-06 9.13e-07 
     79 2 1.32e-06  230 8.56e-05 9.49e-05 2.25e-06 1.32e-06 
     80 2 9.55e-07  230 7.07e-05 4.66e-05 1.31e-06 9.55e-07 
     81 2 1.21e-06  230 1.35e-05 5.98e-05 5.73e-06 1.21e-06 
     82 2 1.25e-06  230 6.34e-05 7.37e-05 1.67e-06 1.25e-06 
     83 2 9.47e-07  230 4.22e-05 5.36e-06 4.78e-06 9.47e-07 
     84 2 1.10e-06  230 8.09e-06 8.21e-05 7.35e-06 1.10e-06 
     85 2 9.08e-07  230 7.31e-05 9.23e-05 1.02e-06 9.08e-07 
     86 2 9.27e-07  230 9.79e-05 5.72e-05 3.95e-06 9.27e-07 
     87 2 1.09e-06  230 7.56e-05 2.49e-05 6.21e-06 1.09e-06 
     88 2 9.91e-07  230 3.95e-05 9.66e-05 5.76e-06 9.91e-07 
     89 2 1.14e-06  230 6.03e-05 8.03e-05 1.44e-06 1.14e-06 
     90 2 1.05e-06  230 2.01e-05 3.55e-05 4.62e-06 1.05e-06 
     91 2 1.02e-06  230 1.07e-05 8.25e-05 7.68e-06 1.02e-06 
     92 2 1.09e-06  230 1.09e-05 1.60e-05 4.07e-06 1.09e-06 
     93 2 1.28e-06  230 6.67e-05 6.61e-05 5.13e-06 1.28e-06 
     94 2 9.03e-07  230 7.61e-05 1.46e-05 8.55e-06 9.03e-07 
     95 2 1.10e-06  230 5.04e-05 8.71e-05 3.18e-06 1.10e-06 
     96 2 1.28e-06  230 8.93e-05 5.38e-05 7.88e-06 1.28e-06 
     97 2 1.16e-06  230 7.01e-05 6.32e-05 7.02e-06 1.16e-06 
     98 2 1.21e-06  230 8.57e-06 2.76e-05 7.69e-06 1.21e-06 
     99 2 8.96e-07  230 1.71e-05 3.81e-05 4.42e-06 8.96e-07 
     100 2 1.23e-06  230 1.78e-05 9.83e-05 7.40e-06 1.23e-06 

 Nutrients 

     1 sub g nn nn nn 1.00e-01 1.00e-01 
     2 o2 l nn nn nd 9.00e-03 9.00e-03 
     3 suc l nn nn nn 3.42e-20 3.42e-20 
     4 co2 l nn nn nd 2.99e-02 2.99e-02 

 Type Name 

     1 cyano  
     2 ecw  

 Diffusion Coeffs 

     sub 0 
     o2 2.3e-09 
     suc 5.2e-10 
     co2 1.9e-09 

 Growth Rate 

     cyano 1.67e-05 
     ecw 7e-05 

 Ks 

     cyano 0.00035 0.0002 0.01 0.000138 
     ecw 0 0.001 3.6 0.05 

 Yield 

     cyano 0.55 
     ecw 0.43 

 Maintenance 

     cyano 0 
     ecw 9.5e-07 

 Decay 

     cyano 0 
     ecw 0 



