LAMMPS (20 Nov 2019)
# NUFEB simulation

atom_style	bio
atom_modify	map array sort 1000 5.0e-7
boundary	ff ff ff
newton		off
processors  * * *

comm_modify	vel yes
#variable reps loop 1
read_data_bio atom_50_50_100_1_2021-08-31.in
  orthogonal box = (0 0 0) to (0.0001 0.0001 1e-05)
  8 by 4 by 1 MPI processor grid
  reading atoms ...
  100 atoms
  4 nutrients
#shell mkdir Run_50_50_100_1
#shell cd Run_50_50_100_1
##############Define initial particle distribution##############

lattice sc 1e-6 origin 0 0 0
Lattice spacing in x,y,z = 100 100 100
region reg block 0 1000 0 1000 0 100

group CYANO type 1
50 atoms in group CYANO
group ECW type 2
50 atoms in group ECW

neighbor	5e-7 bin
neigh_modify	delay 0 one 5000

##############Define DEM Variables&Commands##############

pair_style  gran/hooke/history 1.e-4 NULL 1.e-5 NULL 0.0 1
pair_coeff  * *

timestep 10

fix 1 all nve/limit 1e-8
fix fv all viscous 1e-5

fix zw all wall/gran hooke/history 2000 NULL 500.0 NULL 1.5 0 zplane  0.0  1e-05

variable kanc equal 50

variable ke equal 5e+10


##############Define IBm Variables##############

#variables used in fix eps_extract
variable EPSdens equal 30
variable EPSratio equal 1.3

#variables used in fix division
variable divDia1 equal 1.96e-6
variable divDia2 equal 1.04e-6

#variables used in fix kinetics
variable diffT equal 1e-4
variable tol equal 1e-11
variable etaHET equal 0.6
variable layer equal -1

#variables used in fix death
#variable deadDia equal 9e-7


##############Define IBm Commands##############

fix k1 all kinetics 100 50 50 5 v_diffT v_layer niter 1000000
fix kgm all kinetics/growth/monod sucexp 1.0
fix g1 all kinetics/diffusion v_tol
fix d1 CYANO divide 100 v_EPSdens v_divDia1 956689
fix d2 ECW divide 100 v_EPSdens v_divDia2 956574
#fix d2 all death 1 v_deadDia demflag 0


##############Define IBm Computes##############

compute myNtypes all ntypes
compute myMass all biomass
compute myCon all avg_con

##############Simulation exit condition##############
variable co2 equal c_myCon[4]
fix 10 all halt 100 v_co2 <= 1e-19

variable light equal c_myCon[1]
fix 11 all halt 100 v_light <= 1e-19

##############Simulation Output##############
dump    id all custom 100 output.lammmps id type diameter x y z
dump    du1 all vtk 100 atom_*.vtu id type diameter x y z
dump    du2 all grid 100 grid_%_*.vti con
dump    du3 all bio 100 ntypes biomass avg_con
dump    traj all bio/hdf5 100 trajectory.h5 id type radius x y z con
thermo_style    custom step cpu atoms c_myNtypes[*] c_myMass[*] c_myCon[*]
thermo		100
thermo_modify	lost ignore


run 35000
Model is defined as a closed system. 
Neighbor list info ...
  update every 1 steps, delay 0 steps, check yes
  max neighbors/atom: 5000, page size: 100000
  master list distance cutoff = 2.43e-06
  ghost atom cutoff = 2.43e-06
  binsize = 1.215e-06, bins = 83 83 9
  1 neighbor lists, perpetual/occasional/extra = 1 0 0
  (1) pair gran/hooke/history, perpetual
      attributes: half, newton off, size, history
      pair build: half/size/bin/newtoff
      stencil: half/bin/3d/newtoff
      bin: standard
Per MPI rank memory allocation (min/avg/max) = 5.794 | 10.77 | 12.11 Mbytes
Step CPU Atoms c_myNtypes[1] c_myNtypes[2] c_myMass[1] c_myMass[2] c_myCon[1] c_myCon[2] c_myCon[3] c_myCon[4] 
       0            0      100           50           50 4.457054e-14 8.7336081e-15          0.1        0.009     3.42e-20       0.0299 
number of iterations: 326157 
     100    15.677964      134           50           84 4.5161199e-14 8.7315602e-15          0.1 0.0090007409  0.035813372  0.029898766 
number of iterations: 4312 
     200    16.028683      148           50           98 4.5759685e-14 8.7345676e-15          0.1 0.0090007504  0.070852905   0.02989875 
number of iterations: 2847 
     300    16.288593      148           50           98 4.6366102e-14 8.7427205e-15          0.1 0.0090007601   0.10623409  0.029898733 
number of iterations: 2163 
     400    16.540064      148           50           98 4.6980556e-14 8.7559791e-15          0.1 0.0090007699   0.14196604  0.029898717 
number of iterations: 1762 
     500    16.767865      149           51           98 4.7603152e-14 8.7743178e-15          0.1  0.009000777   0.17805635  0.029898704 
number of iterations: 1647 
     600    16.983028      150           52           98   4.8234e-14 8.7977257e-15          0.1 0.0090007912   0.21451225   0.02989868 
number of iterations: 1417 
     700     17.17744      150           52           98 4.8873207e-14 8.8261904e-15          0.1 0.0090008014   0.25134051  0.029898663 
number of iterations: 1387 
     800     17.37104      151           52           99 4.9520885e-14 8.8597131e-15          0.1 0.0090008118   0.28854767  0.029898646 
number of iterations: 1410 
     900    17.566513      154           55           99 5.0177147e-14 8.8983066e-15          0.1 0.0090008153   0.32614015  0.029898639 
number of iterations: 1392 
    1000     17.77575      154           55           99 5.0842105e-14 8.9419867e-15          0.1 0.0090008258   0.36412421  0.029898622 
number of iterations: 1395 
    1100    17.957258      154           55           99 5.1515876e-14 8.9907804e-15          0.1 0.0090008365   0.40250599  0.029898603 
number of iterations: 1398 
    1200    18.144154      154           55           99 5.2198575e-14 9.0447232e-15          0.1 0.0090008473   0.44129156  0.029898585 
number of iterations: 1403 
    1300    18.358349      155           56           99 5.2890322e-14 9.1038574e-15          0.1 0.0090008583   0.48048684  0.029898567 
number of iterations: 1404 
    1400    18.535911      156           56          100 5.3591236e-14  9.16823e-15          0.1 0.0090008694   0.52009764  0.029898548 
number of iterations: 1407 
    1500    18.736291      157           56          101 5.4301439e-14 9.2379073e-15          0.1 0.0090008807   0.56012968  0.029898529 
number of iterations: 1584 
    1600    18.925372      161           60          101 5.5021053e-14 9.3129565e-15          0.1 0.0090008992   0.60058858  0.029898497 
number of iterations: 1412 
    1700    19.127293      165           62          103 5.5750204e-14 9.3934467e-15          0.1 0.0090009108   0.64147985  0.029898478 
number of iterations: 1415 
    1800    19.304546      165           62          103 5.6489018e-14 9.4794724e-15          0.1 0.0090009226   0.68280888  0.029898458 
number of iterations: 1418 
    1900    19.492986      167           62          105 5.7237622e-14 9.5711271e-15          0.1 0.0090009346   0.72458098  0.029898437 
number of iterations: 1490 
    2000    19.697502      168           63          105 5.7996148e-14 9.6685132e-15          0.1 0.0090009481   0.76680134  0.029898415 
number of iterations: 1422 
    2100     19.87838      169           64          105 5.8764725e-14 9.7717454e-15          0.1 0.0090009604   0.80947506  0.029898394 
number of iterations: 1427 
    2200    20.059655      169           64          105 5.9543488e-14 9.8809409e-15          0.1 0.0090009729   0.85260712  0.029898373 
number of iterations: 1430 
    2300    20.245845      171           64          107 6.0332571e-14 9.9962289e-15          0.1 0.0090009855   0.89620239  0.029898351 
number of iterations: 1433 
    2400    20.437297      171           64          107 6.1132111e-14 1.0117757e-14          0.1 0.0090009982   0.94026563  0.029898329 
number of iterations: 1412 
    2500    20.622365      174           65          109 6.1942247e-14 1.0245664e-14          0.1 0.0090010112   0.98480148  0.029898307 
number of iterations: 1483 
    2600    20.839578      179           67          112 6.2763119e-14 1.0380107e-14          0.1 0.0090010188    1.0298147  0.029898294 
number of iterations: 1440 
    2700    21.024084      180           67          113 6.3594869e-14 1.0521253e-14          0.1  0.009001032    1.0753094  0.029898272 
number of iterations: 1443 
    2800    21.197624      180           67          113 6.4437642e-14 1.0669282e-14          0.1 0.0090010454      1.12129  0.029898249 
number of iterations: 1446 
    2900    21.374138      181           67          114 6.5291583e-14 1.082438e-14          0.1 0.0090010589    1.1677605  0.029898226 
number of iterations: 1449 
    3000     21.57358      181           67          114 6.6156841e-14 1.0986747e-14          0.1 0.0090010727    1.2147249  0.029898203 
number of iterations: 1429 
    3100    21.785043      184           68          116 6.7033565e-14 1.1156589e-14          0.1 0.0090010838    1.2621872  0.029898184 
number of iterations: 1453 
    3200    21.975642      187           68          119 6.7921908e-14 1.133413e-14          0.1 0.0090010978    1.3101509   0.02989816 
number of iterations: 1456 
    3300    22.158129      191           70          121 6.8822024e-14 1.1519605e-14          0.1  0.009001112    1.3586197  0.029898136 
number of iterations: 1459 
    3400    22.332959      191           70          121 6.9734068e-14 1.1713259e-14          0.1 0.0090011264    1.4075969  0.029898111 
number of iterations: 1446 
    3500    22.507556      196           72          124 7.0658199e-14 1.191536e-14          0.1 0.0090011355    1.4570857  0.029898096 
number of iterations: 1464 
    3600    22.669856      198           72          126 7.1594576e-14 1.2126169e-14          0.1 0.0090011502    1.5070892  0.029898071 
number of iterations: 1467 
    3700    22.876889      200           72          128 7.2543362e-14 1.234597e-14          0.1 0.0090011651      1.55761  0.029898045 
number of iterations: 1470 
    3800    23.065342      200           72          128 7.3504722e-14 1.2575063e-14          0.1 0.0090011802    1.6086507   0.02989802 
number of iterations: 1683 
    3900     23.28329      204           73          131 7.4478822e-14 1.2813771e-14          0.1 0.0090012019    1.6602136  0.029897983 
number of iterations: 1480 
    4000    23.515707      205           73          132 7.5465831e-14 1.3062416e-14          0.1 0.0090012174     1.712301  0.029897956 
number of iterations: 1496 
    4100    23.697414      210           74          136 7.646592e-14 1.3321348e-14          0.1 0.0090012331    1.7649148  0.029897929 
number of iterations: 1564 
    4200    23.870424      213           74          139 7.7479263e-14 1.3590932e-14          0.1 0.0090012491    1.8180567  0.029897902 
number of iterations: 1489 
    4300    24.046367      221           74          147 7.8506034e-14 1.3871549e-14          0.1 0.0090012652    1.8717279  0.029897875 
number of iterations: 1492 
    4400    24.262412      224           74          150 7.9546413e-14 1.4163591e-14          0.1 0.0090012815    1.9259297  0.029897847 
number of iterations: 1494 
    4500    24.431774      226           75          151 8.0600578e-14 1.4467474e-14          0.1 0.0090012966    1.9806625  0.029897821 
number of iterations: 1554 
    4600    24.619195      230           76          154 8.1668714e-14 1.4783625e-14          0.1 0.0090013174    2.0359271  0.029897785 
number of iterations: 1500 
    4700    24.801725      233           76          157 8.2751005e-14 1.5112498e-14          0.1 0.0090013344    2.0917236  0.029897756 
number of iterations: 1502 
    4800    25.001912      239           77          162 8.3847638e-14 1.5454569e-14          0.1 0.0090013515     2.148052  0.029897727 
number of iterations: 1524 
    4900    25.195526      246           77          169 8.4958805e-14 1.5810351e-14          0.1 0.0090013606    2.2049115  0.029897711 
number of iterations: 1507 
    5000    25.398271      249           77          172 8.6084696e-14 1.618035e-14          0.1 0.0090013781    2.2623011  0.029897681 
number of iterations: 1630 
    5100     25.57998      255           79          176 8.7225509e-14 1.656512e-14          0.1 0.0090014001    2.3202194  0.029897644 
number of iterations: 1517 
    5200    25.744537      257           80          177 8.8381439e-14 1.6965222e-14          0.1 0.0090014138    2.3786647   0.02989762 
number of iterations: 1460 
    5300      25.9219      264           80          184 8.9552688e-14 1.7381259e-14          0.1 0.0090014275    2.4376346  0.029897596 
number of iterations: 1515 
    5400    26.093755      269           81          188 9.0739459e-14 1.7813856e-14          0.1 0.0090014456    2.4971263  0.029897565 
number of iterations: 1535 
    5500    26.262746      278           82          196 9.1941957e-14 1.8263663e-14          0.1  0.009001464    2.5571366  0.029897533 
number of iterations: 1672 
    5600    26.441513      283           84          199 9.3160391e-14 1.873136e-14          0.1 0.0090014869    2.6176617  0.029897494 
number of iterations: 1525 
    5700     26.62141      290           85          205 9.4394972e-14 1.9217659e-14          0.1 0.0090015058    2.6786973  0.029897461 
number of iterations: 1548 
    5800    26.797156      296           88          208 9.5645913e-14 1.9723308e-14          0.1 0.0090015221    2.7402381  0.029897432 
number of iterations: 1661 
    5900    26.981005      304           91          213 9.6913433e-14 2.0249075e-14          0.1 0.0090015497    2.8022788  0.029897385 
number of iterations: 1534 
    6000    27.183916      309           91          218 9.8197749e-14 2.079577e-14          0.1 0.0090015694     2.864813  0.029897351 
number of iterations: 1546 
    6100    27.373789      318           95          223 9.9499086e-14 2.1364257e-14          0.1 0.0090015879    2.9278338  0.029897319 
number of iterations: 1627 
    6200     27.56049      327           99          228 1.0081767e-13 2.1955406e-14          0.1 0.0090016141    2.9913335  0.029897274 
number of iterations: 1541 
    6300    27.735466      329           99          230 1.0215372e-13 2.2570142e-14          0.1 0.0090016345    3.0553036  0.029897238 
number of iterations: 1560 
    6400    27.918371      337          101          236 1.0350749e-13 2.320944e-14          0.1 0.0090016552     3.119735  0.029897202 
number of iterations: 1547 
    6500    28.087278      343          101          242 1.0487919e-13 2.3874299e-14          0.1 0.0090016761    3.1846175  0.029897166 
number of iterations: 1624 
    6600    28.377339      357          104          253 1.0626907e-13 2.4565778e-14          0.1 0.0090016997    3.2499401  0.029897125 
number of iterations: 1556 
    6700     28.55459      369          106          263 1.0767737e-13 2.5284991e-14          0.1 0.0090017211    3.3156908  0.029897087 
number of iterations: 1553 
    6800     28.73682      379          109          270 1.0910433e-13 2.6033086e-14          0.1 0.0090017428    3.3818571  0.029897049 
number of iterations: 1703 
    6900     28.93591      398          114          284 1.105502e-13 2.6811272e-14          0.1 0.0090017704    3.4484247  0.029897001 
number of iterations: 1687 
    7000    29.151015      409          119          290 1.1201524e-13 2.7620715e-14          0.1 0.0090017884    3.5153794  0.029896969 
number of iterations: 1685 
    7100    29.350242      419          120          299 1.1349969e-13 2.8462811e-14          0.1  0.009001816    3.5827046  0.029896921 
number of iterations: 1538 
    7200    29.519187      429          122          307 1.1500381e-13 2.9338932e-14          0.1 0.0090018334    3.6503829   0.02989689 
number of iterations: 1598 
    7300    29.695518      442          125          317 1.1652786e-13 3.025049e-14          0.1 0.0090018531    3.7183958  0.029896855 
number of iterations: 1609 
    7400     29.87271      451          125          326 1.1807211e-13 3.1199007e-14          0.1  0.009001879    3.7867234  0.029896809 
number of iterations: 1699 
    7500    30.075386      462          126          336 1.1963683e-13 3.2186019e-14          0.1 0.0090019064    3.8553445  0.029896761 
number of iterations: 1581 
    7600    30.284189      468          126          342 1.2122228e-13 3.3213162e-14          0.1 0.0090019301    3.9242367  0.029896719 
number of iterations: 1643 
    7700    30.479357      480          127          353 1.2282874e-13 3.4282148e-14          0.1 0.0090019568    3.9933755  0.029896672 
number of iterations: 1586 
    7800    30.678416      492          130          362 1.2445649e-13 3.5394746e-14          0.1 0.0090019787    4.0627353  0.029896633 
number of iterations: 1607 
    7900    30.866347      511          130          381 1.2610582e-13 3.6552808e-14          0.1 0.0090019975     4.132289  0.029896598 
number of iterations: 1596 
    8000    31.071373      531          133          398 1.2777699e-13 3.7758358e-14          0.1 0.0090020188    4.2020075   0.02989656 
number of iterations: 1591 
    8100    31.256426      539          134          405 1.2947032e-13 3.9013327e-14          0.1  0.009002045    4.2718599  0.029896513 
number of iterations: 1593 
    8200     31.44578      552          134          418 1.3118609e-13 4.0319819e-14          0.1 0.0090020701    4.3418136  0.029896468 
number of iterations: 1597 
    8300    31.635631      568          134          434 1.3292459e-13 4.1680034e-14          0.1 0.0090020954    4.4118339  0.029896423 
number of iterations: 1702 
    8400    31.878618      587          137          450 1.3468614e-13 4.3096203e-14          0.1 0.0090021236    4.4818835  0.029896372 
number of iterations: 1683 
    8500    32.070304      604          138          466 1.3647102e-13 4.4570646e-14          0.1 0.0090021524    4.5519249  0.029896321 
number of iterations: 1556 
    8600    32.257149      624          140          484 1.3827956e-13 4.610613e-14          0.1  0.009002171    4.6219167  0.029896286 
number of iterations: 1608 
    8700    32.448452      641          141          500 1.4011207e-13 4.7705115e-14          0.1 0.0090021971    4.6918153  0.029896238 
number of iterations: 1606 
    8800    32.640388      659          144          515 1.4196887e-13 4.9370316e-14          0.1 0.0090022209    4.7615755  0.029896195 
number of iterations: 1611 
    8900    32.823649      670          145          525 1.4385027e-13 5.1104581e-14          0.1 0.0090022473    4.8311486  0.029896146 
number of iterations: 1613 
    9000    33.037834      693          145          548 1.457566e-13 5.2910854e-14          0.1  0.009002274    4.9004835  0.029896097 
number of iterations: 1612 
    9100    33.393981      709          145          564 1.4768819e-13 5.4792215e-14          0.1 0.0090023013    4.9695269  0.029896047 
number of iterations: 1618 
    9200    33.574025      724          145          579 1.4964539e-13 5.675186e-14          0.1 0.0090023283    5.0382222  0.029895996 
number of iterations: 1699 
    9300    33.771876      752          146          606 1.5162852e-13 5.8793111e-14          0.1 0.0090023601    5.1065101  0.029895939 
number of iterations: 1506 
    9400    33.941041      774          147          627 1.5363793e-13 6.0919418e-14          0.1 0.0090023737    5.1743281  0.029895911 
number of iterations: 1616 
    9500    34.142324      798          148          650 1.5567397e-13 6.3134467e-14          0.1 0.0090024013    5.2416107  0.029895859 
number of iterations: 1628 
    9600    34.359311      829          148          681 1.5773699e-13 6.5442016e-14          0.1 0.0090024293     5.308289  0.029895806 
number of iterations: 1634 
    9700    34.575863      852          150          702 1.5982735e-13 6.784604e-14          0.1 0.0090024577    5.3742906  0.029895753 
number of iterations: 1634 
    9800    34.765298      883          151          732 1.6194542e-13 7.0350625e-14          0.1 0.0090024863    5.4395396  0.029895699 
number of iterations: 1659 
    9900    35.037255      917          155          762 1.6409155e-13 7.2960022e-14          0.1 0.0090025135    5.5039566  0.029895647 
number of iterations: 1650 
   10000    35.245334      943          156          787 1.6626612e-13 7.5678672e-14          0.1 0.0090025449    5.5674581  0.029895587 
number of iterations: 1576 
   10100    35.427033      974          158          816 1.6846951e-13 7.8511172e-14          0.1 0.0090025647     5.629957  0.029895547 
number of iterations: 1689 
   10200    35.634291     1007          161          846 1.707021e-13 8.1462327e-14          0.1 0.0090025929    5.6913623  0.029895492 
number of iterations: 1670 
   10300    35.839162     1040          162          878 1.7296428e-13 8.4537046e-14          0.1 0.0090026237    5.7515783  0.029895433 
number of iterations: 1671 
   10400    36.047529     1072          165          907 1.7525644e-13 8.7740501e-14          0.1 0.0090026559    5.8105054  0.029895371 
number of iterations: 1725 
   10500    36.247787     1102          167          935 1.7757897e-13 9.107794e-14          0.1 0.0090026939    5.8680397  0.029895299 
number of iterations: 1631 
   10600    36.455439     1134          168          966 1.7993228e-13 9.4554961e-14          0.1 0.0090027196    5.9240727  0.029895247 
number of iterations: 1836 
   10700    36.662031     1191          169         1022 1.8231678e-13 9.8177231e-14          0.1 0.0090027629    5.9784914  0.029895166 
number of iterations: 1665 
   10800    36.866792     1229          169         1060 1.8473287e-13 1.0195074e-13          0.1 0.0090027987    6.0311784  0.029895096 
number of iterations: 1676 
   10900    37.075418     1266          175         1091 1.8718099e-13 1.0588159e-13          0.1 0.0090028235    6.0820117  0.029895045 
number of iterations: 1762 
   11000    37.288208     1312          177         1135 1.8966155e-13 1.0997616e-13          0.1 0.0090028629    6.1308633  0.029894969 
number of iterations: 1738 
   11100    37.493896     1359          185         1174 1.9217498e-13 1.1424105e-13          0.1 0.0090029061    6.1776013  0.029894886 
number of iterations: 1708 
   11200    37.706239     1415          190         1225 1.9472172e-13 1.1868305e-13          0.1 0.0090029406    6.2220885  0.029894817 
number of iterations: 1641 
   11300    37.920771     1457          191         1266 1.9730221e-13 1.2330917e-13          0.1   0.00900297    6.2641831  0.029894756 
number of iterations: 1667 
   11400    38.131094     1509          191         1318 1.999169e-13 1.281266e-13          0.1 0.0090029969    6.3037379  0.029894699 
number of iterations: 1712 
   11500     38.42301     1571          194         1377 2.0256623e-13 1.3314269e-13          0.1 0.0090030306    6.3406011   0.02989463 
number of iterations: 1676 
   11600    38.619524     1632          198         1434 2.0525068e-13 1.3836514e-13          0.1 0.0090030613    6.3746158  0.029894566 
number of iterations: 1682 
   11700     38.85278     1690          201         1489 2.079707e-13 1.436937e-13          0.1  0.009003089     6.405717  0.029894507 
number of iterations: 1757 
   11800    39.089886     1750          204         1546 2.1072677e-13 1.4921141e-13          0.1 0.0090031242    6.4337676  0.029894433 
number of iterations: 1714 
   11900    39.286297     1810          211         1599 2.1351936e-13 1.550909e-13          0.1 0.0090031522    6.4584785  0.029894371 
number of iterations: 1782 
   12000    39.517538     1883          214         1669 2.1634896e-13 1.6106462e-13          0.1   0.00900319    6.4798038  0.029894294 
number of iterations: 1671 
   12100    39.745512     1954          218         1736 2.1921605e-13 1.6742406e-13          0.1 0.0090032137    6.4974385  0.029894238 
number of iterations: 1707 
   12200    39.959976     2023          222         1801 2.2212115e-13 1.7382524e-13          0.1 0.0090032491    6.5113922  0.029894163 
number of iterations: 1709 
   12300    40.170479     2089          225         1864 2.2506474e-13 1.8069636e-13          0.1 0.0090032841    6.5212917  0.029894088 
number of iterations: 1714 
   12400    40.388663     2164          233         1931 2.2804734e-13 1.8784058e-13          0.1 0.0090033163    6.5269475  0.029894016 
number of iterations: 1682 
   12500    40.601886     2247          236         2011 2.3106946e-13 1.9515104e-13          0.1 0.0090033456    6.5282718  0.029893949 
number of iterations: 1683 
   12600     40.84097     2338          242         2096 2.3413164e-13 2.0274962e-13          0.1 0.0090033577    6.5250723   0.02989391 
number of iterations: 1694 
   12700    41.038112     2419          246         2173 2.372344e-13 2.1075796e-13          0.1 0.0090033827    6.5170548  0.029893849 
number of iterations: 1798 
   12800     41.25049     2509          252         2257 2.4037827e-13 2.190756e-13          0.1 0.0090034155    6.5040231  0.029893774 
number of iterations: 1735 
   12900    41.459987     2599          255         2344 2.4356381e-13 2.2771134e-13          0.1 0.0090034489    6.4857832  0.029893698 
number of iterations: 1697 
   13000     41.68428     2699          258         2441 2.4679156e-13 2.3656898e-13          0.1 0.0090034807    6.4622357  0.029893625 
number of iterations: 1715 
   13100    41.926231     2809          260         2549 2.5006209e-13 2.4586332e-13          0.1 0.0090035123    6.4330988  0.029893549 
number of iterations: 1714 
   13200    42.158836     2908          260         2648 2.5337596e-13 2.5550185e-13          0.1 0.0090035452    6.3981872  0.029893472 
number of iterations: 1733 
   13300    42.395712     3012          262         2750 2.5673374e-13 2.6549285e-13          0.1  0.009003581    6.3573217  0.029893388 
number of iterations: 1728 
   13400    42.621966     3121          264         2857 2.6013603e-13 2.7584388e-13          0.1 0.0090036131    6.3103305  0.029893311 
number of iterations: 1719 
   13500    42.871285     3214          266         2948 2.635834e-13 2.8646911e-13          0.1 0.0090036473    6.2571353  0.029893231 
number of iterations: 1729 
   13600    43.083816     3320          269         3051 2.6707645e-13 2.9755785e-13          0.1 0.0090036773    6.1975059  0.029893156 
number of iterations: 1718 
   13700    43.401317     3476          275         3201 2.706158e-13 3.0890744e-13          0.1 0.0090037025    6.1314135  0.029893088 
number of iterations: 1737 
   13800    43.623588     3612          278         3334 2.7420205e-13 3.2075646e-13          0.1 0.0090037387    6.0586389  0.029893001 
number of iterations: 1701 
   13900    43.852011     3754          280         3474 2.7783583e-13 3.329944e-13          0.1 0.0090037693    5.9790859  0.029892924 
number of iterations: 1744 
   14000    44.068925     3882          282         3600 2.8151776e-13 3.4549554e-13          0.1 0.0090038085    5.8927958  0.029892833 
number of iterations: 1744 
   14100     44.29829     4017          286         3731 2.8524848e-13 3.5838125e-13          0.1 0.0090038473    5.7997307  0.029892741 
number of iterations: 1760 
   14200    44.548346     4136          287         3849 2.8902865e-13 3.7160369e-13          0.1  0.009003889    5.6999247  0.029892644 
number of iterations: 1751 
   14300    44.779915     4262          289         3973 2.9285891e-13 3.8539632e-13          0.1  0.009003928    5.5932449  0.029892552 
number of iterations: 1718 
   14400    45.071231     4417          291         4126 2.9673992e-13 3.9945005e-13          0.1  0.009003963    5.4798657  0.029892468 
number of iterations: 1747 
   14500    45.323721     4590          292         4298 3.0067237e-13 4.1374947e-13          0.1 0.0090039984    5.3600117  0.029892383 
number of iterations: 1745 
   14600    45.569555     4726          293         4433 3.0465694e-13 4.2786412e-13          0.1 0.0090040309    5.2343051  0.029892303 
number of iterations: 1754 
   14700    45.838276     4883          294         4589 3.0869431e-13 4.4312464e-13          0.1  0.009004071    5.1022869   0.02989221 
number of iterations: 1783 
   14800    46.096234     5050          296         4754 3.1278518e-13 4.5864397e-13          0.1 0.0090041172    4.9643128  0.029892108 
number of iterations: 1768 
   14900    46.369785     5218          301         4917 3.1693026e-13 4.7416069e-13          0.1  0.009004165    4.8209994  0.029892004 
number of iterations: 1765 
   15000    46.663328     5386          304         5082 3.2113028e-13 4.9030692e-13          0.1  0.009004204    4.6724902  0.029891916 
number of iterations: 1783 
   15100     46.89562     5571          309         5262 3.2538595e-13 5.0673829e-13          0.1 0.0090042591    4.5192756  0.029891803 
number of iterations: 1801 
   15200    47.157772     5748          316         5432 3.2969802e-13 5.2334656e-13          0.1 0.0090043058    4.3619904  0.029891704 
number of iterations: 1854 
   15300     47.42782     5941          323         5618 3.3406724e-13 5.3996324e-13          0.1 0.0090043584    4.2014513  0.029891597 
number of iterations: 1852 
   15400    47.694281     6140          325         5815 3.3849435e-13 5.5699747e-13          0.1 0.0090044222    4.0382026  0.029891474 
number of iterations: 1794 
   15500    47.957339     6323          329         5994 3.4298014e-13 5.7429555e-13          0.1 0.0090044808    3.8729703  0.029891362 
number of iterations: 1838 
   15600    48.347988     6512          331         6181 3.4752537e-13 5.9179072e-13          0.1 0.0090045531     3.706583  0.029891229 
number of iterations: 1769 
   15700    48.660432     6719          335         6384 3.5213084e-13  6.09471e-13          0.1 0.0090046087    3.5399234  0.029891126 
number of iterations: 1813 
   15800    48.959873     6912          338         6574 3.5679734e-13 6.2685737e-13          0.1 0.0090046797    3.3742463  0.029890999 
number of iterations: 1829 
   15900    49.240622     7105          345         6760 3.6152567e-13 6.4402955e-13          0.1 0.0090047519    3.2107325  0.029890874 
number of iterations: 1834 
   16000    49.518181     7290          351         6939 3.6631667e-13 6.6165007e-13          0.1 0.0090048228    3.0500894  0.029890752 
number of iterations: 1843 
   16100    49.817833     7481          357         7124 3.7117117e-13 6.7875464e-13          0.1 0.0090049044    2.8936759  0.029890616 
number of iterations: 1806 
   16200    50.116845     7679          367         7312 3.7608999e-13 6.9607672e-13          0.1 0.0090049811    2.7422868   0.02989049 
number of iterations: 1898 
   16300    50.425832     7880          371         7509  3.81074e-13 7.1311274e-13          0.1 0.0090050712    2.5969869  0.029890344 
number of iterations: 1901 
   16400    50.743766     8056          378         7678 3.8612405e-13 7.3027291e-13          0.1 0.0090051619    2.4584771  0.029890199 
number of iterations: 1839 
   16500    51.042342     8235          380         7855 3.9124103e-13 7.4720623e-13          0.1  0.009005255      2.32757  0.029890053 
number of iterations: 1825 
   16600    51.348048     8399          391         8008 3.9642583e-13 7.640462e-13          0.1 0.0090053294    2.2048522  0.029889939 
number of iterations: 1872 
   16700    51.671303     8568          392         8176 4.0167933e-13 7.7990042e-13          0.1 0.0090054327    2.0912442   0.02988978 
number of iterations: 1845 
   16800     52.06199     8754          402         8352 4.0700245e-13 7.9615075e-13          0.1 0.0090055202    1.9866719  0.029889647 
number of iterations: 1855 
   16900    52.377207     8944          411         8533 4.1239611e-13 8.1218619e-13          0.1 0.0090056149    1.8912724  0.029889502 
number of iterations: 1877 
   17000    52.722293     9105          415         8690 4.1786125e-13 8.2795686e-13          0.1 0.0090057257    1.8050348   0.02988933 
number of iterations: 1898 
   17100    53.060169     9291          419         8872 4.2339882e-13 8.4356027e-13          0.1 0.0090058314    1.7277397  0.029889166 
number of iterations: 1862 
   17200    53.495609     9467          424         9043 4.2900977e-13 8.5909432e-13          0.1  0.009005932    1.6589887  0.029889009 
number of iterations: 1861 
   17300    53.859381     9633          432         9201 4.3469508e-13 8.7428997e-13          0.1 0.0090060226    1.5984095  0.029888866 
number of iterations: 1917 
   17400    54.195381     9801          439         9362 4.4045573e-13 8.8939394e-13          0.1 0.0090061311    1.5454209  0.029888694 
number of iterations: 1976 
   17500    54.531647     9978          445         9533 4.4629272e-13 9.0445981e-13          0.1 0.0090062197    1.4993708  0.029888552 
number of iterations: 2037 
   17600    54.864148    10157          450         9707 4.5220706e-13 9.1893324e-13          0.1 0.0090063245    1.4598252  0.029888382 
number of iterations: 2096 
   17700    55.221866    10330          456         9874 4.5819978e-13 9.3403517e-13          0.1 0.0090064023    1.4257933  0.029888254 
number of iterations: 2143 
   17800    55.623843    10502          466        10036 4.6427192e-13 9.491225e-13          0.1 0.0090065001    1.3966439  0.029888092 
number of iterations: 2193 
   17900    55.980102    10681          475        10206 4.7042452e-13 9.6417837e-13          0.1  0.009006611    1.3717906  0.029887905 
number of iterations: 2236 
   18000    56.349477    10854          480        10374 4.7665866e-13 9.7929899e-13          0.1 0.0090067248     1.350652  0.029887711 
number of iterations: 2279 
   18100    56.727299    11021          485        10536 4.8297542e-13 9.9428516e-13          0.1  0.009006828    1.3327843  0.029887534 
number of iterations: 2317 
   18200    57.115008    11180          487        10693 4.8937588e-13 1.0094819e-12          0.1 0.0090069176    1.3176489  0.029887378 
number of iterations: 2349 
   18300    57.522848    11364          493        10871 4.9586117e-13 1.0247077e-12          0.1 0.0090069996    1.3048525  0.029887234 
number of iterations: 2384 
   18400    57.886562    11535          499        11036 5.024324e-13 1.0401525e-12          0.1 0.0090070962    1.2939795  0.029887063 
number of iterations: 2418 
   18500    58.453344    11720          508        11212 5.0909071e-13 1.055866e-12          0.1 0.0090071966    1.2846619  0.029886886 
number of iterations: 2446 
   18600     58.91476    11904          514        11390 5.1583726e-13 1.0715272e-12          0.1 0.0090072889    1.2767149  0.029886721 
number of iterations: 2474 
   18700    59.298928    12083          518        11565 5.2267321e-13 1.087572e-12          0.1 0.0090073901    1.2698143   0.02988654 
number of iterations: 2509 
   18800    59.721134    12283          525        11758 5.2959976e-13 1.1037521e-12          0.1 0.0090074891    1.2637921  0.029886362 
number of iterations: 2542 
   18900    60.121844    12441          533        11908 5.3661809e-13 1.1201332e-12          0.1 0.0090075809    1.2584839  0.029886195 
number of iterations: 2564 
   19000    60.518448    12631          541        12090 5.4372944e-13 1.1363024e-12          0.1 0.0090076884    1.2539113  0.029886003 
number of iterations: 2592 
   19100    60.897183    12821          544        12277 5.5093502e-13 1.1532223e-12          0.1 0.0090077997    1.2497243  0.029885803 
number of iterations: 2618 
   19200    61.318907    13014          554        12460 5.5823609e-13 1.1703326e-12          0.1 0.0090079231    1.2458635  0.029885582 
number of iterations: 2642 
   19300    61.732616    13177          558        12619 5.6563392e-13 1.1876483e-12          0.1 0.0090080231    1.2422766    0.0298854 
number of iterations: 2670 
   19400    62.125292    13357          565        12792 5.7312979e-13 1.2050196e-12          0.1   0.00900813    1.2389774  0.029885206 
number of iterations: 2692 
   19500    62.563803    13544          574        12970 5.8072499e-13 1.2225137e-12          0.1  0.009008246    1.2359497  0.029884997 
number of iterations: 2724 
   19600    62.984029    13746          578        13168 5.8842084e-13 1.2405283e-12          0.1 0.0090083621     1.233032  0.029884786 
number of iterations: 2750 
   19700    63.481697    13933          584        13349 5.9621867e-13 1.2588659e-12          0.1 0.0090084645     1.230179  0.029884599 
number of iterations: 2775 
   19800    63.885153    14125          586        13539 6.0411985e-13 1.2771324e-12          0.1 0.0090085771    1.2275025  0.029884394 
number of iterations: 2801 
   19900    64.330992    14336          591        13745 6.1212573e-13 1.2959481e-12          0.1 0.0090086891     1.224856   0.02988419 
number of iterations: 2828 
   20000    64.770389    14526          599        13927 6.2023771e-13 1.3145856e-12          0.1 0.0090088198    1.2224005  0.029883955 
number of iterations: 2853 
   20100    65.244245    14747          615        14132 6.2845718e-13 1.3337014e-12          0.1 0.0090089225    1.2200112  0.029883766 
number of iterations: 2878 
   20200    65.708802    14956          623        14333 6.3678559e-13 1.3525654e-12          0.1 0.0090090511     1.217866  0.029883534 
number of iterations: 2903 
   20300    66.160413    15159          628        14531 6.4522436e-13 1.3722905e-12          0.1 0.0090091672    1.2156828  0.029883322 
number of iterations: 2930 
   20400    66.636391    15398          637        14761 6.5377496e-13 1.3918267e-12          0.1 0.0090092879    1.2136478  0.029883103 
number of iterations: 2951 
   20500    67.102316    15609          643        14966 6.6243887e-13 1.4113991e-12          0.1 0.0090094256     1.211808  0.029882855 
number of iterations: 2974 
   20600     67.59306    15848          655        15193 6.712176e-13 1.4318883e-12          0.1 0.0090095466    1.2098757  0.029882634 
number of iterations: 3000 
   20700    68.054084    16049          662        15387 6.8011267e-13 1.4522435e-12          0.1  0.009009678     1.208037  0.029882396 
number of iterations: 3028 
   20800    68.553352    16275          671        15604 6.8912562e-13 1.4727869e-12          0.1 0.0090097999    1.2063015  0.029882172 
number of iterations: 3052 
   20900    69.104238    16508          681        15827  6.98258e-13 1.4939268e-12          0.1  0.009009925    1.2045279  0.029881944 
number of iterations: 3077 
   21000    69.599301    16744          691        16053 7.0751141e-13 1.5154545e-12          0.1 0.0090100554     1.202699  0.029881706 
number of iterations: 3102 
   21100     70.07829    16975          700        16275 7.1688744e-13 1.5367338e-12          0.1 0.0090101856    1.2010366  0.029881469 
number of iterations: 3127 
   21200    70.550842    17220          710        16510 7.2638773e-13 1.5585821e-12          0.1 0.0090103031     1.199391  0.029881252 
number of iterations: 3154 
   21300    71.076426    17457          717        16740 7.3601391e-13 1.5806194e-12          0.1 0.0090104384    1.1978022  0.029881005 
number of iterations: 3183 
   21400    71.585079    17700          726        16974 7.4576766e-13 1.6030381e-12          0.1 0.0090105749    1.1962274  0.029880756 
number of iterations: 3208 
   21500    72.150164    17951          737        17214 7.5565067e-13 1.6257613e-12          0.1 0.0090107365    1.1946674  0.029880464 
number of iterations: 3241 
   21600    72.673878    18218          745        17473 7.6566465e-13 1.6489741e-12          0.1 0.0090108544    1.1930595  0.029880245 
number of iterations: 3265 
   21700    73.221201    18478          756        17722 7.7581133e-13 1.6724467e-12          0.1  0.009010988    1.1914461  0.029880001 
number of iterations: 3295 
   21800    73.763058    18735          764        17971 7.8609248e-13 1.6959624e-12          0.1  0.009011115    1.1899353  0.029879766 
number of iterations: 3320 
   21900    74.310084    19031          780        18251 7.9650987e-13 1.7197854e-12          0.1 0.0090112719    1.1884998  0.029879482 
number of iterations: 3346 
   22000    74.849363    19302          792        18510 8.0706532e-13 1.7440437e-12          0.1 0.0090114025    1.1870778  0.029879242 
number of iterations: 3370 
   22100     75.42014    19569          805        18764 8.1776065e-13 1.7686361e-12          0.1 0.0090115587     1.185668  0.029878958 
number of iterations: 3403 
   22200    75.996527    19823          818        19005 8.2859771e-13 1.7937673e-12          0.1 0.0090117112     1.184199  0.029878679 
number of iterations: 3431 
   22300    76.580417    20121          826        19295 8.3957838e-13 1.8188226e-12          0.1 0.0090118848     1.182849  0.029878366 
number of iterations: 3456 
   22400    77.200482    20417          838        19579 8.5070458e-13 1.8443044e-12          0.1  0.009012035    1.1815455  0.029878092 
number of iterations: 3484 
   22500    77.787605    20703          855        19848 8.6197821e-13 1.8704049e-12          0.1  0.009012185    1.1801781  0.029877817 
number of iterations: 3516 
   22600    78.382516    21014          871        20143 8.7340125e-13 1.8970024e-12          0.1 0.0090123489     1.178727  0.029877518 
number of iterations: 3546 
   22700    79.002838    21298          882        20416 8.8497566e-13 1.9237136e-12          0.1 0.0090125277    1.1773221  0.029877194 
number of iterations: 3578 
   22800    79.621173    21575          895        20680 8.9670346e-13 1.9510457e-12          0.1 0.0090127075    1.1758581  0.029876868 
number of iterations: 3604 
   22900    80.234991    21880          901        20979 9.0858667e-13 1.9781872e-12          0.1 0.0090128773    1.1745681   0.02987656 
number of iterations: 3630 
   23000    80.849355    22170          920        21250 9.2062736e-13 2.0056472e-12          0.1 0.0090130684    1.1733998  0.029876216 
number of iterations: 3659 
   23100    81.451908    22502          934        21568 9.3282762e-13 2.0336287e-12          0.1 0.0090131911     1.172252  0.029875984 
number of iterations: 3689 
   23200    82.091611    22841          944        21897 9.4518955e-13 2.0622385e-12          0.1 0.0090133787    1.1710318  0.029875644 
number of iterations: 3721 
   23300    82.711405    23135          963        22172 9.577153e-13 2.0910469e-12          0.1 0.0090135736    1.1698442  0.029875293 
number of iterations: 3752 
   23400    83.341391    23443          972        22471 9.7040704e-13 2.120423e-12          0.1   0.00901373    1.1686176  0.029875003 
number of iterations: 3779 
   23500    83.999979    23763          983        22780 9.8326698e-13 2.1497059e-12          0.1 0.0090139161    1.1675499  0.029874665 
number of iterations: 3807 
   23600    84.641149    24109          995        23114 9.9629733e-13 2.1797626e-12          0.1 0.0090140896    1.1664373  0.029874347 
number of iterations: 3832 
   23700    85.323047    24458         1010        23448 1.0095004e-12 2.2105023e-12          0.1 0.0090142752    1.1652088  0.029874008 
number of iterations: 3861 
   23800    85.973724    24822         1015        23807 1.0228784e-12 2.2412191e-12          0.1  0.009014463    1.1640825  0.029873666 
number of iterations: 3883 
   23900    86.644353    25133         1030        24103 1.0364337e-12 2.2714429e-12          0.1 0.0090146521    1.1633356  0.029873321 
number of iterations: 3912 
   24000    87.335303    25488         1041        24447 1.0501686e-12 2.3030861e-12          0.1 0.0090148138    1.1624244   0.02987302 
number of iterations: 3941 
   24100    87.995584    25838         1054        24784 1.0640855e-12 2.3349412e-12          0.1 0.0090150136    1.1615113  0.029872656 
number of iterations: 3969 
   24200    88.665045    26193         1063        25130 1.0781869e-12 2.3668019e-12          0.1 0.0090152239    1.1607514  0.029872275 
number of iterations: 3995 
   24300    89.342737    26557         1080        25477 1.0924751e-12 2.3986661e-12          0.1 0.0090154375    1.1602179  0.029871887 
number of iterations: 4022 
   24400    90.024254    26905         1094        25811 1.1069527e-12 2.4321289e-12          0.1 0.0090156237    1.1593807  0.029871544 
number of iterations: 4054 
   24500    90.712545    27270         1106        26164 1.1216221e-12 2.4665623e-12          0.1 0.0090158079    1.1582241  0.029871204 
number of iterations: 4083 
   24600    91.453362    27661         1118        26543 1.136486e-12 2.5007861e-12          0.1 0.0090160269    1.1571667  0.029870807 
number of iterations: 4109 
   24700    92.189528    28037         1140        26897 1.1515468e-12 2.5356126e-12          0.1 0.0090162052    1.1561099  0.029870477 
number of iterations: 4135 
   24800    92.908793    28405         1157        27248 1.1668072e-12 2.5704448e-12          0.1 0.0090163971    1.1552237  0.029870123 
number of iterations: 4163 
   24900    93.638356    28805         1170        27635 1.1822698e-12 2.6054612e-12          0.1  0.009016588    1.1545149  0.029869771 
number of iterations: 4190 
   25000    94.354453    29192         1183        28009 1.1979373e-12 2.641207e-12          0.1 0.0090167921    1.1537946  0.029869396 
number of iterations: 4222 
   25100    95.081056    29581         1189        28392 1.2138125e-12 2.6780207e-12          0.1 0.0090170139    1.1528659  0.029868991 
number of iterations: 4252 
   25200    95.803002    29989         1201        28788 1.229898e-12 2.7151264e-12          0.1 0.0090172283    1.1519306  0.029868597 
number of iterations: 4280 
   25300    96.540474    30414         1220        29194 1.2461967e-12 2.7525936e-12          0.1 0.0090174747    1.1510469   0.02986815 
number of iterations: 4311 
   25400    97.293622    30819         1237        29582 1.2627114e-12 2.7895773e-12          0.1 0.0090176911    1.1505371  0.029867753 
number of iterations: 4338 
   25500     98.05146    31228         1255        29973 1.279445e-12 2.8279427e-12          0.1   0.00901792    1.1498594  0.029867335 
number of iterations: 4365 
   25600    98.918998    31650         1277        30373 1.2964003e-12 2.8671088e-12          0.1 0.0090181643     1.149023   0.02986689 
number of iterations: 4399 
   25700    99.687706    32105         1291        30814 1.3135803e-12 2.9067209e-12          0.1 0.0090183867    1.1481647  0.029866481 
number of iterations: 4427 
   25800    100.45845    32570         1306        31264 1.330988e-12 2.9466779e-12          0.1  0.009018621    1.1473688  0.029866052 
number of iterations: 4460 
   25900    101.24254    32994         1322        31672 1.3486263e-12 2.987365e-12          0.1  0.009018874    1.1465324   0.02986559 
number of iterations: 4487 
   26000    102.07206    33471         1333        32138 1.3664984e-12 3.0285138e-12          0.1 0.0090190745    1.1457184  0.029865216 
number of iterations: 4518 
   26100    102.89015    33974         1349        32625 1.3846073e-12 3.0702521e-12          0.1 0.0090193662    1.1449033   0.02986469 
number of iterations: 4551 
   26200    103.69648    34435         1363        33072 1.4029562e-12 3.1124395e-12          0.1  0.009019655    1.1441339  0.029864168 
number of iterations: 4581 
   26300    104.51072    34917         1374        33543 1.4215483e-12 3.1550911e-12          0.1 0.0090199143    1.1434185  0.029863694 
number of iterations: 4610 
   26400    105.36856    35354         1385        33969 1.4392149e-12 3.1981772e-12          0.1 0.0090201498    1.1418608   0.02986326 
number of iterations: 4640 
   26500    106.19547    35866         1414        34452 1.4582875e-12 3.242567e-12          0.1 0.0090204292    1.1407372  0.029862753 
number of iterations: 4674 
   26600     107.0441    36352         1436        34916 1.4776128e-12 3.2870308e-12          0.1 0.0090206517    1.1399248  0.029862339 
number of iterations: 4698 
   26700      107.906    36835         1463        35372 1.4971942e-12 3.3320081e-12          0.1 0.0090209179    1.1392286  0.029861853 
number of iterations: 4732 
   26800    108.77551    37311         1482        35829 1.5160802e-12 3.3781384e-12          0.1 0.0090212075    1.1376313  0.029861327 
number of iterations: 4764 
   26900    109.63641    37814         1504        36310 1.5351583e-12 3.4242969e-12          0.1 0.0090214503    1.1359966  0.029860879 
number of iterations: 4797 
   27000    110.53755    38351         1533        36818 1.5555023e-12 3.4707196e-12          0.1 0.0090217378    1.1352821  0.029860358 
number of iterations: 4834 
   27100     111.4366    38880         1550        37330 1.5751586e-12 3.5180836e-12          0.1 0.0090220138    1.1339165  0.029859852 
number of iterations: 4868 
   27200    112.44285    39409         1573        37836 1.5960327e-12 3.5662786e-12          0.1 0.0090222796    1.1331073  0.029859364 
number of iterations: 4900 
   27300    113.36269    39917         1591        38326 1.6158274e-12 3.6153298e-12          0.1 0.0090225778    1.1312831   0.02985882 
number of iterations: 4939 
   27400    114.32482    40463         1612        38851 1.6372404e-12 3.6643197e-12          0.1 0.0090228797    1.1306003  0.029858271 
number of iterations: 4969 
   27500    115.30732    41063         1639        39424 1.6576597e-12 3.7147012e-12          0.1 0.0090231695    1.1288688   0.02985774 
number of iterations: 5002 
   27600      116.268    41626         1664        39962 1.679627e-12 3.7654473e-12          0.1  0.009023456    1.1280923  0.029857216 
number of iterations: 5034 
   27700    117.21663    42205         1691        40514 1.7006001e-12 3.8170108e-12          0.1 0.0090237265    1.1264151  0.029856716 
number of iterations: 5065 
   27800    118.21718    42792         1713        41079 1.7231365e-12 3.8694626e-12          0.1 0.0090240288     1.125567  0.029856163 
number of iterations: 5099 
   27900    119.20133    43381         1734        41647 1.7459716e-12 3.9218772e-12          0.1 0.0090243453    1.1250843  0.029855588 
number of iterations: 5132 
   28000    120.20462    43981         1752        42229 1.7691092e-12 3.9755576e-12          0.1 0.0090246613    1.1244497   0.02985501 
number of iterations: 5163 
   28100    121.20774    44538         1777        42761 1.7925535e-12 4.029118e-12          0.1 0.0090249991    1.1240962  0.029854397 
number of iterations: 5195 
   28200    122.27981    45087         1804        43283 1.8163085e-12 4.0837061e-12          0.1  0.009025321    1.1236606  0.029853807 
number of iterations: 5227 
   28300    123.27993    45649         1832        43817 1.8403783e-12 4.138994e-12          0.1 0.0090256015    1.1232344  0.029853285 
number of iterations: 5256 
   28400    124.29556    46295         1860        44435 1.864767e-12 4.1955386e-12          0.1 0.0090259438    1.1226317  0.029852658 
number of iterations: 5287 
   28500    125.34463    46978         1884        45094 1.889479e-12 4.2519205e-12          0.1 0.0090263025    1.1223461  0.029852007 
number of iterations: 5317 
   28600    126.40431    47602         1907        45695 1.9145184e-12 4.3097162e-12          0.1 0.0090266326    1.1218432  0.029851401 
number of iterations: 5351 
   28700    127.45084    48247         1932        46315 1.9398896e-12 4.3686531e-12          0.1 0.0090269843    1.1212121  0.029850758 
number of iterations: 5381 
   28800    128.49332    48875         1956        46919 1.9655971e-12 4.4282233e-12          0.1 0.0090273097     1.120644  0.029850159 
number of iterations: 5416 
   28900    129.57451    49529         1982        47547 1.9916452e-12 4.4885586e-12          0.1 0.0090276867    1.1200905   0.02984947 
number of iterations: 5447 
   29000    130.63245    50181         2003        48178 2.0171015e-12 4.5488052e-12          0.1 0.0090280325    1.1191194  0.029848836 
number of iterations: 5478 
   29100    131.73175    50840         2028        48812 2.0425579e-12 4.6106374e-12          0.1 0.0090283935    1.1176497  0.029848177 
number of iterations: 5512 
   29200    132.82748    51538         2056        49482 2.0696259e-12 4.6734587e-12          0.1 0.0090287337    1.1171649   0.02984755 
number of iterations: 5545 
   29300     133.9454    52273         2078        50195 2.0958085e-12 4.7373022e-12          0.1 0.0090290771    1.1155766  0.029846916 
number of iterations: 5573 
   29400    135.05939    52989         2098        50891 2.1213969e-12 4.8005972e-12          0.1 0.0090294209    1.1138613  0.029846285 
number of iterations: 5611 
   29500    136.17514    53663         2118        51545 2.1472217e-12 4.8655502e-12          0.1 0.0090297662    1.1118265   0.02984565 
number of iterations: 5649 
   29600    137.34005    54376         2140        52236 2.1745864e-12 4.9322895e-12          0.1 0.0090301227    1.1104778  0.029844998 
number of iterations: 5681 
   29700    138.48883    55070         2168        52902 2.203404e-12 4.9991947e-12          0.1 0.0090305499    1.1101552  0.029844224 
number of iterations: 5715 
   29800    139.64368    55818         2192        53626 2.2294625e-12 5.0666025e-12          0.1 0.0090308865    1.1073527  0.029843598 
number of iterations: 5756 
   29900    140.80984    56586         2227        54359 2.2590074e-12 5.1352349e-12          0.1 0.0090313448    1.1073681  0.029842777 
number of iterations: 5791 
   30000    142.03654    57323         2245        55078 2.2856275e-12 5.2046465e-12          0.1 0.0090316608    1.1043023  0.029842182 
number of iterations: 5826 
   30100    143.22601    58161         2283        55878 2.3159166e-12 5.274768e-12          0.1 0.0090320848    1.1045919  0.029841418 
number of iterations: 5852 
   30200    144.42569    58987         2311        56676 2.3466071e-12 5.3462424e-12          0.1 0.0090325093    1.1039813   0.02984064 
number of iterations: 5881 
   30300    145.66192    59771         2345        57426 2.3777043e-12 5.4183783e-12          0.1 0.0090329597    1.1036976   0.02983982 
number of iterations: 5917 
   30400    146.87627    60552         2372        58180 2.4092136e-12 5.4909795e-12          0.1 0.0090333709    1.1035015  0.029839064 
number of iterations: 5949 
   30500     148.1017    61352         2398        58954 2.4391146e-12 5.5640282e-12          0.1 0.0090337313    1.1018737  0.029838395 
number of iterations: 5984 
   30600    149.35343    62207         2413        59794 2.4702284e-12 5.6385414e-12          0.1 0.0090341257    1.1011667  0.029837672 
number of iterations: 6014 
   30700    150.61369    63008         2447        60561 2.5029638e-12 5.713857e-12          0.1 0.0090345803    1.1011963  0.029836843 
number of iterations: 6043 
   30800    151.93831    63918         2475        61443 2.5338855e-12 5.7901258e-12          0.1 0.0090349614    1.0992323  0.029836135 
number of iterations: 6084 
   30900    153.26172    64798         2499        62299 2.5653576e-12 5.8683494e-12          0.1 0.0090354915    1.0977898  0.029835182 
number of iterations: 6112 
   31000    154.57847    65746         2543        63203 2.5993537e-12 5.9466188e-12          0.1 0.0090359591    1.0981765  0.029834333 
number of iterations: 6140 
   31100    155.95947    66598         2584        64014 2.6308556e-12 6.0256939e-12          0.1 0.0090364718    1.0956053    0.0298334 
number of iterations: 6177 
   31200    157.28665    67477         2618        64859 2.6657196e-12 6.1064734e-12          0.1  0.009037033    1.0963824  0.029832396 
number of iterations: 6205 
   31300    158.62283    68399         2646        65753 2.6934798e-12 6.1870408e-12          0.1 0.0090373216    1.0902185  0.029831834 
number of iterations: 6260 
   31400    160.01633    69343         2678        66665 2.7265746e-12 6.269094e-12          0.1 0.0090378616    1.0910491   0.02983088 
number of iterations: 6292 
   31500    161.46691    70286         2710        67576 2.7585308e-12 6.3520847e-12          0.1 0.0090382736    1.0873915   0.02983011 
number of iterations: 6336 
   31600    162.92906    71209         2738        68471 2.7931717e-12 6.4366022e-12          0.1 0.0090387901    1.0876446  0.029829184 
number of iterations: 6373 
   31700    164.36001    72165         2769        69396 2.8256341e-12 6.5230342e-12          0.1 0.0090392407    1.0835399  0.029828349 
number of iterations: 6419 
   31800    165.83995    73050         2811        70239 2.8618126e-12 6.6082525e-12          0.1 0.0090397376    1.0852433  0.029827457 
number of iterations: 6453 
   31900    167.30762    74010         2848        71162 2.8970981e-12 6.6959787e-12          0.1 0.0090401947    1.0821203  0.029826602 
number of iterations: 6507 
   32000    168.81023    74914         2878        72036 2.9271895e-12 6.7834321e-12          0.1 0.0090405863       1.0779  0.029825881 
number of iterations: 6548 
   32100    170.30345    75882         2908        72974 2.9649221e-12 6.8721933e-12          0.1 0.0090411383    1.0800887  0.029824895 
number of iterations: 6576 
   32200    171.80036    76847         2951        73896 3.0022674e-12 6.9618645e-12          0.1 0.0090416018    1.0776029  0.029824025 
number of iterations: 6628 
   32300    173.31677    77801         2983        74818 3.0360324e-12 7.0526581e-12          0.1 0.0090420537    1.0750131  0.029823197 
number of iterations: 6674 
   32400    174.86839    78784         3021        75763 3.0707791e-12 7.1437769e-12          0.1  0.009042524    1.0732787  0.029822339 
number of iterations: 6714 
   32500    176.45157    79787         3056        76731 3.1072098e-12 7.2361889e-12          0.1  0.009043014      1.07192  0.029821442 
number of iterations: 6759 
   32600    178.04817    80850         3102        77748 3.1444093e-12 7.330128e-12          0.1 0.0090435274    1.0704389  0.029820504 
number of iterations: 6807 
   32700    179.69361    81929         3148        78781 3.1801428e-12 7.4247754e-12          0.1 0.0090439664    1.0677312  0.029819688 
number of iterations: 6850 
   32800    181.33705    82959         3195        79764 3.2173575e-12 7.5199935e-12          0.1 0.0090444929    1.0670586  0.029818733 
number of iterations: 6886 
   32900    183.01708    84085         3227        80858 3.2532145e-12 7.6179218e-12          0.1 0.0090449735    1.0628279  0.029817844 
number of iterations: 6945 
   33000    184.82851    85116         3255        81861 3.2866128e-12 7.7164702e-12          0.1 0.0090454623    1.0595169  0.029816955 
number of iterations: 6999 
   33100    186.51998    86232         3297        82935 3.3211305e-12 7.814807e-12          0.1 0.0090458636    1.0565745  0.029816212 
number of iterations: 7044 
   33200     188.2116    87334         3325        84009 3.3599579e-12 7.9157562e-12          0.1 0.0090464129    1.0559897  0.029815216 
number of iterations: 7089 
   33300    189.91428    88440         3354        85086 3.3935597e-12 8.0159266e-12          0.1 0.0090468467     1.049469  0.029814401 
number of iterations: 7155 
   33400    191.68758    89545         3386        86159 3.4304449e-12 8.1164523e-12          0.1 0.0090473954    1.0511925  0.029813426 
number of iterations: 7197 
   33500    193.47329    90635         3411        87224 3.4638201e-12 8.2164935e-12          0.1 0.0090478379     1.042442  0.029812586 
number of iterations: 7275 
   33600    195.30216    91778         3463        88315 3.4997331e-12 8.3204351e-12          0.1 0.0090483853    1.0449979  0.029811623 
number of iterations: 7292 
   33700    197.09469    92932         3514        89418 3.5427761e-12 8.4221477e-12          0.1 0.0090489319    1.0425402  0.029810602 
number of iterations: 7338 
   33800    198.96408    94081         3556        90525 3.583287e-12 8.5254509e-12          0.1 0.0090494394    1.0428207  0.029809674 
number of iterations: 7376 
   33900    200.81869    95255         3598        91657 3.6250369e-12 8.6296977e-12          0.1 0.0090499369    1.0408653  0.029808745 
number of iterations: 7419 
   34000    202.70717    96392         3638        92754 3.6686247e-12 8.7365319e-12          0.1 0.0090505633    1.0420073  0.029807616 
number of iterations: 7449 
   34100    204.59638    97501         3663        93838 3.7101982e-12 8.8426121e-12          0.1  0.009051128    1.0383346  0.029806571 
number of iterations: 7503 
   34200    206.55789    98707         3702        95005 3.7501729e-12 8.9517176e-12          0.1 0.0090517249    1.0380281  0.029805496 
number of iterations: 7534 
   34300    208.47163    99887         3741        96146 3.7919869e-12 9.0599459e-12          0.1 0.0090523064    1.0355813  0.029804429 
number of iterations: 7585 
   34400    210.40563   101050         3779        97271 3.8303602e-12 9.1682391e-12          0.1 0.0090528255    1.0330596  0.029803479 
number of iterations: 7637 
   34500    212.39768   102298         3830        98468 3.8693354e-12 9.2800275e-12          0.1 0.0090532438    1.0300946  0.029802694 
number of iterations: 7745 
   34600    214.38619   103587         3865        99722 3.9085821e-12 9.3924452e-12          0.1 0.0090537642    1.0278602   0.02980174 
number of iterations: 7799 
   34700    216.45337   104743         3900       100843 3.9508788e-12 9.5035431e-12          0.1 0.0090543109     1.027656  0.029800739 
number of iterations: 7862 
   34800    218.52081   105908         3947       101961 3.9951011e-12 9.6176278e-12          0.1 0.0090549006    1.0253622  0.029799653 
number of iterations: 7938 
   34900    220.59073   107177         3983       103194 4.0348499e-12 9.7311738e-12          0.1 0.0090554279    1.0226116  0.029798682 
number of iterations: 8047 
   35000    222.71503   108560         4024       104536 4.0781474e-12 9.8484468e-12          0.1 0.0090559843     1.022258  0.029797664 
Loop time of 222.715 on 32 procs for 35000 steps with 108560 atoms

Performance: 135778861.022 tau/day, 157.151 timesteps/s
93.1% CPU use with 32 MPI tasks x no OpenMP threads

MPI task timing breakdown:
Section |  min time  |  avg time  |  max time  |%varavg| %total
---------------------------------------------------------------
Pair    | 1.108      | 5.8648     | 17.555     | 164.9 |  2.63
Neigh   | 0.40316    | 1.8593     | 4.5166     |  72.4 |  0.83
Comm    | 1.1065     | 2.0193     | 2.8972     |  33.4 |  0.91
Output  | 59.481     | 59.482     | 59.49      |   0.0 | 26.71
Modify  | 135.69     | 136.19     | 137        |   2.6 | 61.15
Other   |            | 17.3       |            |       |  7.77

Nlocal:    3392.5 ave 5883 max 1679 min
Histogram: 6 5 4 2 2 3 3 3 2 2
Nghost:    1972.47 ave 3873 max 487 min
Histogram: 1 2 8 7 4 4 1 2 1 2
Neighs:    30049.8 ave 67471 max 12323 min
Histogram: 8 6 3 4 2 3 3 1 0 2

Total # of neighbors = 961593
Ave neighs/atom = 8.85771
Neighbor list builds = 850
Dangerous builds = 0
#shell cd ..
#clear
#next reps
#jump SELF
Total wall time: 0:03:43
