 NUFEB Simulation

     100 atoms 
     2 atom types 
     4 nutrients 

  0.0e-4   1.00e-04  xlo xhi 
  0.0e-4   1.00e-04  ylo yhi 
  0.0e-4   1.00e-05  zlo zhi 

 Atoms 

     1 1 1.61e-06  370 5.39e-05 3.70e-05 4.20e-06 1.61e-06 
     2 1 1.43e-06  370 9.12e-05 8.59e-06 8.50e-06 1.43e-06 
     3 1 1.52e-06  370 7.13e-05 7.72e-05 1.72e-06 1.52e-06 
     4 1 1.72e-06  370 2.18e-05 6.27e-05 3.61e-06 1.72e-06 
     5 1 1.94e-06  370 2.65e-05 8.01e-06 7.70e-06 1.94e-06 
     6 1 1.68e-06  370 4.93e-05 6.37e-05 2.58e-06 1.68e-06 
     7 1 1.52e-06  370 9.25e-05 6.08e-05 7.60e-06 1.52e-06 
     8 1 1.68e-06  370 1.83e-05 4.90e-06 2.84e-06 1.68e-06 
     9 1 1.92e-06  370 4.47e-06 7.43e-05 2.74e-06 1.92e-06 
     10 1 1.91e-06  370 1.55e-05 4.77e-05 1.98e-06 1.91e-06 
     11 1 1.49e-06  370 4.91e-05 1.52e-05 4.27e-06 1.49e-06 
     12 1 1.80e-06  370 7.09e-05 4.94e-05 5.90e-06 1.80e-06 
     13 1 1.67e-06  370 6.79e-05 3.96e-05 5.72e-06 1.67e-06 
     14 1 1.68e-06  370 1.27e-05 5.72e-05 1.71e-06 1.68e-06 
     15 1 1.60e-06  370 6.07e-05 2.49e-05 2.83e-06 1.60e-06 
     16 1 1.63e-06  370 8.20e-05 1.26e-05 5.85e-06 1.63e-06 
     17 1 1.64e-06  370 5.03e-05 3.46e-05 2.41e-06 1.64e-06 
     18 1 1.80e-06  370 5.20e-05 9.35e-05 4.21e-06 1.80e-06 
     19 1 1.63e-06  370 1.98e-05 6.70e-05 7.05e-06 1.63e-06 
     20 1 1.40e-06  370 8.44e-05 9.42e-05 2.72e-06 1.40e-06 
     21 1 1.40e-06  370 6.57e-05 3.59e-05 3.15e-06 1.40e-06 
     22 1 1.42e-06  370 6.69e-05 4.72e-05 7.97e-06 1.42e-06 
     23 1 1.44e-06  370 8.65e-05 3.14e-05 6.78e-06 1.44e-06 
     24 1 1.74e-06  370 7.04e-06 3.91e-06 6.10e-06 1.74e-06 
     25 1 1.39e-06  370 1.35e-05 2.93e-05 8.33e-06 1.39e-06 
     26 1 1.70e-06  370 5.58e-05 5.67e-05 4.23e-06 1.70e-06 
     27 1 1.40e-06  370 8.42e-05 4.79e-06 6.90e-06 1.40e-06 
     28 1 1.73e-06  370 9.47e-05 5.92e-05 3.01e-06 1.73e-06 
     29 1 1.79e-06  370 6.26e-05 6.00e-05 7.66e-06 1.79e-06 
     30 1 1.92e-06  370 4.95e-05 5.33e-05 2.66e-06 1.92e-06 
     31 1 1.83e-06  370 8.61e-05 4.81e-05 2.02e-06 1.83e-06 
     32 1 1.85e-06  370 4.26e-05 7.68e-05 3.92e-06 1.85e-06 
     33 1 1.88e-06  370 1.42e-05 5.52e-05 2.97e-06 1.88e-06 
     34 1 1.47e-06  370 9.80e-05 4.73e-05 7.02e-06 1.47e-06 
     35 1 1.78e-06  370 5.22e-05 9.28e-05 2.99e-06 1.78e-06 
     36 1 1.74e-06  370 6.67e-05 1.92e-05 8.24e-06 1.74e-06 
     37 1 1.52e-06  370 5.85e-05 5.13e-05 7.47e-06 1.52e-06 
     38 1 1.58e-06  370 8.88e-05 4.51e-05 6.12e-06 1.58e-06 
     39 1 1.53e-06  370 3.76e-05 8.59e-05 4.33e-06 1.53e-06 
     40 1 1.71e-06  370 6.28e-05 7.73e-05 4.41e-06 1.71e-06 
     41 1 1.49e-06  370 5.65e-05 1.47e-05 6.70e-06 1.49e-06 
     42 1 1.73e-06  370 9.23e-05 6.24e-05 6.74e-06 1.73e-06 
     43 1 1.64e-06  370 4.00e-05 6.71e-05 3.69e-06 1.64e-06 
     44 1 1.44e-06  370 8.27e-05 5.82e-05 2.57e-06 1.44e-06 
     45 1 1.45e-06  370 3.17e-05 3.82e-05 8.19e-06 1.45e-06 
     46 1 1.50e-06  370 7.56e-05 1.64e-05 3.65e-06 1.50e-06 
     47 1 1.46e-06  370 1.19e-05 5.59e-05 4.56e-06 1.46e-06 
     48 1 1.46e-06  370 5.18e-05 4.60e-05 5.40e-06 1.46e-06 
     49 1 1.70e-06  370 4.72e-05 5.74e-05 2.38e-06 1.70e-06 
     50 1 1.63e-06  370 2.14e-06 3.20e-05 7.57e-06 1.63e-06 
     51 2 9.36e-07  230 6.98e-05 6.69e-05 8.12e-06 9.36e-07 
     52 2 1.18e-06  230 3.57e-05 9.14e-05 4.34e-06 1.18e-06 
     53 2 1.36e-06  230 7.56e-05 6.14e-05 4.78e-06 1.36e-06 
     54 2 1.10e-06  230 2.49e-05 9.14e-05 2.88e-06 1.10e-06 
     55 2 1.25e-06  230 5.83e-05 8.67e-05 5.26e-06 1.25e-06 
     56 2 1.27e-06  230 8.46e-06 9.38e-05 1.70e-06 1.27e-06 
     57 2 1.32e-06  230 5.13e-05 6.33e-05 7.66e-06 1.32e-06 
     58 2 1.15e-06  230 2.20e-06 8.44e-05 6.28e-06 1.15e-06 
     59 2 1.15e-06  230 4.24e-05 1.31e-05 2.62e-06 1.15e-06 
     60 2 1.09e-06  230 1.60e-06 4.15e-05 6.03e-06 1.09e-06 
     61 2 1.10e-06  230 7.93e-05 8.38e-05 4.56e-06 1.10e-06 
     62 2 1.02e-06  230 9.79e-05 5.12e-06 2.84e-06 1.02e-06 
     63 2 1.29e-06  230 8.94e-05 4.89e-05 8.14e-06 1.29e-06 
     64 2 1.14e-06  230 1.30e-05 5.92e-05 2.40e-06 1.14e-06 
     65 2 1.25e-06  230 3.90e-05 9.23e-05 5.94e-06 1.25e-06 
     66 2 1.34e-06  230 9.54e-05 7.31e-06 8.29e-06 1.34e-06 
     67 2 1.31e-06  230 6.91e-05 2.46e-05 1.53e-06 1.31e-06 
     68 2 1.01e-06  230 9.15e-05 3.21e-05 3.82e-06 1.01e-06 
     69 2 1.22e-06  230 2.47e-05 1.47e-05 3.36e-06 1.22e-06 
     70 2 9.12e-07  230 6.83e-05 9.17e-05 5.67e-06 9.12e-07 
     71 2 1.23e-06  230 3.70e-05 1.31e-05 5.75e-06 1.23e-06 
     72 2 1.01e-06  230 8.65e-05 5.75e-05 8.82e-06 1.01e-06 
     73 2 1.27e-06  230 6.92e-05 1.75e-05 1.43e-06 1.27e-06 
     74 2 1.03e-06  230 2.85e-05 1.34e-05 8.08e-06 1.03e-06 
     75 2 1.27e-06  230 5.70e-05 6.33e-05 8.06e-06 1.27e-06 
     76 2 1.07e-06  230 6.19e-06 1.99e-05 1.65e-06 1.07e-06 
     77 2 9.71e-07  230 3.50e-05 9.02e-05 1.29e-06 9.71e-07 
     78 2 1.00e-06  230 5.55e-05 3.21e-05 1.14e-06 1.00e-06 
     79 2 1.01e-06  230 3.83e-05 7.16e-05 2.80e-06 1.01e-06 
     80 2 1.28e-06  230 5.74e-05 9.00e-05 7.11e-06 1.28e-06 
     81 2 1.18e-06  230 9.23e-05 2.22e-05 3.26e-06 1.18e-06 
     82 2 9.12e-07  230 9.01e-05 1.15e-05 1.95e-06 9.12e-07 
     83 2 1.02e-06  230 7.52e-05 3.87e-05 8.88e-06 1.02e-06 
     84 2 1.11e-06  230 7.13e-06 1.83e-06 4.89e-06 1.11e-06 
     85 2 1.32e-06  230 6.24e-05 2.24e-06 2.42e-06 1.32e-06 
     86 2 9.04e-07  230 8.87e-05 8.86e-05 2.04e-06 9.04e-07 
     87 2 1.39e-06  230 7.53e-05 6.47e-05 2.77e-06 1.39e-06 
     88 2 1.12e-06  230 3.72e-05 6.77e-05 5.92e-06 1.12e-06 
     89 2 1.18e-06  230 3.99e-05 5.06e-05 8.51e-06 1.18e-06 
     90 2 1.25e-06  230 2.38e-05 2.33e-05 8.43e-06 1.25e-06 
     91 2 1.26e-06  230 2.80e-06 3.53e-05 3.92e-06 1.26e-06 
     92 2 9.72e-07  230 6.54e-05 7.51e-05 8.41e-06 9.72e-07 
     93 2 1.22e-06  230 2.13e-05 6.55e-05 6.42e-06 1.22e-06 
     94 2 1.05e-06  230 6.63e-05 5.29e-05 2.01e-06 1.05e-06 
     95 2 1.26e-06  230 6.39e-05 6.27e-05 4.73e-06 1.26e-06 
     96 2 9.70e-07  230 8.89e-05 2.86e-05 2.03e-06 9.70e-07 
     97 2 1.11e-06  230 4.51e-05 8.40e-05 7.76e-06 1.11e-06 
     98 2 9.80e-07  230 1.39e-05 4.19e-05 3.92e-06 9.80e-07 
     99 2 9.98e-07  230 7.42e-05 6.46e-05 7.43e-06 9.98e-07 
     100 2 9.88e-07  230 5.97e-05 7.73e-05 8.52e-06 9.88e-07 

 Nutrients 

     1 sub g nn nn nn 1.00e-01 1.00e-01 
     2 o2 l nn nn nd 9.00e-03 9.00e-03 
     3 suc l nn nn nn 3.42e-20 3.42e-20 
     4 co2 l nn nn nd 2.99e-02 2.99e-02 

 Type Name 

     1 cyano  
     2 ecw  

 Diffusion Coeffs 

     sub 0 
     o2 2.3e-09 
     suc 5.2e-10 
     co2 1.9e-09 

 Growth Rate 

     cyano 1.67e-05 
     ecw 9e-06 

 Ks 

     cyano 0.00035 0.0002 0.01 0.000138 
     ecw 0 0.001 3.6 0.05 

 Yield 

     cyano 0.55 
     ecw 0.43 

 Maintenance 

     cyano 0 
     ecw 9.5e-07 

 Decay 

     cyano 0 
     ecw 0 



