 NUFEB Simulation

     100 atoms 
     2 atom types 
     4 nutrients 

  0.0e-4   1.00e-04  xlo xhi 
  0.0e-4   1.00e-04  ylo yhi 
  0.0e-4   1.00e-05  zlo zhi 

 Atoms 

     1 1 1.76e-06  370 8.70e-05 9.20e-06 7.92e-06 1.76e-06 
     2 1 1.88e-06  370 2.37e-05 4.47e-05 2.77e-06 1.88e-06 
     3 1 1.62e-06  370 2.26e-05 2.62e-05 4.15e-06 1.62e-06 
     4 1 1.79e-06  370 1.57e-05 9.42e-05 6.68e-06 1.79e-06 
     5 1 1.70e-06  370 2.97e-05 4.20e-05 5.89e-06 1.70e-06 
     6 1 1.75e-06  370 9.50e-05 8.50e-05 3.41e-06 1.75e-06 
     7 1 1.46e-06  370 2.59e-05 2.58e-05 3.54e-06 1.46e-06 
     8 1 1.93e-06  370 6.90e-05 4.07e-05 7.85e-06 1.93e-06 
     9 1 1.90e-06  370 6.20e-05 2.05e-05 3.82e-06 1.90e-06 
     10 1 1.49e-06  370 4.48e-05 6.71e-05 2.59e-06 1.49e-06 
     11 1 1.50e-06  370 4.77e-06 1.27e-05 6.29e-06 1.50e-06 
     12 1 1.68e-06  370 5.05e-05 5.97e-05 6.87e-06 1.68e-06 
     13 1 1.37e-06  370 4.82e-05 7.82e-05 8.11e-06 1.37e-06 
     14 1 1.80e-06  370 8.21e-05 2.51e-05 5.77e-06 1.80e-06 
     15 1 1.74e-06  370 5.71e-05 8.93e-06 8.03e-06 1.74e-06 
     16 1 1.92e-06  370 8.78e-05 5.91e-05 4.91e-06 1.92e-06 
     17 1 1.83e-06  370 9.56e-05 3.85e-05 3.14e-06 1.83e-06 
     18 1 1.83e-06  370 5.72e-05 2.97e-05 4.23e-06 1.83e-06 
     19 1 1.78e-06  370 6.46e-05 1.11e-05 3.85e-06 1.78e-06 
     20 1 1.37e-06  370 2.87e-05 3.75e-05 8.44e-06 1.37e-06 
     21 1 1.41e-06  370 5.45e-05 8.77e-05 7.98e-06 1.41e-06 
     22 1 1.51e-06  370 7.25e-05 5.07e-05 4.44e-06 1.51e-06 
     23 1 1.45e-06  370 7.09e-05 4.65e-05 4.46e-06 1.45e-06 
     24 1 1.92e-06  370 4.67e-05 4.11e-05 3.17e-06 1.92e-06 
     25 1 1.72e-06  370 5.25e-06 6.69e-05 6.85e-06 1.72e-06 
     26 1 1.87e-06  370 5.67e-05 3.17e-05 3.75e-06 1.87e-06 
     27 1 1.91e-06  370 5.26e-05 5.00e-05 3.58e-06 1.91e-06 
     28 1 1.49e-06  370 3.77e-05 4.60e-05 4.48e-06 1.49e-06 
     29 1 1.86e-06  370 9.39e-05 6.24e-05 2.49e-06 1.86e-06 
     30 1 1.74e-06  370 5.90e-05 5.36e-05 2.65e-06 1.74e-06 
     31 1 1.69e-06  370 2.23e-05 9.23e-05 6.69e-06 1.69e-06 
     32 1 1.91e-06  370 4.76e-06 7.13e-05 4.00e-06 1.91e-06 
     33 1 1.50e-06  370 1.82e-05 3.20e-05 1.69e-06 1.50e-06 
     34 1 1.43e-06  370 2.45e-05 9.03e-05 5.56e-06 1.43e-06 
     35 1 1.41e-06  370 6.12e-05 3.12e-05 3.60e-06 1.41e-06 
     36 1 1.42e-06  370 8.07e-05 9.13e-05 2.45e-06 1.42e-06 
     37 1 1.71e-06  370 3.72e-05 2.16e-05 7.20e-06 1.71e-06 
     38 1 1.75e-06  370 4.13e-05 8.91e-06 4.45e-06 1.75e-06 
     39 1 1.50e-06  370 5.03e-05 6.42e-05 7.17e-06 1.50e-06 
     40 1 1.59e-06  370 6.18e-05 1.22e-05 7.01e-06 1.59e-06 
     41 1 1.77e-06  370 6.82e-06 7.54e-05 2.72e-06 1.77e-06 
     42 1 1.83e-06  370 5.07e-05 6.70e-05 7.51e-06 1.83e-06 
     43 1 1.67e-06  370 7.11e-05 6.25e-05 2.99e-06 1.67e-06 
     44 1 1.44e-06  370 3.25e-05 4.22e-05 2.08e-06 1.44e-06 
     45 1 1.75e-06  370 7.65e-05 5.31e-05 5.73e-06 1.75e-06 
     46 1 1.89e-06  370 2.70e-05 4.64e-05 5.59e-06 1.89e-06 
     47 1 1.84e-06  370 1.43e-05 2.33e-05 2.87e-06 1.84e-06 
     48 1 1.86e-06  370 8.80e-05 9.57e-05 3.37e-06 1.86e-06 
     49 1 1.93e-06  370 7.72e-05 1.31e-05 4.73e-06 1.93e-06 
     50 1 1.87e-06  370 8.86e-05 8.73e-05 2.10e-06 1.87e-06 
     51 2 1.15e-06  230 3.00e-05 5.36e-05 3.65e-06 1.15e-06 
     52 2 1.07e-06  230 8.02e-05 2.13e-05 1.38e-06 1.07e-06 
     53 2 1.29e-06  230 9.33e-05 3.93e-05 1.63e-06 1.29e-06 
     54 2 8.81e-07  230 5.92e-05 1.08e-05 3.12e-06 8.81e-07 
     55 2 9.77e-07  230 1.91e-05 8.28e-05 3.78e-06 9.77e-07 
     56 2 1.14e-06  230 8.40e-05 7.03e-05 2.02e-06 1.14e-06 
     57 2 1.37e-06  230 3.17e-05 2.01e-05 7.03e-06 1.37e-06 
     58 2 1.33e-06  230 5.51e-05 7.02e-05 6.79e-06 1.33e-06 
     59 2 9.76e-07  230 1.91e-05 2.67e-05 6.40e-06 9.76e-07 
     60 2 1.05e-06  230 4.34e-05 2.83e-05 8.58e-06 1.05e-06 
     61 2 1.13e-06  230 9.24e-05 6.69e-05 7.54e-06 1.13e-06 
     62 2 1.10e-06  230 8.09e-05 1.18e-05 2.31e-06 1.10e-06 
     63 2 1.17e-06  230 5.95e-05 9.68e-05 2.68e-06 1.17e-06 
     64 2 1.03e-06  230 2.03e-05 2.82e-05 4.50e-06 1.03e-06 
     65 2 1.22e-06  230 6.84e-05 9.82e-05 2.49e-06 1.22e-06 
     66 2 1.17e-06  230 2.60e-05 6.08e-05 4.13e-06 1.17e-06 
     67 2 1.33e-06  230 2.84e-05 5.87e-05 4.57e-06 1.33e-06 
     68 2 1.30e-06  230 6.06e-06 4.36e-05 1.35e-06 1.30e-06 
     69 2 1.14e-06  230 7.80e-05 8.48e-05 2.56e-06 1.14e-06 
     70 2 1.10e-06  230 3.17e-05 7.53e-05 2.55e-06 1.10e-06 
     71 2 1.04e-06  230 2.13e-05 5.21e-05 2.95e-06 1.04e-06 
     72 2 1.32e-06  230 5.30e-05 4.82e-05 2.69e-06 1.32e-06 
     73 2 9.52e-07  230 2.19e-05 4.26e-05 4.15e-06 9.52e-07 
     74 2 1.30e-06  230 4.06e-06 3.91e-05 6.72e-06 1.30e-06 
     75 2 1.10e-06  230 2.57e-05 4.96e-05 8.54e-06 1.10e-06 
     76 2 1.34e-06  230 9.20e-06 7.42e-05 8.29e-06 1.34e-06 
     77 2 9.12e-07  230 6.68e-05 4.84e-05 3.98e-06 9.12e-07 
     78 2 1.37e-06  230 7.04e-05 3.85e-05 6.27e-06 1.37e-06 
     79 2 1.39e-06  230 2.24e-05 7.50e-05 1.76e-06 1.39e-06 
     80 2 1.07e-06  230 4.76e-05 2.81e-05 3.32e-06 1.07e-06 
     81 2 1.21e-06  230 6.04e-05 6.31e-05 8.17e-06 1.21e-06 
     82 2 9.34e-07  230 5.72e-05 1.97e-05 3.79e-06 9.34e-07 
     83 2 1.14e-06  230 3.65e-05 9.74e-05 1.94e-06 1.14e-06 
     84 2 1.11e-06  230 6.62e-05 5.12e-05 6.64e-06 1.11e-06 
     85 2 1.04e-06  230 8.01e-05 6.08e-05 3.74e-06 1.04e-06 
     86 2 1.15e-06  230 7.23e-05 6.30e-05 6.79e-06 1.15e-06 
     87 2 1.27e-06  230 9.09e-06 8.29e-05 7.30e-06 1.27e-06 
     88 2 1.14e-06  230 2.66e-05 4.80e-06 4.75e-06 1.14e-06 
     89 2 1.27e-06  230 7.31e-05 4.18e-06 5.22e-06 1.27e-06 
     90 2 1.23e-06  230 6.93e-05 3.68e-05 5.06e-06 1.23e-06 
     91 2 9.95e-07  230 8.23e-05 4.12e-05 3.52e-06 9.95e-07 
     92 2 1.20e-06  230 4.59e-05 7.28e-05 4.74e-06 1.20e-06 
     93 2 1.04e-06  230 8.17e-05 7.66e-05 2.57e-06 1.04e-06 
     94 2 1.24e-06  230 8.24e-05 4.42e-05 6.06e-06 1.24e-06 
     95 2 1.04e-06  230 7.42e-05 6.32e-05 4.08e-06 1.04e-06 
     96 2 1.12e-06  230 2.25e-05 5.16e-06 4.35e-06 1.12e-06 
     97 2 1.30e-06  230 5.19e-05 2.01e-05 5.34e-06 1.30e-06 
     98 2 9.81e-07  230 2.59e-06 7.52e-05 7.88e-06 9.81e-07 
     99 2 9.64e-07  230 2.09e-05 9.05e-05 5.04e-06 9.64e-07 
     100 2 9.63e-07  230 4.14e-05 6.66e-05 2.66e-06 9.63e-07 

 Nutrients 

     1 sub g nn nn nn 1.00e-01 1.00e-01 
     2 o2 l nn nn nd 9.00e-03 9.00e-03 
     3 suc l nn nn nn 3.42e-20 3.42e-20 
     4 co2 l nn nn nd 2.99e-02 2.99e-02 

 Type Name 

     1 cyano  
     2 ecw  

 Diffusion Coeffs 

     sub 0 
     o2 2.3e-09 
     suc 5.2e-10 
     co2 1.9e-09 

 Growth Rate 

     cyano 1.67e-05 
     ecw 1.3e-05 

 Ks 

     cyano 0.00035 0.0002 0.01 0.000138 
     ecw 0 0.001 3.6 0.05 

 Yield 

     cyano 0.55 
     ecw 0.43 

 Maintenance 

     cyano 0 
     ecw 9.5e-07 

 Decay 

     cyano 0 
     ecw 0 



