 NUFEB Simulation

     50 atoms 
     2 atom types 
     4 nutrients 

  0.0e-4   1.00e-04  xlo xhi 
  0.0e-4   1.00e-04  ylo yhi 
  0.0e-4   5.00e-05  zlo zhi 

 Atoms 

     1 1 1.85e-06  370 7.68e-05 6.53e-05 6.74e-06 1.85e-06 
     2 1 1.71e-06  370 5.73e-05 8.40e-05 2.46e-05 1.71e-06 
     3 1 1.82e-06  370 8.45e-06 1.83e-05 3.98e-05 1.82e-06 
     4 1 1.83e-06  370 5.07e-05 6.77e-05 2.70e-05 1.83e-06 
     5 1 1.65e-06  370 9.56e-05 5.57e-05 2.84e-05 1.65e-06 
     6 1 1.48e-06  370 9.29e-05 7.30e-05 1.09e-05 1.48e-06 
     7 1 1.84e-06  370 4.03e-05 8.54e-06 3.26e-05 1.84e-06 
     8 1 1.81e-06  370 1.57e-05 9.01e-05 8.57e-06 1.81e-06 
     9 1 1.72e-06  370 7.83e-05 2.16e-05 2.93e-05 1.72e-06 
     10 1 1.71e-06  370 2.64e-05 3.83e-05 5.15e-06 1.71e-06 
     11 1 1.79e-06  370 5.72e-05 8.40e-05 1.83e-05 1.79e-06 
     12 1 1.75e-06  370 5.07e-05 9.70e-05 1.77e-05 1.75e-06 
     13 1 1.60e-06  370 7.86e-05 5.12e-05 1.79e-05 1.60e-06 
     14 1 1.84e-06  370 1.88e-05 8.23e-05 3.03e-05 1.84e-06 
     15 1 1.41e-06  370 9.53e-05 6.42e-05 1.20e-05 1.41e-06 
     16 1 1.84e-06  370 1.30e-05 5.38e-05 4.73e-06 1.84e-06 
     17 1 1.65e-06  370 5.08e-05 9.39e-05 3.84e-06 1.65e-06 
     18 1 1.59e-06  370 3.37e-05 1.94e-05 4.44e-06 1.59e-06 
     19 1 1.64e-06  370 9.17e-05 3.32e-05 4.16e-05 1.64e-06 
     20 1 1.62e-06  370 3.63e-05 4.02e-05 2.50e-05 1.62e-06 
     21 1 1.37e-06  370 1.26e-05 6.89e-06 1.69e-06 1.37e-06 
     22 1 1.91e-06  370 2.75e-05 4.74e-05 2.14e-06 1.91e-06 
     23 1 1.65e-06  370 5.08e-05 5.06e-05 3.73e-05 1.65e-06 
     24 1 1.54e-06  370 7.40e-05 6.64e-05 4.73e-05 1.54e-06 
     25 1 1.51e-06  370 4.52e-05 8.10e-05 1.78e-05 1.51e-06 
     26 1 1.91e-06  370 7.20e-05 2.14e-05 4.85e-06 1.91e-06 
     27 1 1.67e-06  370 2.67e-05 8.52e-05 3.58e-05 1.67e-06 
     28 1 1.66e-06  370 8.95e-05 2.84e-05 1.30e-05 1.66e-06 
     29 1 1.55e-06  370 4.58e-05 7.15e-05 3.31e-05 1.55e-06 
     30 1 1.88e-06  370 9.80e-05 3.67e-05 1.19e-05 1.88e-06 
     31 1 1.85e-06  370 2.97e-05 3.14e-05 1.25e-05 1.85e-06 
     32 1 1.60e-06  370 5.37e-05 1.90e-05 4.81e-05 1.60e-06 
     33 1 1.50e-06  370 5.00e-05 8.26e-05 1.37e-05 1.50e-06 
     34 1 1.71e-06  370 9.18e-05 9.03e-05 2.62e-05 1.71e-06 
     35 1 1.57e-06  370 5.80e-05 5.03e-05 4.01e-05 1.57e-06 
     36 1 1.58e-06  370 7.15e-05 5.33e-05 3.00e-05 1.58e-06 
     37 1 1.45e-06  370 7.49e-05 2.17e-05 4.59e-05 1.45e-06 
     38 1 1.85e-06  370 4.30e-05 6.70e-05 1.99e-05 1.85e-06 
     39 1 1.50e-06  370 3.76e-05 6.80e-05 4.72e-05 1.50e-06 
     40 1 1.43e-06  370 6.74e-05 4.75e-05 1.36e-05 1.43e-06 
     41 1 1.39e-06  370 4.22e-06 3.90e-05 3.99e-05 1.39e-06 
     42 1 1.92e-06  370 9.04e-05 1.70e-05 1.09e-05 1.92e-06 
     43 1 1.77e-06  370 1.56e-05 8.89e-05 2.06e-05 1.77e-06 
     44 1 1.58e-06  370 5.57e-05 9.47e-05 2.22e-06 1.58e-06 
     45 1 1.78e-06  370 7.07e-05 3.43e-05 8.44e-06 1.78e-06 
     46 1 1.94e-06  370 5.95e-05 4.67e-05 3.21e-05 1.94e-06 
     47 1 1.51e-06  370 7.53e-05 7.65e-05 3.60e-05 1.51e-06 
     48 1 1.93e-06  370 5.08e-05 3.18e-05 4.42e-05 1.93e-06 
     49 1 1.44e-06  370 6.22e-05 7.98e-05 4.71e-06 1.44e-06 
     50 1 1.55e-06  370 8.44e-05 8.17e-05 3.84e-05 1.55e-06 

 Nutrients 

     1 sub g nn nn nn 1.00e-01 1.00e-01 
     2 o2 l nn nn nd 9.00e-03 9.00e-03 
     3 suc l nn nn nn 3.42e-20 3.42e-20 
     4 co2 l nn nn nd 2.99e-02 2.99e-02 

 Type Name 

     1 cyano  
     2 ecw  

 Diffusion Coeffs 

     sub 0 
     o2 2.3e-09 
     suc 5.2e-10 
     co2 1.9e-09 

 Growth Rate 

     cyano 2.047e-05 
     ecw 6.71e-05 

 Ks 

     cyano 0.00035 0.0002 0.01 0.000138 
     ecw 0 0.001 3.6 0.05 

 Yield 

     cyano 0.55 
     ecw 0.43 

 Maintenance 

     cyano 0 
     ecw 9.5e-07 

 Decay 

     cyano 0 
     ecw 0 



