LAMMPS (20 Nov 2019)
Reading data file ...
  orthogonal box = (0 0 0) to (0.0001 0.0001 0.0001)
  2 by 4 by 4 MPI processor grid
  reading atoms ...
  100 atoms
  4 nutrients
Lattice spacing in x,y,z = 100 100 100
100 atoms in group CYANO
0 atoms in group ECW
Model is defined as a closed system. 
Neighbor list info ...
  update every 1 steps, delay 0 steps, check yes
  max neighbors/atom: 5000, page size: 100000
  master list distance cutoff = 2.43e-06
  ghost atom cutoff = 2.43e-06
  binsize = 1.215e-06, bins = 83 83 83
  1 neighbor lists, perpetual/occasional/extra = 1 0 0
  (1) pair gran/hooke/history, perpetual
      attributes: half, newton off, size, history
      pair build: half/size/bin/newtoff
      stencil: half/bin/3d/newtoff
      bin: standard
Setting up Verlet run ...
  Unit style    : lj
  Current step  : 0
  Time step     : 10
Per MPI rank memory allocation (min/avg/max) = 5.859 | 9.593 | 10.91 Mbytes
Step CPU Atoms c_myNtypes[1] c_myNtypes[2] c_myMass[1] c_myMass[2] c_myCon[1] c_myCon[2] c_myCon[3] c_myCon[4] 
       0            0      100          100            0 8.694679e-14            0          0.1        0.009     3.42e-20       0.0299 
number of iterations: 123985 
     100     1.330825      100          100            0 8.8413529e-14            0          0.1 0.0090010457 1.4011793e-05  0.029898259 
number of iterations: 106399 
     200     2.459323      100          100            0 8.9905011e-14            0          0.1 0.0090010634 3.7992222e-05  0.029898229 
number of iterations: 94453 
     300    3.4486737      100          100            0 9.1421654e-14            0          0.1 0.0090010813 7.5588939e-05    0.0298982 
number of iterations: 83974 
     400    4.3322935      102          102            0 9.2963882e-14            0          0.1 0.0090010995 0.00013367325  0.029898169 
number of iterations: 74337 
     500    5.1310762      103          103            0 9.4532126e-14            0          0.1 0.0090011115 0.00022166197  0.029898149 
number of iterations: 65236 
     600    5.8414345      104          104            0 9.6126825e-14            0          0.1 0.0090011302 0.00035492238  0.029898118 
number of iterations: 56340 
     700    6.4643918      107          107            0 9.7748426e-14            0          0.1 0.0090011493 0.00055681125  0.029898086 
number of iterations: 47546 
     800    7.0028672      110          110            0 9.9397382e-14            0          0.1 0.0090011687 0.00086335465  0.029898054 
number of iterations: 38759 
     900    7.4575923      112          112            0 1.0107416e-13            0          0.1 0.0090011884 0.0013314423  0.029898021 
number of iterations: 29858 
    1000     7.830161      113          113            0 1.0277922e-13            0          0.1 0.0090012084 0.0020553538  0.029897988 
number of iterations: 20702 
    1100    8.1133331      116          116            0 1.0451304e-13            0          0.1 0.0090012288 0.0032058199  0.029897954 
number of iterations: 15718 
    1200    8.3376046      116          116            0 1.0627611e-13            0          0.1 0.0090012496 0.0050371226  0.029897919 
number of iterations: 15772 
    1300    8.5555986      116          116            0 1.0806892e-13            0          0.1 0.0090012706 0.0073962626  0.029897884 
number of iterations: 15826 
    1400    8.7710835      116          116            0 1.0989198e-13            0          0.1 0.0090012921  0.010121898  0.029897849 
number of iterations: 15444 
    1500    8.9792723      118          118            0 1.1174579e-13            0          0.1  0.009001313  0.013062988  0.029897814 
number of iterations: 15929 
    1600    9.2195846      121          121            0 1.1363087e-13            0          0.1 0.0090013351  0.016209228  0.029897777 
number of iterations: 15983 
    1700    9.4312665      121          121            0 1.1554776e-13            0          0.1 0.0090013577  0.019551535  0.029897739 
number of iterations: 16037 
    1800    9.6436808      122          122            0 1.1749698e-13            0          0.1 0.0090013806  0.023083869  0.029897701 
number of iterations: 16091 
    1900    9.8588051      124          124            0 1.1947908e-13            0          0.1 0.0090014039  0.026802582  0.029897663 
number of iterations: 16146 
    2000    10.070035      127          127            0 1.2149462e-13            0          0.1 0.0090014275  0.030705093  0.029897623 
number of iterations: 16200 
    2100    10.282912      128          128            0 1.2354416e-13            0          0.1 0.0090014516  0.034789679  0.029897583 
number of iterations: 16255 
    2200    10.493309      132          132            0 1.2562827e-13            0          0.1 0.0090014761  0.039056389  0.029897542 
number of iterations: 16309 
    2300    10.708487      134          134            0 1.2774754e-13            0          0.1  0.009001501  0.043505239  0.029897501 
number of iterations: 16363 
    2400    10.919001      135          135            0 1.2990257e-13            0          0.1 0.0090015263  0.048136503  0.029897459 
number of iterations: 16418 
    2500    11.129141      136          136            0 1.3209394e-13            0          0.1 0.0090015521  0.052951041  0.029897416 
number of iterations: 16472 
    2600    11.340821      136          136            0 1.3432229e-13            0          0.1 0.0090015783  0.057950653  0.029897372 
number of iterations: 16526 
    2700    11.552762      136          136            0 1.3658822e-13            0          0.1 0.0090016049   0.06313633  0.029897328 
number of iterations: 16581 
    2800    11.764236      138          138            0 1.3889238e-13            0          0.1  0.009001632  0.068510429  0.029897283 
number of iterations: 16635 
    2900    11.976855      139          139            0 1.4123541e-13            0          0.1 0.0090016595   0.07407472  0.029897237 
number of iterations: 17396 
    3000    12.198587      141          141            0 1.4361797e-13            0          0.1 0.0090016868  0.079823704  0.029897191 
number of iterations: 16757 
    3100    12.456752      144          144            0 1.4604071e-13            0          0.1 0.0090017152  0.085767156  0.029897144 
number of iterations: 16811 
    3200    12.671057      145          145            0 1.4850433e-13            0          0.1 0.0090017441  0.091908703  0.029897096 
number of iterations: 16866 
    3300    12.884955      147          147            0 1.5100951e-13            0          0.1 0.0090017736  0.098250749  0.029897047 
number of iterations: 16920 
    3400    13.101497      147          147            0 1.5355695e-13            0          0.1 0.0090018035   0.10479527  0.029896997 
number of iterations: 16974 
    3500    13.316394      149          149            0 1.5614736e-13            0          0.1 0.0090018339   0.11154695  0.029896946 
number of iterations: 17029 
    3600    13.530124      151          151            0 1.5878147e-13            0          0.1 0.0090018648    0.1185082  0.029896895 
number of iterations: 17083 
    3700    13.745057      151          151            0 1.6146001e-13            0          0.1 0.0090018963   0.12568219  0.029896843 
number of iterations: 17137 
    3800    13.959985      152          152            0 1.6418374e-13            0          0.1 0.0090019283   0.13307185  0.029896789 
number of iterations: 17191 
    3900    14.175986      153          153            0 1.6695342e-13            0          0.1 0.0090019608   0.14068107  0.029896735 
number of iterations: 17246 
    4000    14.395269      155          155            0 1.6976982e-13            0          0.1 0.0090019939   0.14851358   0.02989668 
number of iterations: 16917 
    4100    14.607869      161          161            0 1.7263374e-13            0          0.1 0.0090020138   0.15654613  0.029896647 
number of iterations: 17348 
    4200    14.826292      163          163            0 1.7554596e-13            0          0.1 0.0090020477    0.1648091   0.02989659 
number of iterations: 17403 
    4300    15.043872      164          164            0 1.7850731e-13            0          0.1 0.0090020823   0.17330715  0.029896533 
number of iterations: 17457 
    4400     15.26325      167          167            0 1.8151862e-13            0          0.1 0.0090021169   0.18203931  0.029896475 
number of iterations: 17511 
    4500    15.484997      172          172            0 1.8458073e-13            0          0.1 0.0090021526   0.19101411  0.029896416 
number of iterations: 17565 
    4600    15.705605      175          175            0 1.8769449e-13            0          0.1 0.0090021889    0.2002359  0.029896355 
number of iterations: 17620 
    4700     15.92742      181          181            0 1.9086078e-13            0          0.1 0.0090022258   0.20970896  0.029896294 
number of iterations: 17784 
    4800    16.148838      187          187            0 1.9408049e-13            0          0.1 0.0090022691   0.21944414  0.029896222 
number of iterations: 17928 
    4900    16.372547      192          192            0 1.9735451e-13            0          0.1 0.0090023082   0.22944109  0.029896157 
number of iterations: 17788 
    5000    16.595056      198          198            0 2.0068376e-13            0          0.1 0.0090023471   0.23970325  0.029896092 
number of iterations: 17842 
    5100    16.817266      207          207            0 2.0406917e-13            0          0.1 0.0090023867   0.25023455  0.029896026 
number of iterations: 17896 
    5200    17.040845      209          209            0 2.0751169e-13            0          0.1  0.009002427   0.26104079  0.029895959 
number of iterations: 17951 
    5300    17.263039      213          213            0 2.1101228e-13            0          0.1 0.0090024679   0.27212778  0.029895891 
number of iterations: 18169 
    5400    17.489967      218          218            0 2.1457193e-13            0          0.1 0.0090025172   0.28350984  0.029895809 
number of iterations: 18062 
    5500    17.714443      219          219            0 2.1819162e-13            0          0.1 0.0090025597   0.29518202  0.029895738 
number of iterations: 18116 
    5600    17.940768      223          223            0 2.2187238e-13            0          0.1 0.0090026029   0.30715012  0.029895666 
number of iterations: 18170 
    5700    18.168068      227          227            0 2.2561523e-13            0          0.1 0.0090026468   0.31941996  0.029895593 
number of iterations: 18264 
    5800    18.394461      229          229            0 2.2942122e-13            0          0.1  0.009002692   0.33199532  0.029895518 
number of iterations: 14411 
    5900    18.575553      235          235            0 2.3329142e-13            0          0.1 0.0090027242   0.34488406  0.029895464 
number of iterations: 18293 
    6000    18.803205      236          236            0 2.372269e-13            0          0.1 0.0090027701   0.35808945  0.029895388 
number of iterations: 18348 
    6100    19.030825      242          242            0 2.4122877e-13            0          0.1 0.0090028169   0.37161986   0.02989531 
number of iterations: 18402 
    6200    19.298535      245          245            0 2.4529815e-13            0          0.1 0.0090028657   0.38548437  0.029895228 
number of iterations: 20023 
    6300    19.546896      251          251            0 2.4943618e-13            0          0.1 0.0090029271   0.39969314  0.029895126 
number of iterations: 18544 
    6400    19.775535      260          260            0 2.5364401e-13            0          0.1 0.0090029764   0.41424416  0.029895044 
number of iterations: 18995 
    6500    20.010088      265          265            0 2.5792283e-13            0          0.1 0.0090030259   0.42914001  0.029894962 
number of iterations: 18330 
    6600    20.236356      269          269            0 2.6227382e-13            0          0.1 0.0090030776   0.44439305  0.029894876 
number of iterations: 18709 
    6700    20.466741      270          270            0 2.6669822e-13            0          0.1 0.0090031295   0.46000583  0.029894789 
number of iterations: 18763 
    6800    20.700809      276          276            0 2.7119725e-13            0          0.1 0.0090031823   0.47598735  0.029894701 
number of iterations: 19213 
    6900    20.937436      279          279            0 2.7577218e-13            0          0.1 0.0090032352   0.49234061  0.029894613 
number of iterations: 18704 
    7000    21.167761      281          281            0 2.8042429e-13            0          0.1 0.0090032797   0.50906716  0.029894539 
number of iterations: 18930 
    7100    21.399778      284          284            0 2.8515487e-13            0          0.1 0.0090033351   0.52618398  0.029894447 
number of iterations: 18775 
    7200     21.63134      284          284            0 2.8996526e-13            0          0.1 0.0090033902   0.54369693  0.029894355 
number of iterations: 19035 
    7300    21.867373      287          287            0 2.9485679e-13            0          0.1 0.0090034474   0.56161211   0.02989426 
number of iterations: 19089 
    7400    22.101632      287          287            0 2.9983084e-13            0          0.1 0.0090035055   0.57993922  0.029894163 
number of iterations: 19143 
    7500    22.368041      289          289            0 3.048888e-13            0          0.1 0.0090035647   0.59868429  0.029894065 
number of iterations: 19198 
    7600    22.606996      293          293            0 3.1003208e-13            0          0.1 0.0090036248    0.6178533  0.029893964 
number of iterations: 19252 
    7700    22.849582      299          299            0 3.1526213e-13            0          0.1 0.0090036859   0.63745626  0.029893863 
number of iterations: 19306 
    7800    23.087815      302          302            0 3.2058041e-13            0          0.1 0.0090037481   0.65750345  0.029893759 
number of iterations: 19555 
    7900    23.328495      309          309            0 3.259884e-13            0          0.1 0.0090038126   0.67800108  0.029893652 
number of iterations: 20036 
    8000    23.572969      311          311            0 3.3148762e-13            0          0.1 0.0090038824   0.69895705  0.029893535 
number of iterations: 19483 
    8100    23.812577      323          323            0 3.3707961e-13            0          0.1 0.0090039479   0.72037994  0.029893426 
number of iterations: 19537 
    8200    24.052892      326          326            0 3.4276593e-13            0          0.1 0.0090040145   0.74227592  0.029893316 
number of iterations: 19592 
    8300    24.292617      332          332            0 3.4854817e-13            0          0.1 0.0090040822    0.7646606  0.029893203 
number of iterations: 19646 
    8400    24.533073      340          340            0 3.5442796e-13            0          0.1 0.0090041511   0.78753551  0.029893088 
number of iterations: 19700 
    8500    24.772964      348          348            0 3.6040694e-13            0          0.1 0.0090042211   0.81091174  0.029892971 
number of iterations: 19754 
    8600    25.013043      353          353            0 3.6648678e-13            0          0.1 0.0090042923   0.83480069  0.029892853 
number of iterations: 19978 
    8700    25.261121      359          359            0 3.7266918e-13            0          0.1 0.0090043769   0.85920987  0.029892712 
Loop time of 25.2611 on 32 procs for 8700 steps with 359 atoms

Performance: 297563768.356 tau/day, 344.403 timesteps/s
98.5% CPU use with 32 MPI tasks x no OpenMP threads

MPI task timing breakdown:
Section |  min time  |  avg time  |  max time  |%varavg| %total
---------------------------------------------------------------
Pair    | 0.00043194 | 0.002061   | 0.0069812  |   2.5 |  0.01
Neigh   | 0.0012313  | 0.0022175  | 0.0055551  |   1.8 |  0.01
Comm    | 0.01044    | 0.028694   | 0.044389   |   5.8 |  0.11
Output  | 0.87973    | 0.8803     | 0.88153    |   0.0 |  3.48
Modify  | 24.292     | 24.296     | 24.301     |   0.0 | 96.18
Other   |            | 0.05198    |            |       |  0.21

Nlocal:    11.2188 ave 50 max 0 min
Histogram: 4 13 7 5 2 0 0 0 0 1
Nghost:    3.875 ave 13 max 0 min
Histogram: 8 3 7 4 4 3 2 0 0 1
Neighs:    9.96875 ave 47 max 0 min
Histogram: 7 13 5 5 1 0 0 0 0 1

Total # of neighbors = 319
Ave neighs/atom = 0.888579
Neighbor list builds = 116
Dangerous builds = 0
Total wall time: 0:00:25
