 NUFEB Simulation

     50 atoms 
     2 atom types 
     4 nutrients 

  0.0e-4   1.00e-04  xlo xhi 
  0.0e-4   1.00e-04  ylo yhi 
  0.0e-4   5.00e-05  zlo zhi 

 Atoms 

     1 1 1.93e-06  370 8.84e-05 9.41e-05 1.89e-05 1.93e-06 
     2 1 1.42e-06  370 4.19e-05 1.80e-06 3.33e-05 1.42e-06 
     3 1 1.60e-06  370 4.98e-05 5.24e-05 4.30e-05 1.60e-06 
     4 1 1.39e-06  370 7.30e-05 2.36e-05 4.37e-05 1.39e-06 
     5 1 1.60e-06  370 1.74e-05 2.62e-05 3.21e-06 1.60e-06 
     6 1 1.47e-06  370 6.41e-05 5.98e-05 3.63e-05 1.47e-06 
     7 1 1.90e-06  370 7.12e-05 9.31e-05 3.94e-05 1.90e-06 
     8 1 1.91e-06  370 3.98e-06 3.02e-05 3.85e-05 1.91e-06 
     9 1 1.78e-06  370 8.67e-05 3.83e-05 1.89e-05 1.78e-06 
     10 1 1.49e-06  370 3.55e-05 9.80e-05 2.76e-05 1.49e-06 
     11 1 1.46e-06  370 2.78e-05 3.80e-05 6.57e-06 1.46e-06 
     12 1 1.91e-06  370 3.73e-05 4.57e-05 1.92e-05 1.91e-06 
     13 1 1.74e-06  370 4.09e-05 2.42e-05 1.42e-05 1.74e-06 
     14 1 1.53e-06  370 6.73e-05 3.01e-05 2.46e-05 1.53e-06 
     15 1 1.59e-06  370 7.36e-05 9.40e-05 1.78e-05 1.59e-06 
     16 1 1.44e-06  370 5.09e-05 7.02e-06 3.95e-05 1.44e-06 
     17 1 1.62e-06  370 8.13e-06 6.68e-05 1.35e-05 1.62e-06 
     18 1 1.78e-06  370 5.01e-05 6.10e-06 3.08e-05 1.78e-06 
     19 1 1.89e-06  370 2.64e-05 8.31e-05 1.08e-05 1.89e-06 
     20 1 1.57e-06  370 4.60e-05 9.75e-05 2.48e-05 1.57e-06 
     21 1 1.53e-06  370 2.33e-05 4.53e-05 4.79e-05 1.53e-06 
     22 1 1.58e-06  370 6.76e-05 9.41e-05 4.33e-05 1.58e-06 
     23 1 1.55e-06  370 4.40e-05 7.11e-05 4.37e-05 1.55e-06 
     24 1 1.89e-06  370 7.56e-05 1.53e-05 4.70e-05 1.89e-06 
     25 1 1.55e-06  370 6.68e-05 2.27e-05 1.54e-05 1.55e-06 
     26 1 1.59e-06  370 7.51e-05 6.78e-05 2.81e-05 1.59e-06 
     27 1 1.85e-06  370 3.21e-05 7.51e-05 3.52e-05 1.85e-06 
     28 1 1.70e-06  370 8.68e-05 4.08e-06 3.81e-05 1.70e-06 
     29 1 1.56e-06  370 2.57e-05 3.12e-05 4.48e-06 1.56e-06 
     30 1 1.67e-06  370 8.42e-05 5.08e-05 4.24e-05 1.67e-06 
     31 1 1.56e-06  370 2.31e-05 8.00e-05 1.28e-05 1.56e-06 
     32 1 1.58e-06  370 2.11e-05 7.34e-05 4.43e-06 1.58e-06 
     33 1 1.48e-06  370 3.76e-05 2.55e-05 4.43e-05 1.48e-06 
     34 1 1.82e-06  370 2.43e-05 2.74e-05 3.14e-05 1.82e-06 
     35 1 1.64e-06  370 1.16e-05 9.72e-06 2.83e-05 1.64e-06 
     36 1 1.66e-06  370 2.18e-05 2.52e-05 8.57e-06 1.66e-06 
     37 1 1.68e-06  370 9.21e-05 9.01e-05 4.58e-05 1.68e-06 
     38 1 1.61e-06  370 8.57e-05 6.40e-05 4.42e-05 1.61e-06 
     39 1 1.54e-06  370 4.10e-05 9.13e-05 2.06e-05 1.54e-06 
     40 1 1.42e-06  370 6.11e-05 7.96e-05 3.88e-05 1.42e-06 
     41 1 1.71e-06  370 4.81e-05 1.08e-05 9.54e-06 1.71e-06 
     42 1 1.83e-06  370 5.42e-05 2.20e-05 3.88e-06 1.83e-06 
     43 1 1.70e-06  370 7.80e-05 6.92e-05 3.70e-05 1.70e-06 
     44 1 1.88e-06  370 5.42e-05 2.03e-05 2.32e-05 1.88e-06 
     45 1 1.48e-06  370 7.08e-05 8.36e-05 2.10e-06 1.48e-06 
     46 1 1.72e-06  370 5.09e-05 1.67e-05 2.72e-05 1.72e-06 
     47 1 1.54e-06  370 3.55e-05 4.20e-05 4.70e-05 1.54e-06 
     48 1 1.77e-06  370 6.88e-05 7.20e-05 4.71e-06 1.77e-06 
     49 1 1.44e-06  370 1.11e-05 8.86e-05 1.91e-05 1.44e-06 
     50 1 1.52e-06  370 7.91e-05 6.54e-05 3.50e-05 1.52e-06 

 Nutrients 

     1 sub g nn nn nn 1.00e-01 1.00e-01 
     2 o2 l nn nn nd 9.00e-03 9.00e-03 
     3 suc l nn nn nn 3.42e-20 3.42e-20 
     4 co2 l nn nn nd 2.99e-02 2.99e-02 

 Type Name 

     1 cyano  
     2 ecw  

 Diffusion Coeffs 

     sub 0 
     o2 2.3e-09 
     suc 5.2e-10 
     co2 1.9e-09 

 Growth Rate 

     cyano 2.047e-05 
     ecw 6.71e-05 

 Ks 

     cyano 0.00035 0.0002 0.01 0.000138 
     ecw 0 0.001 3.6 0.05 

 Yield 

     cyano 0.55 
     ecw 0.43 

 Maintenance 

     cyano 0 
     ecw 9.5e-07 

 Decay 

     cyano 0 
     ecw 0 



