ITEM: TIMESTEP
0
ITEM: NUMBER OF ATOMS
50
ITEM: BOX BOUNDS ff ff ff
0.0000000000000000e+00 1.0000000000000000e-04
0.0000000000000000e+00 1.0000000000000000e-04
0.0000000000000000e+00 5.0000000000000002e-05
ITEM: ATOMS id type diameter x y z 
5 1 1.6e-06 1.74e-05 2.62e-05 3.21e-06 
29 1 1.56e-06 2.57e-05 3.12e-05 4.48e-06 
11 1 1.46e-06 2.78e-05 3.8e-05 6.57e-06 
36 1 1.66e-06 2.18e-05 2.52e-05 8.57e-06 
41 1 1.71e-06 4.81e-05 1.08e-05 9.54e-06 
13 1 1.74e-06 4.09e-05 2.42e-05 1.42e-05 
12 1 1.91e-06 3.73e-05 4.57e-05 1.92e-05 
35 1 1.64e-06 1.16e-05 9.72e-06 2.83e-05 
34 1 1.82e-06 2.43e-05 2.74e-05 3.14e-05 
2 1 1.42e-06 4.19e-05 1.8e-06 3.33e-05 
8 1 1.91e-06 3.98e-06 3.02e-05 3.85e-05 
33 1 1.48e-06 3.76e-05 2.55e-05 4.43e-05 
47 1 1.54e-06 3.55e-05 4.2e-05 4.7e-05 
21 1 1.53e-06 2.33e-05 4.53e-05 4.79e-05 
32 1 1.58e-06 2.11e-05 7.34e-05 4.43e-06 
19 1 1.89e-06 2.64e-05 8.31e-05 1.08e-05 
31 1 1.56e-06 2.31e-05 8e-05 1.28e-05 
17 1 1.62e-06 8.13e-06 6.68e-05 1.35e-05 
49 1 1.44e-06 1.11e-05 8.86e-05 1.91e-05 
39 1 1.54e-06 4.1e-05 9.13e-05 2.06e-05 
20 1 1.57e-06 4.6e-05 9.75e-05 2.48e-05 
10 1 1.49e-06 3.55e-05 9.8e-05 2.76e-05 
27 1 1.85e-06 3.21e-05 7.51e-05 3.52e-05 
3 1 1.6e-06 4.98e-05 5.24e-05 4.3e-05 
23 1 1.55e-06 4.4e-05 7.11e-05 4.37e-05 
42 1 1.83e-06 5.42e-05 2.2e-05 3.88e-06 
25 1 1.55e-06 6.68e-05 2.27e-05 1.54e-05 
9 1 1.78e-06 8.67e-05 3.83e-05 1.89e-05 
44 1 1.88e-06 5.42e-05 2.03e-05 2.32e-05 
14 1 1.53e-06 6.73e-05 3.01e-05 2.46e-05 
46 1 1.72e-06 5.09e-05 1.67e-05 2.72e-05 
18 1 1.78e-06 5.01e-05 6.1e-06 3.08e-05 
28 1 1.7e-06 8.68e-05 4.08e-06 3.81e-05 
16 1 1.44e-06 5.09e-05 7.02e-06 3.95e-05 
4 1 1.39e-06 7.3e-05 2.36e-05 4.37e-05 
24 1 1.89e-06 7.56e-05 1.53e-05 4.7e-05 
45 1 1.48e-06 7.08e-05 8.36e-05 2.1e-06 
48 1 1.77e-06 6.88e-05 7.2e-05 4.71e-06 
15 1 1.59e-06 7.36e-05 9.4e-05 1.78e-05 
1 1 1.93e-06 8.84e-05 9.41e-05 1.89e-05 
26 1 1.59e-06 7.51e-05 6.78e-05 2.81e-05 
50 1 1.52e-06 7.91e-05 6.54e-05 3.5e-05 
6 1 1.47e-06 6.41e-05 5.98e-05 3.63e-05 
43 1 1.7e-06 7.8e-05 6.92e-05 3.7e-05 
40 1 1.42e-06 6.11e-05 7.96e-05 3.88e-05 
7 1 1.9e-06 7.12e-05 9.31e-05 3.94e-05 
30 1 1.67e-06 8.42e-05 5.08e-05 4.24e-05 
22 1 1.58e-06 6.76e-05 9.41e-05 4.33e-05 
38 1 1.61e-06 8.57e-05 6.4e-05 4.42e-05 
37 1 1.68e-06 9.21e-05 9.01e-05 4.58e-05 
ITEM: TIMESTEP
100
ITEM: NUMBER OF ATOMS
50
ITEM: BOX BOUNDS ff ff ff
0.0000000000000000e+00 1.0000000000000000e-04
0.0000000000000000e+00 1.0000000000000000e-04
0.0000000000000000e+00 5.0000000000000002e-05
ITEM: ATOMS id type diameter x y z 
5 1 1.61076e-06 1.74e-05 2.62e-05 3.21e-06 
29 1 1.57049e-06 2.57e-05 3.12e-05 4.48e-06 
11 1 1.46982e-06 2.78e-05 3.8e-05 6.57e-06 
36 1 1.67116e-06 2.18e-05 2.52e-05 8.57e-06 
41 1 1.7215e-06 4.81e-05 1.08e-05 9.54e-06 
13 1 1.7517e-06 4.09e-05 2.42e-05 1.42e-05 
12 1 1.92284e-06 3.73e-05 4.57e-05 1.92e-05 
35 1 1.65103e-06 1.16e-05 9.72e-06 2.83e-05 
34 1 1.83224e-06 2.43e-05 2.74e-05 3.14e-05 
2 1 1.42955e-06 4.19e-05 1.8e-06 3.33e-05 
8 1 1.92284e-06 3.98e-06 3.02e-05 3.85e-05 
33 1 1.48995e-06 3.76e-05 2.55e-05 4.43e-05 
47 1 1.55035e-06 3.55e-05 4.2e-05 4.7e-05 
21 1 1.54029e-06 2.33e-05 4.53e-05 4.79e-05 
32 1 1.59062e-06 2.11e-05 7.34e-05 4.43e-06 
19 1 1.90271e-06 2.64e-05 8.31e-05 1.08e-05 
31 1 1.57049e-06 2.31e-05 8e-05 1.28e-05 
17 1 1.63089e-06 8.13e-06 6.68e-05 1.35e-05 
49 1 1.44968e-06 1.11e-05 8.86e-05 1.91e-05 
39 1 1.55035e-06 4.1e-05 9.13e-05 2.06e-05 
20 1 1.58056e-06 4.6e-05 9.75e-05 2.48e-05 
10 1 1.50002e-06 3.55e-05 9.8e-05 2.76e-05 
27 1 1.86244e-06 3.21e-05 7.51e-05 3.52e-05 
3 1 1.61076e-06 4.98e-05 5.24e-05 4.3e-05 
23 1 1.56042e-06 4.4e-05 7.11e-05 4.37e-05 
42 1 1.8423e-06 5.42e-05 2.2e-05 3.88e-06 
25 1 1.56042e-06 6.68e-05 2.27e-05 1.54e-05 
9 1 1.79197e-06 8.67e-05 3.83e-05 1.89e-05 
44 1 1.89264e-06 5.42e-05 2.03e-05 2.32e-05 
14 1 1.54029e-06 6.73e-05 3.01e-05 2.46e-05 
46 1 1.73156e-06 5.09e-05 1.67e-05 2.72e-05 
18 1 1.79197e-06 5.01e-05 6.1e-06 3.08e-05 
28 1 1.71143e-06 8.68e-05 4.08e-06 3.81e-05 
16 1 1.44968e-06 5.09e-05 7.02e-06 3.95e-05 
4 1 1.39934e-06 7.3e-05 2.36e-05 4.37e-05 
24 1 1.90271e-06 7.56e-05 1.53e-05 4.7e-05 
45 1 1.48995e-06 7.08e-05 8.36e-05 2.1e-06 
48 1 1.7819e-06 6.88e-05 7.2e-05 4.71e-06 
15 1 1.60069e-06 7.36e-05 9.4e-05 1.78e-05 
1 1 1.94298e-06 8.84e-05 9.41e-05 1.89e-05 
26 1 1.60069e-06 7.51e-05 6.78e-05 2.81e-05 
50 1 1.53022e-06 7.91e-05 6.54e-05 3.5e-05 
6 1 1.47988e-06 6.41e-05 5.98e-05 3.63e-05 
43 1 1.71143e-06 7.8e-05 6.92e-05 3.7e-05 
40 1 1.42955e-06 6.11e-05 7.96e-05 3.88e-05 
7 1 1.91277e-06 7.12e-05 9.31e-05 3.94e-05 
30 1 1.68123e-06 8.42e-05 5.08e-05 4.24e-05 
22 1 1.59062e-06 6.76e-05 9.41e-05 4.33e-05 
38 1 1.62082e-06 8.57e-05 6.4e-05 4.42e-05 
37 1 1.69129e-06 9.21e-05 9.01e-05 4.58e-05 
ITEM: TIMESTEP
200
ITEM: NUMBER OF ATOMS
50
ITEM: BOX BOUNDS ff ff ff
0.0000000000000000e+00 1.0000000000000000e-04
0.0000000000000000e+00 1.0000000000000000e-04
0.0000000000000000e+00 5.0000000000000002e-05
ITEM: ATOMS id type diameter x y z 
5 1 1.62159e-06 1.74e-05 2.62e-05 3.21e-06 
29 1 1.58105e-06 2.57e-05 3.12e-05 4.48e-06 
11 1 1.4797e-06 2.78e-05 3.8e-05 6.57e-06 
36 1 1.6824e-06 2.18e-05 2.52e-05 8.57e-06 
41 1 1.73307e-06 4.81e-05 1.08e-05 9.54e-06 
13 1 1.76347e-06 4.09e-05 2.42e-05 1.42e-05 
12 1 1.93577e-06 3.73e-05 4.57e-05 1.92e-05 
35 1 1.66213e-06 1.16e-05 9.72e-06 2.83e-05 
34 1 1.84455e-06 2.43e-05 2.74e-05 3.14e-05 
2 1 1.43916e-06 4.19e-05 1.8e-06 3.33e-05 
8 1 1.93577e-06 3.98e-06 3.02e-05 3.85e-05 
33 1 1.49997e-06 3.76e-05 2.55e-05 4.43e-05 
47 1 1.56078e-06 3.55e-05 4.2e-05 4.7e-05 
21 1 1.55064e-06 2.33e-05 4.53e-05 4.79e-05 
32 1 1.60132e-06 2.11e-05 7.34e-05 4.43e-06 
19 1 1.9155e-06 2.64e-05 8.31e-05 1.08e-05 
31 1 1.58105e-06 2.31e-05 8e-05 1.28e-05 
17 1 1.64186e-06 8.13e-06 6.68e-05 1.35e-05 
49 1 1.45943e-06 1.11e-05 8.86e-05 1.91e-05 
39 1 1.56078e-06 4.1e-05 9.13e-05 2.06e-05 
20 1 1.59118e-06 4.6e-05 9.75e-05 2.48e-05 
10 1 1.5101e-06 3.55e-05 9.8e-05 2.76e-05 
27 1 1.87496e-06 3.21e-05 7.51e-05 3.52e-05 
3 1 1.62159e-06 4.98e-05 5.24e-05 4.3e-05 
23 1 1.57091e-06 4.4e-05 7.11e-05 4.37e-05 
42 1 1.85469e-06 5.42e-05 2.2e-05 3.88e-06 
25 1 1.57091e-06 6.68e-05 2.27e-05 1.54e-05 
9 1 1.80401e-06 8.67e-05 3.83e-05 1.89e-05 
44 1 1.90536e-06 5.42e-05 2.03e-05 2.32e-05 
14 1 1.55064e-06 6.73e-05 3.01e-05 2.46e-05 
46 1 1.7432e-06 5.09e-05 1.67e-05 2.72e-05 
18 1 1.80401e-06 5.01e-05 6.1e-06 3.08e-05 
28 1 1.72294e-06 8.68e-05 4.08e-06 3.81e-05 
16 1 1.45943e-06 5.09e-05 7.02e-06 3.95e-05 
4 1 1.40875e-06 7.3e-05 2.36e-05 4.37e-05 
24 1 1.9155e-06 7.56e-05 1.53e-05 4.7e-05 
45 1 1.49997e-06 7.08e-05 8.36e-05 2.1e-06 
48 1 1.79388e-06 6.88e-05 7.2e-05 4.71e-06 
15 1 1.61145e-06 7.36e-05 9.4e-05 1.78e-05 
1 1 1.95604e-06 8.84e-05 9.41e-05 1.89e-05 
26 1 1.61145e-06 7.51e-05 6.78e-05 2.81e-05 
50 1 1.54051e-06 7.91e-05 6.54e-05 3.5e-05 
6 1 1.48983e-06 6.41e-05 5.98e-05 3.63e-05 
43 1 1.72294e-06 7.8e-05 6.92e-05 3.7e-05 
40 1 1.43916e-06 6.11e-05 7.96e-05 3.88e-05 
7 1 1.92563e-06 7.12e-05 9.31e-05 3.94e-05 
30 1 1.69253e-06 8.42e-05 5.08e-05 4.24e-05 
22 1 1.60132e-06 6.76e-05 9.41e-05 4.33e-05 
38 1 1.63172e-06 8.57e-05 6.4e-05 4.42e-05 
37 1 1.70267e-06 9.21e-05 9.01e-05 4.58e-05 
ITEM: TIMESTEP
300
ITEM: NUMBER OF ATOMS
50
ITEM: BOX BOUNDS ff ff ff
0.0000000000000000e+00 1.0000000000000000e-04
0.0000000000000000e+00 1.0000000000000000e-04
0.0000000000000000e+00 5.0000000000000002e-05
ITEM: ATOMS id type diameter x y z 
5 1 1.63249e-06 1.74e-05 2.62e-05 3.21e-06 
29 1 1.59168e-06 2.57e-05 3.12e-05 4.48e-06 
11 1 1.48965e-06 2.78e-05 3.8e-05 6.57e-06 
36 1 1.69371e-06 2.18e-05 2.52e-05 8.57e-06 
41 1 1.74472e-06 4.81e-05 1.08e-05 9.54e-06 
13 1 1.77533e-06 4.09e-05 2.42e-05 1.42e-05 
12 1 1.94878e-06 3.73e-05 4.57e-05 1.92e-05 
35 1 1.6733e-06 1.16e-05 9.72e-06 2.83e-05 
34 1 1.85695e-06 2.43e-05 2.74e-05 3.14e-05 
2 1 1.44883e-06 4.19e-05 1.8e-06 3.33e-05 
8 1 1.94878e-06 3.98e-06 3.02e-05 3.85e-05 
33 1 1.51005e-06 3.76e-05 2.55e-05 4.43e-05 
47 1 1.57127e-06 3.55e-05 4.2e-05 4.7e-05 
21 1 1.56107e-06 2.33e-05 4.53e-05 4.79e-05 
32 1 1.61208e-06 2.11e-05 7.34e-05 4.43e-06 
19 1 1.92838e-06 2.64e-05 8.31e-05 1.08e-05 
31 1 1.59168e-06 2.31e-05 8e-05 1.28e-05 
17 1 1.65289e-06 8.13e-06 6.68e-05 1.35e-05 
49 1 1.46924e-06 1.11e-05 8.86e-05 1.91e-05 
39 1 1.57127e-06 4.1e-05 9.13e-05 2.06e-05 
20 1 1.60188e-06 4.6e-05 9.75e-05 2.48e-05 
10 1 1.52025e-06 3.55e-05 9.8e-05 2.76e-05 
27 1 1.88756e-06 3.21e-05 7.51e-05 3.52e-05 
3 1 1.63249e-06 4.98e-05 5.24e-05 4.3e-05 
23 1 1.58147e-06 4.4e-05 7.11e-05 4.37e-05 
42 1 1.86716e-06 5.42e-05 2.2e-05 3.88e-06 
25 1 1.58147e-06 6.68e-05 2.27e-05 1.54e-05 
9 1 1.81614e-06 8.67e-05 3.83e-05 1.89e-05 
44 1 1.91817e-06 5.42e-05 2.03e-05 2.32e-05 
14 1 1.56107e-06 6.73e-05 3.01e-05 2.46e-05 
46 1 1.75492e-06 5.09e-05 1.67e-05 2.72e-05 
18 1 1.81614e-06 5.01e-05 6.1e-06 3.08e-05 
28 1 1.73452e-06 8.68e-05 4.08e-06 3.81e-05 
16 1 1.46924e-06 5.09e-05 7.02e-06 3.95e-05 
4 1 1.41822e-06 7.3e-05 2.36e-05 4.37e-05 
24 1 1.92838e-06 7.56e-05 1.53e-05 4.7e-05 
45 1 1.51005e-06 7.08e-05 8.36e-05 2.1e-06 
48 1 1.80594e-06 6.88e-05 7.2e-05 4.71e-06 
15 1 1.62228e-06 7.36e-05 9.4e-05 1.78e-05 
1 1 1.96919e-06 8.84e-05 9.41e-05 1.89e-05 
26 1 1.62228e-06 7.51e-05 6.78e-05 2.81e-05 
50 1 1.55086e-06 7.91e-05 6.54e-05 3.5e-05 
6 1 1.49985e-06 6.41e-05 5.98e-05 3.63e-05 
43 1 1.73452e-06 7.8e-05 6.92e-05 3.7e-05 
40 1 1.44883e-06 6.11e-05 7.96e-05 3.88e-05 
7 1 1.93858e-06 7.12e-05 9.31e-05 3.94e-05 
30 1 1.70391e-06 8.42e-05 5.08e-05 4.24e-05 
22 1 1.61208e-06 6.76e-05 9.41e-05 4.33e-05 
38 1 1.64269e-06 8.57e-05 6.4e-05 4.42e-05 
37 1 1.71411e-06 9.21e-05 9.01e-05 4.58e-05 
ITEM: TIMESTEP
400
ITEM: NUMBER OF ATOMS
51
ITEM: BOX BOUNDS ff ff ff
0.0000000000000000e+00 1.0000000000000000e-04
0.0000000000000000e+00 1.0000000000000000e-04
0.0000000000000000e+00 5.0000000000000002e-05
ITEM: ATOMS id type diameter x y z 
5 1 1.64346e-06 1.74e-05 2.62e-05 3.21e-06 
29 1 1.60238e-06 2.57e-05 3.12e-05 4.48e-06 
11 1 1.49966e-06 2.78e-05 3.8e-05 6.57e-06 
36 1 1.70509e-06 2.18e-05 2.52e-05 8.57e-06 
41 1 1.75645e-06 4.81e-05 1.08e-05 9.54e-06 
13 1 1.78727e-06 4.09e-05 2.42e-05 1.42e-05 
12 1 1.96188e-06 3.73e-05 4.57e-05 1.92e-05 
35 1 1.68455e-06 1.16e-05 9.72e-06 2.83e-05 
34 1 1.86944e-06 2.43e-05 2.74e-05 3.14e-05 
2 1 1.45857e-06 4.19e-05 1.8e-06 3.33e-05 
8 1 1.96188e-06 3.98e-06 3.02e-05 3.85e-05 
33 1 1.5202e-06 3.76e-05 2.55e-05 4.43e-05 
47 1 1.58183e-06 3.55e-05 4.2e-05 4.7e-05 
21 1 1.57156e-06 2.33e-05 4.53e-05 4.79e-05 
32 1 1.62292e-06 2.11e-05 7.34e-05 4.43e-06 
19 1 1.94134e-06 2.64e-05 8.31e-05 1.08e-05 
31 1 1.60238e-06 2.31e-05 8e-05 1.28e-05 
17 1 1.66401e-06 8.13e-06 6.68e-05 1.35e-05 
49 1 1.47912e-06 1.11e-05 8.86e-05 1.91e-05 
39 1 1.58183e-06 4.1e-05 9.13e-05 2.06e-05 
20 1 1.61265e-06 4.6e-05 9.75e-05 2.48e-05 
10 1 1.53047e-06 3.55e-05 9.8e-05 2.76e-05 
27 1 1.90025e-06 3.21e-05 7.51e-05 3.52e-05 
3 1 1.64346e-06 4.98e-05 5.24e-05 4.3e-05 
23 1 1.5921e-06 4.4e-05 7.11e-05 4.37e-05 
42 1 1.87971e-06 5.42e-05 2.2e-05 3.88e-06 
25 1 1.5921e-06 6.68e-05 2.27e-05 1.54e-05 
9 1 1.82835e-06 8.67e-05 3.83e-05 1.89e-05 
44 1 1.93107e-06 5.42e-05 2.03e-05 2.32e-05 
14 1 1.57156e-06 6.73e-05 3.01e-05 2.46e-05 
46 1 1.76672e-06 5.09e-05 1.67e-05 2.72e-05 
18 1 1.82835e-06 5.01e-05 6.1e-06 3.08e-05 
28 1 1.74618e-06 8.68e-05 4.08e-06 3.81e-05 
16 1 1.47912e-06 5.09e-05 7.02e-06 3.95e-05 
4 1 1.42776e-06 7.3e-05 2.36e-05 4.37e-05 
24 1 1.94134e-06 7.56e-05 1.53e-05 4.7e-05 
45 1 1.5202e-06 7.08e-05 8.36e-05 2.1e-06 
48 1 1.81808e-06 6.88e-05 7.2e-05 4.71e-06 
15 1 1.63319e-06 7.36e-05 9.4e-05 1.78e-05 
1 1 1.61327e-06 8.80155e-05 9.44928e-05 1.94885e-05 
51 1 1.53152e-06 8.87651e-05 9.37271e-05 1.83414e-05 
26 1 1.63319e-06 7.51e-05 6.78e-05 2.81e-05 
50 1 1.56129e-06 7.91e-05 6.54e-05 3.5e-05 
6 1 1.50993e-06 6.41e-05 5.98e-05 3.63e-05 
43 1 1.74618e-06 7.8e-05 6.92e-05 3.7e-05 
40 1 1.45857e-06 6.11e-05 7.96e-05 3.88e-05 
7 1 1.95161e-06 7.12e-05 9.31e-05 3.94e-05 
30 1 1.71536e-06 8.42e-05 5.08e-05 4.24e-05 
22 1 1.62292e-06 6.76e-05 9.41e-05 4.33e-05 
38 1 1.65373e-06 8.57e-05 6.4e-05 4.42e-05 
37 1 1.72564e-06 9.21e-05 9.01e-05 4.58e-05 
ITEM: TIMESTEP
500
ITEM: NUMBER OF ATOMS
53
ITEM: BOX BOUNDS ff ff ff
0.0000000000000000e+00 1.0000000000000000e-04
0.0000000000000000e+00 1.0000000000000000e-04
0.0000000000000000e+00 5.0000000000000002e-05
ITEM: ATOMS id type diameter x y z 
5 1 1.65451e-06 1.74e-05 2.62e-05 3.21e-06 
29 1 1.61315e-06 2.57e-05 3.12e-05 4.48e-06 
11 1 1.50974e-06 2.78e-05 3.8e-05 6.57e-06 
36 1 1.71656e-06 2.18e-05 2.52e-05 8.57e-06 
41 1 1.76826e-06 4.81e-05 1.08e-05 9.54e-06 
13 1 1.79928e-06 4.09e-05 2.42e-05 1.42e-05 
12 1 1.60728e-06 3.69169e-05 4.60913e-05 1.97863e-05 
52 1 1.52584e-06 3.76637e-05 4.53285e-05 1.86434e-05 
35 1 1.69587e-06 1.16e-05 9.72e-06 2.83e-05 
34 1 1.88201e-06 2.43e-05 2.74e-05 3.14e-05 
2 1 1.46838e-06 4.19e-05 1.8e-06 3.33e-05 
8 1 1.60728e-06 3.59689e-06 3.05913e-05 3.90863e-05 
33 1 1.53042e-06 3.76e-05 2.55e-05 4.43e-05 
47 1 1.59247e-06 3.55e-05 4.2e-05 4.7e-05 
21 1 1.58213e-06 2.33e-05 4.53e-05 4.79e-05 
53 1 1.52584e-06 4.3437e-06 2.98285e-05 3.79434e-05 
32 1 1.63383e-06 2.11e-05 7.34e-05 4.43e-06 
19 1 1.95439e-06 2.64e-05 8.31e-05 1.08e-05 
31 1 1.61315e-06 2.31e-05 8e-05 1.28e-05 
17 1 1.67519e-06 8.13e-06 6.68e-05 1.35e-05 
49 1 1.48906e-06 1.11e-05 8.86e-05 1.91e-05 
39 1 1.59247e-06 4.1e-05 9.13e-05 2.06e-05 
20 1 1.62349e-06 4.6e-05 9.75e-05 2.48e-05 
10 1 1.54076e-06 3.55e-05 9.8e-05 2.76e-05 
27 1 1.91303e-06 3.21e-05 7.51e-05 3.52e-05 
3 1 1.65451e-06 4.98e-05 5.24e-05 4.3e-05 
23 1 1.60281e-06 4.4e-05 7.11e-05 4.37e-05 
42 1 1.89235e-06 5.42e-05 2.2e-05 3.88e-06 
25 1 1.60281e-06 6.68e-05 2.27e-05 1.54e-05 
9 1 1.84064e-06 8.67e-05 3.83e-05 1.89e-05 
44 1 1.94405e-06 5.42e-05 2.03e-05 2.32e-05 
14 1 1.58213e-06 6.73e-05 3.01e-05 2.46e-05 
46 1 1.7786e-06 5.09e-05 1.67e-05 2.72e-05 
18 1 1.84064e-06 5.01e-05 6.1e-06 3.08e-05 
28 1 1.75792e-06 8.68e-05 4.08e-06 3.81e-05 
16 1 1.48906e-06 5.09e-05 7.02e-06 3.95e-05 
4 1 1.43736e-06 7.3e-05 2.36e-05 4.37e-05 
24 1 1.95439e-06 7.56e-05 1.53e-05 4.7e-05 
45 1 1.53042e-06 7.08e-05 8.36e-05 2.1e-06 
48 1 1.8303e-06 6.88e-05 7.2e-05 4.71e-06 
15 1 1.64417e-06 7.36e-05 9.4e-05 1.78e-05 
1 1 1.62411e-06 8.80155e-05 9.44928e-05 1.94885e-05 
51 1 1.54181e-06 8.87651e-05 9.37271e-05 1.83414e-05 
26 1 1.64417e-06 7.51e-05 6.78e-05 2.81e-05 
50 1 1.57179e-06 7.91e-05 6.54e-05 3.5e-05 
6 1 1.52008e-06 6.41e-05 5.98e-05 3.63e-05 
43 1 1.75792e-06 7.8e-05 6.92e-05 3.7e-05 
40 1 1.46838e-06 6.11e-05 7.96e-05 3.88e-05 
7 1 1.96473e-06 7.12e-05 9.31e-05 3.94e-05 
30 1 1.7269e-06 8.42e-05 5.08e-05 4.24e-05 
22 1 1.63383e-06 6.76e-05 9.41e-05 4.33e-05 
38 1 1.66485e-06 8.57e-05 6.4e-05 4.42e-05 
37 1 1.73724e-06 9.21e-05 9.01e-05 4.58e-05 
ITEM: TIMESTEP
600
ITEM: NUMBER OF ATOMS
54
ITEM: BOX BOUNDS ff ff ff
0.0000000000000000e+00 1.0000000000000000e-04
0.0000000000000000e+00 1.0000000000000000e-04
0.0000000000000000e+00 5.0000000000000002e-05
ITEM: ATOMS id type diameter x y z 
5 1 1.66564e-06 1.74e-05 2.62e-05 3.21e-06 
29 1 1.62399e-06 2.57e-05 3.12e-05 4.48e-06 
11 1 1.51989e-06 2.78e-05 3.8e-05 6.57e-06 
36 1 1.7281e-06 2.18e-05 2.52e-05 8.57e-06 
41 1 1.78015e-06 4.81e-05 1.08e-05 9.54e-06 
13 1 1.81138e-06 4.09e-05 2.42e-05 1.42e-05 
12 1 1.61809e-06 3.69169e-05 4.60913e-05 1.97863e-05 
52 1 1.53609e-06 3.76637e-05 4.53285e-05 1.86434e-05 
35 1 1.70728e-06 1.16e-05 9.72e-06 2.83e-05 
34 1 1.89466e-06 2.43e-05 2.74e-05 3.14e-05 
2 1 1.47825e-06 4.19e-05 1.8e-06 3.33e-05 
8 1 1.61809e-06 3.59689e-06 3.05913e-05 3.90863e-05 
33 1 1.54071e-06 3.76e-05 2.55e-05 4.43e-05 
47 1 1.60317e-06 3.55e-05 4.2e-05 4.7e-05 
21 1 1.59276e-06 2.33e-05 4.53e-05 4.79e-05 
53 1 1.53609e-06 4.3437e-06 2.98285e-05 3.79434e-05 
32 1 1.64481e-06 2.11e-05 7.34e-05 4.43e-06 
19 1 1.96753e-06 2.64e-05 8.31e-05 1.08e-05 
31 1 1.62399e-06 2.31e-05 8e-05 1.28e-05 
17 1 1.68646e-06 8.13e-06 6.68e-05 1.35e-05 
49 1 1.49907e-06 1.11e-05 8.86e-05 1.91e-05 
39 1 1.60317e-06 4.1e-05 9.13e-05 2.06e-05 
20 1 1.6344e-06 4.6e-05 9.75e-05 2.48e-05 
10 1 1.55112e-06 3.55e-05 9.8e-05 2.76e-05 
27 1 1.92589e-06 3.21e-05 7.51e-05 3.52e-05 
3 1 1.66564e-06 4.98e-05 5.24e-05 4.3e-05 
23 1 1.61358e-06 4.4e-05 7.11e-05 4.37e-05 
42 1 1.90507e-06 5.42e-05 2.2e-05 3.88e-06 
25 1 1.61358e-06 6.68e-05 2.27e-05 1.54e-05 
9 1 1.85302e-06 8.67e-05 3.83e-05 1.89e-05 
44 1 1.95712e-06 5.42e-05 2.03e-05 2.32e-05 
14 1 1.59276e-06 6.73e-05 3.01e-05 2.46e-05 
46 1 1.79056e-06 5.09e-05 1.67e-05 2.72e-05 
18 1 1.85302e-06 5.01e-05 6.1e-06 3.08e-05 
28 1 1.76974e-06 8.68e-05 4.08e-06 3.81e-05 
16 1 1.49907e-06 5.09e-05 7.02e-06 3.95e-05 
4 1 1.44702e-06 7.3e-05 2.36e-05 4.37e-05 
24 1 1.96753e-06 7.56e-05 1.53e-05 4.7e-05 
45 1 1.54071e-06 7.08e-05 8.36e-05 2.1e-06 
48 1 1.84261e-06 6.88e-05 7.2e-05 4.71e-06 
15 1 1.65523e-06 7.36e-05 9.4e-05 1.78e-05 
1 1 1.63503e-06 8.80155e-05 9.44928e-05 1.94885e-05 
51 1 1.55218e-06 8.87651e-05 9.37271e-05 1.83414e-05 
26 1 1.65523e-06 7.51e-05 6.78e-05 2.81e-05 
50 1 1.58235e-06 7.91e-05 6.54e-05 3.5e-05 
6 1 1.5303e-06 6.41e-05 5.98e-05 3.63e-05 
43 1 1.76974e-06 7.8e-05 6.92e-05 3.7e-05 
40 1 1.47825e-06 6.11e-05 7.96e-05 3.88e-05 
7 1 1.60962e-06 7.08163e-05 9.34919e-05 3.99871e-05 
30 1 1.73851e-06 8.42e-05 5.08e-05 4.24e-05 
22 1 1.64481e-06 6.76e-05 9.41e-05 4.33e-05 
38 1 1.67605e-06 8.57e-05 6.4e-05 4.42e-05 
37 1 1.74892e-06 9.21e-05 9.01e-05 4.58e-05 
54 1 1.52805e-06 7.15642e-05 9.2728e-05 3.88426e-05 
ITEM: TIMESTEP
700
ITEM: NUMBER OF ATOMS
56
ITEM: BOX BOUNDS ff ff ff
0.0000000000000000e+00 1.0000000000000000e-04
0.0000000000000000e+00 1.0000000000000000e-04
0.0000000000000000e+00 5.0000000000000002e-05
ITEM: ATOMS id type diameter x y z 
5 1 1.67683e-06 1.74e-05 2.62e-05 3.21e-06 
29 1 1.63491e-06 2.57e-05 3.12e-05 4.48e-06 
11 1 1.53011e-06 2.78e-05 3.8e-05 6.57e-06 
36 1 1.73971e-06 2.18e-05 2.52e-05 8.57e-06 
41 1 1.79212e-06 4.81e-05 1.08e-05 9.54e-06 
13 1 1.82356e-06 4.09e-05 2.42e-05 1.42e-05 
12 1 1.62897e-06 3.69169e-05 4.60913e-05 1.97863e-05 
52 1 1.54642e-06 3.76637e-05 4.53285e-05 1.86434e-05 
35 1 1.71875e-06 1.16e-05 9.72e-06 2.83e-05 
34 1 1.9074e-06 2.43e-05 2.74e-05 3.14e-05 
2 1 1.48819e-06 4.19e-05 1.8e-06 3.33e-05 
8 1 1.62897e-06 3.59689e-06 3.05913e-05 3.90863e-05 
33 1 1.55107e-06 3.76e-05 2.55e-05 4.43e-05 
47 1 1.61395e-06 3.55e-05 4.2e-05 4.7e-05 
21 1 1.60347e-06 2.33e-05 4.53e-05 4.79e-05 
53 1 1.54642e-06 4.3437e-06 2.98285e-05 3.79434e-05 
32 1 1.65587e-06 2.11e-05 7.34e-05 4.43e-06 
19 1 1.61191e-06 2.60158e-05 8.34925e-05 1.1388e-05 
31 1 1.63491e-06 2.31e-05 8e-05 1.28e-05 
17 1 1.69779e-06 8.13e-06 6.68e-05 1.35e-05 
49 1 1.50915e-06 1.11e-05 8.86e-05 1.91e-05 
55 1 1.53023e-06 2.67647e-05 8.27274e-05 1.02418e-05 
39 1 1.61395e-06 4.1e-05 9.13e-05 2.06e-05 
20 1 1.64539e-06 4.6e-05 9.75e-05 2.48e-05 
10 1 1.56155e-06 3.55e-05 9.8e-05 2.76e-05 
27 1 1.93884e-06 3.21e-05 7.51e-05 3.52e-05 
3 1 1.67683e-06 4.98e-05 5.24e-05 4.3e-05 
23 1 1.62443e-06 4.4e-05 7.11e-05 4.37e-05 
42 1 1.91788e-06 5.42e-05 2.2e-05 3.88e-06 
25 1 1.62443e-06 6.68e-05 2.27e-05 1.54e-05 
9 1 1.86548e-06 8.67e-05 3.83e-05 1.89e-05 
44 1 1.97028e-06 5.42e-05 2.03e-05 2.32e-05 
14 1 1.60347e-06 6.73e-05 3.01e-05 2.46e-05 
46 1 1.8026e-06 5.09e-05 1.67e-05 2.72e-05 
18 1 1.86548e-06 5.01e-05 6.1e-06 3.08e-05 
28 1 1.78164e-06 8.68e-05 4.08e-06 3.81e-05 
16 1 1.50915e-06 5.09e-05 7.02e-06 3.95e-05 
4 1 1.45675e-06 7.3e-05 2.36e-05 4.37e-05 
24 1 1.61191e-06 7.52158e-05 1.56925e-05 4.7588e-05 
56 1 1.53023e-06 7.59647e-05 1.49274e-05 4.64418e-05 
45 1 1.55107e-06 7.08e-05 8.36e-05 2.1e-06 
48 1 1.855e-06 6.88e-05 7.2e-05 4.71e-06 
15 1 1.66635e-06 7.36e-05 9.4e-05 1.78e-05 
1 1 1.64602e-06 8.80059e-05 9.45025e-05 1.95031e-05 
51 1 1.56261e-06 8.87746e-05 9.37174e-05 1.83267e-05 
26 1 1.66635e-06 7.51e-05 6.78e-05 2.81e-05 
50 1 1.59299e-06 7.91e-05 6.54e-05 3.5e-05 
6 1 1.54059e-06 6.41e-05 5.98e-05 3.63e-05 
43 1 1.78164e-06 7.8e-05 6.92e-05 3.7e-05 
40 1 1.48819e-06 6.11e-05 7.96e-05 3.88e-05 
7 1 1.62044e-06 7.08163e-05 9.34919e-05 3.99871e-05 
30 1 1.75019e-06 8.42e-05 5.08e-05 4.24e-05 
22 1 1.65587e-06 6.76e-05 9.41e-05 4.33e-05 
38 1 1.68731e-06 8.57e-05 6.4e-05 4.42e-05 
37 1 1.76068e-06 9.21e-05 9.01e-05 4.58e-05 
54 1 1.53832e-06 7.15642e-05 9.2728e-05 3.88426e-05 
ITEM: TIMESTEP
800
ITEM: NUMBER OF ATOMS
57
ITEM: BOX BOUNDS ff ff ff
0.0000000000000000e+00 1.0000000000000000e-04
0.0000000000000000e+00 1.0000000000000000e-04
0.0000000000000000e+00 5.0000000000000002e-05
ITEM: ATOMS id type diameter x y z 
5 1 1.68811e-06 1.74e-05 2.62e-05 3.21e-06 
29 1 1.6459e-06 2.57e-05 3.12e-05 4.48e-06 
11 1 1.5404e-06 2.78e-05 3.8e-05 6.57e-06 
36 1 1.75141e-06 2.18e-05 2.52e-05 8.57e-06 
41 1 1.80416e-06 4.81e-05 1.08e-05 9.54e-06 
13 1 1.83582e-06 4.09e-05 2.42e-05 1.42e-05 
12 1 1.63992e-06 3.69073e-05 4.61011e-05 1.98009e-05 
52 1 1.55682e-06 3.76732e-05 4.53187e-05 1.86288e-05 
35 1 1.73031e-06 1.16e-05 9.72e-06 2.83e-05 
34 1 1.92022e-06 2.43e-05 2.74e-05 3.14e-05 
2 1 1.49819e-06 4.19e-05 1.8e-06 3.33e-05 
8 1 1.63992e-06 3.58734e-06 3.06011e-05 3.91009e-05 
33 1 1.5615e-06 3.76e-05 2.55e-05 4.43e-05 
47 1 1.6248e-06 3.55e-05 4.2e-05 4.7e-05 
21 1 1.61425e-06 2.33e-05 4.53e-05 4.79e-05 
53 1 1.55682e-06 4.35325e-06 2.98187e-05 3.79288e-05 
32 1 1.66701e-06 2.11e-05 7.34e-05 4.43e-06 
19 1 1.62275e-06 2.60158e-05 8.34925e-05 1.1388e-05 
31 1 1.6459e-06 2.31e-05 8e-05 1.28e-05 
17 1 1.70921e-06 8.13e-06 6.68e-05 1.35e-05 
49 1 1.5193e-06 1.11e-05 8.86e-05 1.91e-05 
55 1 1.54052e-06 2.67647e-05 8.27274e-05 1.02418e-05 
39 1 1.6248e-06 4.1e-05 9.13e-05 2.06e-05 
20 1 1.65645e-06 4.6e-05 9.75e-05 2.48e-05 
10 1 1.57205e-06 3.55e-05 9.8e-05 2.76e-05 
27 1 1.95187e-06 3.21e-05 7.51e-05 3.52e-05 
3 1 1.68811e-06 4.98e-05 5.24e-05 4.3e-05 
23 1 1.63535e-06 4.4e-05 7.11e-05 4.37e-05 
42 1 1.93077e-06 5.42e-05 2.2e-05 3.88e-06 
25 1 1.63535e-06 6.68e-05 2.27e-05 1.54e-05 
9 1 1.87802e-06 8.67e-05 3.83e-05 1.89e-05 
44 1 1.58995e-06 5.39744e-05 1.97237e-05 2.36969e-05 
14 1 1.61425e-06 6.73e-05 3.01e-05 2.46e-05 
46 1 1.81471e-06 5.09e-05 1.67e-05 2.72e-05 
18 1 1.87802e-06 5.01e-05 6.1e-06 3.08e-05 
28 1 1.79361e-06 8.68e-05 4.08e-06 3.81e-05 
16 1 1.5193e-06 5.09e-05 7.02e-06 3.95e-05 
4 1 1.46654e-06 7.3e-05 2.36e-05 4.37e-05 
24 1 1.62275e-06 7.52158e-05 1.56925e-05 4.7588e-05 
56 1 1.54052e-06 7.59647e-05 1.49274e-05 4.64418e-05 
57 1 1.55839e-06 5.44211e-05 2.08648e-05 2.2713e-05 
45 1 1.5615e-06 7.08e-05 8.36e-05 2.1e-06 
48 1 1.86747e-06 6.88e-05 7.2e-05 4.71e-06 
15 1 1.67756e-06 7.36e-05 9.4e-05 1.78e-05 
1 1 1.65709e-06 8.80059e-05 9.45025e-05 1.95031e-05 
51 1 1.57312e-06 8.87746e-05 9.37174e-05 1.83267e-05 
26 1 1.67756e-06 7.51e-05 6.78e-05 2.81e-05 
50 1 1.6037e-06 7.91e-05 6.54e-05 3.5e-05 
6 1 1.55095e-06 6.41e-05 5.98e-05 3.63e-05 
43 1 1.79361e-06 7.8e-05 6.92e-05 3.7e-05 
40 1 1.49819e-06 6.11e-05 7.96e-05 3.88e-05 
7 1 1.63133e-06 7.08163e-05 9.34919e-05 3.99871e-05 
30 1 1.76196e-06 8.42e-05 5.08e-05 4.24e-05 
22 1 1.66701e-06 6.76e-05 9.41e-05 4.33e-05 
38 1 1.69866e-06 8.57e-05 6.4e-05 4.42e-05 
37 1 1.77251e-06 9.21e-05 9.01e-05 4.58e-05 
54 1 1.54867e-06 7.15642e-05 9.2728e-05 3.88426e-05 
ITEM: TIMESTEP
900
ITEM: NUMBER OF ATOMS
57
ITEM: BOX BOUNDS ff ff ff
0.0000000000000000e+00 1.0000000000000000e-04
0.0000000000000000e+00 1.0000000000000000e-04
0.0000000000000000e+00 5.0000000000000002e-05
ITEM: ATOMS id type diameter x y z 
5 1 1.69946e-06 1.74e-05 2.62e-05 3.21e-06 
29 1 1.65697e-06 2.57e-05 3.12e-05 4.48e-06 
11 1 1.55075e-06 2.78e-05 3.8e-05 6.57e-06 
36 1 1.76319e-06 2.18e-05 2.52e-05 8.57e-06 
41 1 1.81629e-06 4.81e-05 1.08e-05 9.54e-06 
13 1 1.84816e-06 4.09e-05 2.42e-05 1.42e-05 
12 1 1.65094e-06 3.69073e-05 4.61011e-05 1.98009e-05 
52 1 1.56728e-06 3.76732e-05 4.53187e-05 1.86288e-05 
35 1 1.74194e-06 1.16e-05 9.72e-06 2.83e-05 
34 1 1.93313e-06 2.43e-05 2.74e-05 3.14e-05 
2 1 1.50827e-06 4.19e-05 1.8e-06 3.33e-05 
8 1 1.65094e-06 3.58734e-06 3.06011e-05 3.91009e-05 
33 1 1.572e-06 3.76e-05 2.55e-05 4.43e-05 
47 1 1.63573e-06 3.55e-05 4.2e-05 4.7e-05 
21 1 1.6251e-06 2.33e-05 4.53e-05 4.79e-05 
53 1 1.56728e-06 4.35325e-06 2.98187e-05 3.79288e-05 
32 1 1.67821e-06 2.11e-05 7.34e-05 4.43e-06 
19 1 1.63366e-06 2.60158e-05 8.34925e-05 1.1388e-05 
31 1 1.65697e-06 2.31e-05 8e-05 1.28e-05 
17 1 1.7207e-06 8.13e-06 6.68e-05 1.35e-05 
49 1 1.52951e-06 1.11e-05 8.86e-05 1.91e-05 
55 1 1.55087e-06 2.67647e-05 8.27274e-05 1.02418e-05 
39 1 1.63573e-06 4.1e-05 9.13e-05 2.06e-05 
20 1 1.66759e-06 4.6e-05 9.75e-05 2.48e-05 
10 1 1.58262e-06 3.55e-05 9.8e-05 2.76e-05 
27 1 1.965e-06 3.21e-05 7.51e-05 3.52e-05 
3 1 1.69946e-06 4.98e-05 5.24e-05 4.3e-05 
23 1 1.64635e-06 4.4e-05 7.11e-05 4.37e-05 
42 1 1.94375e-06 5.42e-05 2.2e-05 3.88e-06 
25 1 1.64635e-06 6.68e-05 2.27e-05 1.54e-05 
9 1 1.89064e-06 8.67e-05 3.83e-05 1.89e-05 
44 1 1.60064e-06 5.39744e-05 1.97237e-05 2.36969e-05 
14 1 1.6251e-06 6.73e-05 3.01e-05 2.46e-05 
46 1 1.82691e-06 5.09e-05 1.67e-05 2.72e-05 
18 1 1.89064e-06 5.01e-05 6.1e-06 3.08e-05 
28 1 1.80567e-06 8.68e-05 4.08e-06 3.81e-05 
16 1 1.52951e-06 5.09e-05 7.02e-06 3.95e-05 
4 1 1.4764e-06 7.3e-05 2.36e-05 4.37e-05 
24 1 1.63366e-06 7.52158e-05 1.56925e-05 4.7588e-05 
56 1 1.55087e-06 7.59647e-05 1.49274e-05 4.64418e-05 
57 1 1.56886e-06 5.44211e-05 2.08648e-05 2.2713e-05 
45 1 1.572e-06 7.08e-05 8.36e-05 2.1e-06 
48 1 1.88002e-06 6.88e-05 7.2e-05 4.71e-06 
15 1 1.68883e-06 7.36e-05 9.4e-05 1.78e-05 
1 1 1.66823e-06 8.80059e-05 9.45025e-05 1.95031e-05 
51 1 1.5837e-06 8.87746e-05 9.37174e-05 1.83267e-05 
26 1 1.68883e-06 7.51e-05 6.78e-05 2.81e-05 
50 1 1.61448e-06 7.91e-05 6.54e-05 3.5e-05 
6 1 1.56138e-06 6.41e-05 5.98e-05 3.63e-05 
43 1 1.80567e-06 7.8e-05 6.92e-05 3.7e-05 
40 1 1.50827e-06 6.11e-05 7.96e-05 3.88e-05 
7 1 1.6423e-06 7.08068e-05 9.35017e-05 4.00017e-05 
30 1 1.77381e-06 8.42e-05 5.08e-05 4.24e-05 
22 1 1.67821e-06 6.76e-05 9.41e-05 4.33e-05 
38 1 1.71008e-06 8.57e-05 6.4e-05 4.42e-05 
37 1 1.78443e-06 9.21e-05 9.01e-05 4.58e-05 
54 1 1.55908e-06 7.15738e-05 9.27182e-05 3.8828e-05 
ITEM: TIMESTEP
1000
ITEM: NUMBER OF ATOMS
58
ITEM: BOX BOUNDS ff ff ff
0.0000000000000000e+00 1.0000000000000000e-04
0.0000000000000000e+00 1.0000000000000000e-04
0.0000000000000000e+00 5.0000000000000002e-05
ITEM: ATOMS id type diameter x y z 
5 1 1.71088e-06 1.74e-05 2.62e-05 3.21e-06 
29 1 1.66811e-06 2.57e-05 3.12e-05 4.48e-06 
11 1 1.56118e-06 2.78e-05 3.8e-05 6.57e-06 
36 1 1.77504e-06 2.18e-05 2.52e-05 8.57e-06 
41 1 1.8285e-06 4.81e-05 1.08e-05 9.54e-06 
13 1 1.86058e-06 4.09e-05 2.42e-05 1.42e-05 
52 1 1.57782e-06 3.76732e-05 4.53187e-05 1.86288e-05 
12 1 1.66204e-06 3.69073e-05 4.61011e-05 1.98009e-05 
35 1 1.75365e-06 1.16e-05 9.72e-06 2.83e-05 
34 1 1.94613e-06 2.43e-05 2.74e-05 3.14e-05 
2 1 1.51841e-06 4.19e-05 1.8e-06 3.33e-05 
53 1 1.57782e-06 4.35325e-06 2.98187e-05 3.79288e-05 
8 1 1.66204e-06 3.58734e-06 3.06011e-05 3.91009e-05 
33 1 1.58257e-06 3.76e-05 2.55e-05 4.43e-05 
47 1 1.64672e-06 3.55e-05 4.2e-05 4.7e-05 
21 1 1.63603e-06 2.33e-05 4.53e-05 4.79e-05 
32 1 1.6895e-06 2.11e-05 7.34e-05 4.43e-06 
55 1 1.5613e-06 2.67743e-05 8.27177e-05 1.02272e-05 
19 1 1.64464e-06 2.60062e-05 8.35022e-05 1.14026e-05 
31 1 1.66811e-06 2.31e-05 8e-05 1.28e-05 
17 1 1.73227e-06 8.13e-06 6.68e-05 1.35e-05 
49 1 1.53979e-06 1.11e-05 8.86e-05 1.91e-05 
39 1 1.64672e-06 4.1e-05 9.13e-05 2.06e-05 
20 1 1.6788e-06 4.6e-05 9.75e-05 2.48e-05 
10 1 1.59326e-06 3.55e-05 9.8e-05 2.76e-05 
58 1 1.52826e-06 3.24643e-05 7.47279e-05 3.46426e-05 
27 1 1.60983e-06 3.17163e-05 7.5492e-05 3.57872e-05 
3 1 1.71088e-06 4.98e-05 5.24e-05 4.3e-05 
23 1 1.65742e-06 4.4e-05 7.11e-05 4.37e-05 
42 1 1.95682e-06 5.42e-05 2.2e-05 3.88e-06 
25 1 1.65742e-06 6.68e-05 2.27e-05 1.54e-05 
9 1 1.90336e-06 8.67e-05 3.83e-05 1.89e-05 
57 1 1.57941e-06 5.44211e-05 2.08648e-05 2.2713e-05 
44 1 1.6114e-06 5.39744e-05 1.97237e-05 2.36969e-05 
14 1 1.63603e-06 6.73e-05 3.01e-05 2.46e-05 
46 1 1.8392e-06 5.09e-05 1.67e-05 2.72e-05 
18 1 1.90336e-06 5.01e-05 6.1e-06 3.08e-05 
28 1 1.81781e-06 8.68e-05 4.08e-06 3.81e-05 
16 1 1.53979e-06 5.09e-05 7.02e-06 3.95e-05 
4 1 1.48633e-06 7.3e-05 2.36e-05 4.37e-05 
56 1 1.5613e-06 7.59743e-05 1.49177e-05 4.64272e-05 
24 1 1.64464e-06 7.52062e-05 1.57022e-05 4.76026e-05 
45 1 1.58257e-06 7.08e-05 8.36e-05 2.1e-06 
48 1 1.89266e-06 6.88e-05 7.2e-05 4.71e-06 
15 1 1.70019e-06 7.36e-05 9.4e-05 1.78e-05 
51 1 1.59434e-06 8.87746e-05 9.37174e-05 1.83267e-05 
1 1 1.67945e-06 8.80059e-05 9.45025e-05 1.95031e-05 
26 1 1.70019e-06 7.51e-05 6.78e-05 2.81e-05 
50 1 1.62534e-06 7.91e-05 6.54e-05 3.5e-05 
6 1 1.57187e-06 6.41e-05 5.98e-05 3.63e-05 
43 1 1.81781e-06 7.8e-05 6.92e-05 3.7e-05 
40 1 1.51841e-06 6.11e-05 7.96e-05 3.88e-05 
54 1 1.56956e-06 7.15738e-05 9.27182e-05 3.8828e-05 
7 1 1.65334e-06 7.08068e-05 9.35017e-05 4.00017e-05 
30 1 1.78573e-06 8.42e-05 5.08e-05 4.24e-05 
22 1 1.6895e-06 6.76e-05 9.41e-05 4.33e-05 
38 1 1.72157e-06 8.57e-05 6.4e-05 4.42e-05 
37 1 1.79643e-06 9.21e-05 9.01e-05 4.58e-05 
ITEM: TIMESTEP
1100
ITEM: NUMBER OF ATOMS
58
ITEM: BOX BOUNDS ff ff ff
0.0000000000000000e+00 1.0000000000000000e-04
0.0000000000000000e+00 1.0000000000000000e-04
0.0000000000000000e+00 5.0000000000000002e-05
ITEM: ATOMS id type diameter x y z 
5 1 1.72238e-06 1.74e-05 2.62e-05 3.21e-06 
29 1 1.67932e-06 2.57e-05 3.12e-05 4.48e-06 
11 1 1.57167e-06 2.78e-05 3.8e-05 6.57e-06 
36 1 1.78697e-06 2.18e-05 2.52e-05 8.57e-06 
41 1 1.8408e-06 4.81e-05 1.08e-05 9.54e-06 
13 1 1.87309e-06 4.09e-05 2.42e-05 1.42e-05 
52 1 1.58843e-06 3.76732e-05 4.53187e-05 1.86288e-05 
12 1 1.67322e-06 3.69073e-05 4.61011e-05 1.98009e-05 
35 1 1.76544e-06 1.16e-05 9.72e-06 2.83e-05 
34 1 1.95921e-06 2.43e-05 2.74e-05 3.14e-05 
2 1 1.52862e-06 4.19e-05 1.8e-06 3.33e-05 
53 1 1.58843e-06 4.35325e-06 2.98187e-05 3.79288e-05 
8 1 1.67322e-06 3.58734e-06 3.06011e-05 3.91009e-05 