LAMMPS (20 Nov 2019)
Reading data file ...
  orthogonal box = (0 0 0) to (0.0001 0.0001 0.0001)
  2 by 4 by 4 MPI processor grid
  reading atoms ...
  100 atoms
  4 nutrients
Lattice spacing in x,y,z = 100 100 100
100 atoms in group CYANO
0 atoms in group ECW
Model is defined as a closed system. 
Neighbor list info ...
  update every 1 steps, delay 0 steps, check yes
  max neighbors/atom: 5000, page size: 100000
  master list distance cutoff = 2.44e-06
  ghost atom cutoff = 2.44e-06
  binsize = 1.22e-06, bins = 82 82 82
  1 neighbor lists, perpetual/occasional/extra = 1 0 0
  (1) pair gran/hooke/history, perpetual
      attributes: half, newton off, size, history
      pair build: half/size/bin/newtoff
      stencil: half/bin/3d/newtoff
      bin: standard
Setting up Verlet run ...
  Unit style    : lj
  Current step  : 0
  Time step     : 10
Per MPI rank memory allocation (min/avg/max) = 5.856 | 9.893 | 10.91 Mbytes
Step CPU Atoms c_myNtypes[1] c_myNtypes[2] c_myMass[1] c_myMass[2] c_myCon[1] c_myCon[2] c_myCon[3] c_myCon[4] 
       0            0      100          100            0 8.9134888e-14            0          0.1        0.009     3.42e-20       0.0299 
number of iterations: 43801 
     100   0.54715234      100          100            0 9.0874019e-14            0          0.1 0.0090002529 1.4117876e-20  0.029899579 
number of iterations: 35973 
     200   0.94853815      100          100            0 9.2647083e-14            0          0.1 0.0090002578 1.0466091e-20  0.029899571 
number of iterations: 25995 
     300    1.2585215      101          101            0 9.4454742e-14            0          0.1 0.0090002628 9.7468718e-21  0.029899562 
number of iterations: 23171 
     400    1.5475456      103          103            0 9.629767e-14            0          0.1 0.0090002681 1.0317543e-20  0.029899554 
number of iterations: 24215 
     500    1.8417949      105          105            0 9.8176556e-14            0          0.1 0.0090002733 9.7030141e-21  0.029899545 
number of iterations: 23916 
     600    2.1377259      107          107            0 1.000921e-13            0          0.1 0.0090002787 1.0302476e-20  0.029899536 
number of iterations: 23989 
     700    2.4306127      107          107            0 1.0204502e-13            0          0.1 0.0090002841 9.6982491e-21  0.029899527 
number of iterations: 23990 
     800    2.7237461      108          108            0 1.0403605e-13            0          0.1 0.0090002896 1.0300942e-20  0.029899518 
number of iterations: 23965 
     900    3.0215842      110          110            0 1.0606592e-13            0          0.1 0.0090002953 9.6977262e-21  0.029899508 
number of iterations: 23999 
    1000    3.3192863      113          113            0 1.0813539e-13            0          0.1 0.0090003011 1.0300693e-20  0.029899499 
number of iterations: 23961 
    1100    3.6141686      115          115            0 1.1024525e-13            0          0.1 0.0090003069 9.6976329e-21  0.029899489 
number of iterations: 24000 
    1200    3.9115423      117          117            0 1.1239627e-13            0          0.1 0.0090003129  1.03007e-20  0.029899479 
number of iterations: 23962 
    1300    4.2155364      119          119            0 1.1458926e-13            0          0.1  0.009000319 9.6977115e-21  0.029899469 
number of iterations: 23999 
    1400    4.5137792      121          121            0 1.1682504e-13            0          0.1 0.0090003253 1.0300707e-20  0.029899459 
number of iterations: 23962 
    1500    4.8103704      122          122            0 1.1910444e-13            0          0.1 0.0090003316 9.697704e-21  0.029899448 
number of iterations: 23999 
    1600    5.1080089      124          124            0 1.2142831e-13            0          0.1 0.0090003381 1.0300715e-20  0.029899437 
number of iterations: 23962 
    1700    5.4078826      126          126            0 1.2379753e-13            0          0.1 0.0090003447 9.6976966e-21  0.029899426 
number of iterations: 23999 
    1800    5.7092315      127          127            0 1.2621297e-13            0          0.1 0.0090003514 1.0300722e-20  0.029899415 
number of iterations: 23962 
    1900    6.0092789      130          130            0 1.2867554e-13            0          0.1 0.0090003583 9.6976891e-21  0.029899404 
number of iterations: 23999 
    2000    6.3093481      131          131            0 1.3118616e-13            0          0.1 0.0090003652 1.030073e-20  0.029899392 
number of iterations: 23962 
    2100    6.6078544      133          133            0 1.3374576e-13            0          0.1 0.0090003724 9.6976817e-21   0.02989938 
number of iterations: 23517 
    2200    6.9023945      135          135            0 1.363553e-13            0          0.1 0.0090003801 1.0276995e-20  0.029899367 
number of iterations: 23128 
    2300    7.1956068      137          137            0 1.3901576e-13            0          0.1 0.0090003876 9.7152697e-21  0.029899355 
number of iterations: 23255 
    2400    7.4940876      138          138            0 1.4172813e-13            0          0.1 0.0090003951 1.0281951e-20  0.029899342 
number of iterations: 23205 
    2500     7.793387      144          144            0 1.4449342e-13            0          0.1 0.0090004028 9.7148556e-21  0.029899329 
number of iterations: 23261 
    2600    8.0924313      145          145            0 1.4731267e-13            0          0.1 0.0090004107 1.0283686e-20  0.029899316 
number of iterations: 23232 
    2700    8.3849347      146          146            0 1.5018692e-13            0          0.1 0.0090004187 9.7153581e-21  0.029899303 
number of iterations: 23253 
    2800    8.6891872      150          150            0 1.5311725e-13            0          0.1 0.0090004301 1.0176429e-20  0.029899284 
number of iterations: 21152 
    2900    8.9973048      155          155            0 1.5610475e-13            0          0.1 0.0090004385 9.7879262e-21   0.02989927 
number of iterations: 21965 
    3000    9.3081862      157          157            0 1.5915055e-13            0          0.1 0.0090004471 1.0198673e-20  0.029899256 
number of iterations: 21673 
    3100      9.59218      158          158            0 1.6225577e-13            0          0.1 0.0090004558 9.7962821e-21  0.029899241 
number of iterations: 21788 
    3200    9.8774141      159          159            0 1.6542158e-13            0          0.1 0.0090004647 1.0201612e-20  0.029899226 
number of iterations: 21737 
    3300    10.160468      160          160            0 1.6864916e-13            0          0.1 0.0090004737 9.7973048e-21  0.029899211 
number of iterations: 21766 
    3400    10.444109      164          164            0 1.7193971e-13            0          0.1  0.009000483 1.0201968e-20  0.029899196 
number of iterations: 21745 
    3500    10.727103      164          164            0 1.7529447e-13            0          0.1 0.0090004924 9.7974478e-21   0.02989918 
number of iterations: 21763 
    3600    11.009036      170          170            0 1.7871468e-13            0          0.1  0.009000502 1.0202013e-20  0.029899164 
number of iterations: 21746 
    3700    11.293833      173          173            0 1.8220162e-13            0          0.1 0.0090005118 9.7956297e-21  0.029899148 
number of iterations: 21803 
    3800    11.582173      177          177            0 1.857566e-13            0          0.1 0.0090005218 1.020318e-20  0.029899131 
number of iterations: 21771 
    3900    11.867109      179          179            0 1.8938094e-13            0          0.1  0.009000532 9.7960143e-21  0.029899114 
number of iterations: 21794 
    4000    12.153809      182          182            0 1.9307599e-13            0          0.1 0.0090005434 1.0203358e-20  0.029899095 
number of iterations: 21775 
    4100    12.438485      188          188            0 1.9684314e-13            0          0.1 0.0090005542 9.7960859e-21  0.029899077 
number of iterations: 21793 
    4200    12.727976      191          191            0 2.006838e-13            0          0.1  0.009000565 1.0203349e-20  0.029899059 
number of iterations: 21775 
    4300     13.01679      199          199            0 2.0459938e-13            0          0.1  0.009000576 9.796095e-21  0.029899041 
number of iterations: 21792 
    4400    13.303604      206          206            0 2.0859137e-13            0          0.1 0.0090005872 1.0203402e-20  0.029899022 
number of iterations: 21776 
    4500    13.586006      210          210            0 2.1266124e-13            0          0.1  0.009000596 9.7961041e-21  0.029899008 
number of iterations: 21792 
    4600     13.87256      216          216            0 2.1681053e-13            0          0.1 0.0090006077 1.0203393e-20  0.029898988 
number of iterations: 21776 
    4700    14.162858      220          220            0 2.2104077e-13            0          0.1 0.0090006195 9.7961132e-21  0.029898969 
number of iterations: 21792 
    4800    14.449372      225          225            0 2.2535354e-13            0          0.1 0.0090006316 1.0203384e-20  0.029898948 
number of iterations: 21776 
    4900    14.737684      230          230            0 2.2975047e-13            0          0.1 0.0090006439 9.7961223e-21  0.029898928 
number of iterations: 21792 
    5000    15.029724      233          233            0 2.3423318e-13            0          0.1 0.0090006565 1.0203374e-20  0.029898907 
number of iterations: 21775 
    5100    15.317732      237          237            0 2.3880336e-13            0          0.1 0.0090006698 9.7953717e-21  0.029898885 
number of iterations: 21808 
    5200    15.607628      248          248            0 2.434627e-13            0          0.1 0.0090006828 1.0203828e-20  0.029898863 
number of iterations: 21785 
    5300    15.897767      253          253            0 2.4821296e-13            0          0.1 0.0090006983 9.7955399e-21  0.029898837 
number of iterations: 21804 
    5400      16.1865      257          257            0 2.530559e-13            0          0.1  0.009000712 1.0203909e-20  0.029898815 
number of iterations: 21787 
    5500    16.476391      260          260            0 2.5799333e-13            0          0.1 0.0090007258 9.7955831e-21  0.029898791 
number of iterations: 21804 
    5600    16.769193      264          264            0 2.630271e-13            0          0.1   0.00900074 1.0203866e-20  0.029898768 
number of iterations: 21662 
    5700    17.056544      272          272            0 2.6815908e-13            0          0.1 0.0090007538 9.8004357e-21  0.029898745 
number of iterations: 21574 
    5800    17.346035      278          278            0 2.7339119e-13            0          0.1 0.0090007685 1.020073e-20   0.02989872 
number of iterations: 21595 
    5900    17.628884      281          281            0 2.7872539e-13            0          0.1 0.0090007813 9.7993997e-21  0.029898699 
number of iterations: 21596 
    6000    17.917895      286          286            0 2.8416366e-13            0          0.1 0.0090007965 1.0200409e-20  0.029898674 
number of iterations: 21588 
    6100    18.208852      288          288            0 2.8970805e-13            0          0.1 0.0090008116 9.7992884e-21  0.029898649 
number of iterations: 21599 
    6200     18.49785      293          293            0 2.9536061e-13            0          0.1 0.0090008274 1.0200335e-20  0.029898622 
number of iterations: 21586 
    6300    18.822532      300          300            0 3.0112345e-13            0          0.1 0.0090008436 9.7992388e-21  0.029898595 
number of iterations: 21600 
    6400    19.146771      303          303            0 3.0699874e-13            0          0.1   0.00900086 1.0200322e-20  0.029898568 
number of iterations: 21586 
    6500    19.441279      308          308            0 3.1298866e-13            0          0.1  0.009000879 9.7992512e-21  0.029898536 
number of iterations: 21600 
    6600    19.730872      312          312            0 3.1909546e-13            0          0.1 0.0090008964 1.020031e-20  0.029898508 
number of iterations: 21586 
    6700    20.023484      316          316            0 3.253214e-13            0          0.1 0.0090009139 9.7992636e-21  0.029898478 
number of iterations: 21599 
    6800    20.314444      316          316            0 3.3166882e-13            0          0.1 0.0090009317 1.0200359e-20  0.029898449 
number of iterations: 21587 
    6900    20.606672      323          323            0 3.3814009e-13            0          0.1 0.0090009499 9.799276e-21  0.029898418 
number of iterations: 21599 
    7000    20.900323      328          328            0 3.4473761e-13            0          0.1 0.0090009684 1.0200347e-20  0.029898388 
number of iterations: 21587 
    7100    21.195296      333          333            0 3.5146387e-13            0          0.1 0.0090009871 9.7992883e-21  0.029898356 
number of iterations: 21599 
    7200    21.489341      344          344            0 3.5832136e-13            0          0.1 0.0090010054 1.0134145e-20  0.029898326 
number of iterations: 19849 
    7300    21.767757      355          355            0 3.6531265e-13            0          0.1 0.0090010233 9.842591e-21  0.029898296 
number of iterations: 20547 
    7400    22.051923      362          362            0 3.7244035e-13            0          0.1 0.0090010428 1.0145915e-20  0.029898264 
number of iterations: 20214 
    7500    22.333683      372          372            0 3.7970711e-13            0          0.1 0.0090010631 9.8497645e-21   0.02989823 
number of iterations: 20344 
    7600    22.620543      374          374            0 3.8711566e-13            0          0.1 0.0090010838 1.0148488e-20  0.029898195 
number of iterations: 20290 
    7700    22.904228      385          385            0 3.9466876e-13            0          0.1  0.009001104 9.8507228e-21  0.029898162 
number of iterations: 20317 
    7800    23.188116      392          392            0 4.0236924e-13            0          0.1 0.0090011244 1.0148801e-20  0.029898128 
number of iterations: 20299 
    7900     23.47363      395          395            0 4.1021995e-13            0          0.1 0.0090011465 9.8498822e-21  0.029898091 
number of iterations: 20341 
    8000    23.757929      405          405            0 4.1822385e-13            0          0.1 0.0090011688 1.014947e-20  0.029898054 
number of iterations: 20318 
    8100    24.042495      416          416            0 4.2638391e-13            0          0.1 0.0090011912 9.8501002e-21  0.029898017 
number of iterations: 20335 
    8200    24.327131      427          427            0 4.3470318e-13            0          0.1 0.0090012145 1.0149534e-20  0.029897978 
number of iterations: 20320 
    8300     24.61039      430          430            0 4.4318477e-13            0          0.1 0.0090012382 9.8501303e-21  0.029897938 
number of iterations: 20334 
    8400    24.908616      443          443            0 4.5183185e-13            0          0.1 0.0090012623 1.014955e-20  0.029897898 
number of iterations: 20321 
    8500    25.192607      454          454            0 4.6064764e-13            0          0.1  0.009001287 9.8501604e-21  0.029897857 
number of iterations: 20333 
    8600     25.47763      462          462            0 4.6963544e-13            0          0.1 0.0090013121 1.0149567e-20  0.029897815 
number of iterations: 20321 
    8700    25.763509      475          475            0 4.787986e-13            0          0.1 0.0090013375 9.8501436e-21  0.029897773 
Loop time of 25.7635 on 32 procs for 8700 steps with 475 atoms

Performance: 291761281.175 tau/day, 337.687 timesteps/s
98.5% CPU use with 32 MPI tasks x no OpenMP threads

MPI task timing breakdown:
Section |  min time  |  avg time  |  max time  |%varavg| %total
---------------------------------------------------------------
Pair    | 0.00042849 | 0.00246    | 0.0042437  |   1.8 |  0.01
Neigh   | 0.0011035  | 0.0021096  | 0.0050012  |   1.8 |  0.01
Comm    | 0.011012   | 0.028992   | 0.046048   |   5.7 |  0.11
Output  | 0.95209    | 0.95236    | 0.95303    |   0.0 |  3.70
Modify  | 24.732     | 24.735     | 24.738     |   0.0 | 96.01
Other   |            | 0.04254    |            |       |  0.17

Nlocal:    14.8438 ave 34 max 0 min
Histogram: 1 3 6 7 3 7 0 2 1 2
Nghost:    5.5625 ave 19 max 0 min
Histogram: 6 6 7 2 5 3 2 0 0 1
Neighs:    16.0938 ave 35 max 0 min
Histogram: 1 0 7 7 6 3 3 2 1 2

Total # of neighbors = 515
Ave neighs/atom = 1.08421
Neighbor list builds = 109
Dangerous builds = 0
Total wall time: 0:00:25
