 NUFEB Simulation

     100 atoms 
     2 atom types 
     4 nutrients 

  0.0e-4   1.00e-04  xlo xhi 
  0.0e-4   1.00e-04  ylo yhi 
  0.0e-4   1.00e-05  zlo zhi 

 Atoms 

     1 1 1.45e-06  370 9.36e-05 6.92e-05 1.95e-06 1.45e-06 
     2 1 1.57e-06  370 8.60e-05 9.39e-05 2.55e-06 1.57e-06 
     3 1 1.90e-06  370 2.88e-05 1.59e-05 3.39e-06 1.90e-06 
     4 1 1.81e-06  370 9.35e-05 8.30e-05 6.33e-06 1.81e-06 
     5 1 1.72e-06  370 5.59e-05 4.31e-05 2.02e-06 1.72e-06 
     6 1 1.74e-06  370 6.44e-05 2.43e-05 8.21e-06 1.74e-06 
     7 1 1.55e-06  370 8.10e-06 5.09e-05 7.96e-06 1.55e-06 
     8 1 1.78e-06  370 2.50e-05 4.16e-05 3.40e-06 1.78e-06 
     9 1 1.69e-06  370 5.43e-06 7.40e-05 5.57e-06 1.69e-06 
     10 1 1.69e-06  370 4.96e-06 2.85e-05 2.93e-06 1.69e-06 
     11 1 1.50e-06  370 4.04e-05 5.41e-05 3.29e-06 1.50e-06 
     12 1 1.51e-06  370 4.00e-06 5.13e-05 2.64e-06 1.51e-06 
     13 1 1.53e-06  370 3.27e-05 9.23e-06 3.32e-06 1.53e-06 
     14 1 1.59e-06  370 8.72e-06 6.87e-05 5.06e-06 1.59e-06 
     15 1 1.62e-06  370 2.44e-05 8.37e-05 2.96e-06 1.62e-06 
     16 1 1.88e-06  370 9.57e-05 4.98e-05 3.58e-06 1.88e-06 
     17 1 1.60e-06  370 5.60e-05 1.62e-05 2.27e-06 1.60e-06 
     18 1 1.52e-06  370 9.65e-05 9.65e-05 1.72e-06 1.52e-06 
     19 1 1.62e-06  370 1.86e-05 9.67e-05 6.91e-06 1.62e-06 
     20 1 1.49e-06  370 1.83e-05 7.02e-05 7.63e-06 1.49e-06 
     21 1 1.53e-06  370 1.58e-05 6.22e-05 7.17e-06 1.53e-06 
     22 1 1.37e-06  370 7.59e-05 7.28e-05 3.25e-06 1.37e-06 
     23 1 1.66e-06  370 4.98e-05 7.00e-05 7.81e-06 1.66e-06 
     24 1 1.92e-06  370 4.89e-05 9.95e-06 4.04e-06 1.92e-06 
     25 1 1.92e-06  370 9.00e-05 7.58e-05 2.61e-06 1.92e-06 
     26 1 1.56e-06  370 8.16e-05 2.63e-05 5.27e-06 1.56e-06 
     27 1 1.56e-06  370 8.16e-05 6.61e-05 7.07e-06 1.56e-06 
     28 1 1.49e-06  370 3.96e-05 8.22e-06 8.12e-06 1.49e-06 
     29 1 1.83e-06  370 2.30e-06 5.08e-05 2.02e-06 1.83e-06 
     30 1 1.43e-06  370 7.05e-05 3.03e-05 1.70e-06 1.43e-06 
     31 1 1.51e-06  370 8.43e-05 1.12e-05 1.92e-06 1.51e-06 
     32 1 1.56e-06  370 2.82e-05 6.61e-05 5.81e-06 1.56e-06 
     33 1 1.71e-06  370 9.22e-05 6.32e-05 6.50e-06 1.71e-06 
     34 1 1.41e-06  370 7.81e-05 6.11e-05 3.74e-06 1.41e-06 
     35 1 1.48e-06  370 7.88e-05 1.34e-05 2.32e-06 1.48e-06 
     36 1 1.65e-06  370 6.49e-05 2.67e-05 6.98e-06 1.65e-06 
     37 1 1.80e-06  370 8.27e-05 1.81e-05 4.74e-06 1.80e-06 
     38 1 1.64e-06  370 2.08e-05 7.56e-05 2.44e-06 1.64e-06 
     39 1 1.51e-06  370 2.20e-05 4.31e-05 5.67e-06 1.51e-06 
     40 1 1.61e-06  370 6.21e-05 7.21e-05 5.64e-06 1.61e-06 
     41 1 1.51e-06  370 3.39e-05 7.42e-05 6.84e-06 1.51e-06 
     42 1 1.72e-06  370 1.89e-05 7.51e-05 6.95e-06 1.72e-06 
     43 1 1.76e-06  370 3.63e-05 1.68e-05 2.06e-06 1.76e-06 
     44 1 1.43e-06  370 4.13e-05 9.49e-05 3.62e-06 1.43e-06 
     45 1 1.72e-06  370 3.24e-05 7.35e-05 2.25e-06 1.72e-06 
     46 1 1.76e-06  370 4.38e-05 3.47e-05 6.05e-06 1.76e-06 
     47 1 1.73e-06  370 7.19e-05 3.36e-05 5.57e-06 1.73e-06 
     48 1 1.40e-06  370 7.90e-05 9.04e-05 7.76e-06 1.40e-06 
     49 1 1.59e-06  370 3.88e-05 9.53e-05 3.35e-06 1.59e-06 
     50 1 1.80e-06  370 5.75e-05 1.64e-05 4.60e-06 1.80e-06 
     51 2 1.32e-06  230 1.88e-05 2.31e-05 3.39e-06 1.32e-06 
     52 2 1.25e-06  230 9.44e-05 5.84e-05 8.21e-06 1.25e-06 
     53 2 1.06e-06  230 1.64e-05 8.67e-05 1.63e-06 1.06e-06 
     54 2 1.22e-06  230 7.13e-06 5.02e-05 5.53e-06 1.22e-06 
     55 2 1.10e-06  230 2.87e-05 2.92e-05 4.62e-06 1.10e-06 
     56 2 1.16e-06  230 7.04e-05 8.48e-05 8.63e-06 1.16e-06 
     57 2 1.35e-06  230 9.20e-05 5.18e-05 3.35e-06 1.35e-06 
     58 2 1.39e-06  230 3.00e-05 8.12e-05 3.78e-06 1.39e-06 
     59 2 1.22e-06  230 6.89e-06 7.18e-05 3.98e-06 1.22e-06 
     60 2 1.15e-06  230 2.05e-05 1.99e-05 8.74e-06 1.15e-06 
     61 2 1.32e-06  230 8.94e-05 7.99e-05 3.87e-06 1.32e-06 
     62 2 1.20e-06  230 5.31e-05 6.67e-05 2.13e-06 1.20e-06 
     63 2 1.07e-06  230 5.49e-05 4.19e-05 3.83e-06 1.07e-06 
     64 2 1.21e-06  230 1.05e-05 8.74e-05 2.05e-06 1.21e-06 
     65 2 1.37e-06  230 3.69e-05 1.16e-05 3.86e-06 1.37e-06 
     66 2 9.83e-07  230 3.15e-06 5.01e-05 4.07e-06 9.83e-07 
     67 2 9.74e-07  230 2.34e-05 5.79e-05 8.45e-06 9.74e-07 
     68 2 1.00e-06  230 7.99e-05 9.53e-05 6.24e-06 1.00e-06 
     69 2 1.33e-06  230 2.91e-06 4.79e-05 3.26e-06 1.33e-06 
     70 2 9.66e-07  230 6.62e-05 2.63e-05 2.13e-06 9.66e-07 
     71 2 1.20e-06  230 7.33e-05 8.61e-05 1.82e-06 1.20e-06 
     72 2 1.16e-06  230 3.06e-05 2.45e-05 4.17e-06 1.16e-06 
     73 2 1.11e-06  230 2.58e-05 4.21e-05 1.68e-06 1.11e-06 
     74 2 9.96e-07  230 6.02e-06 3.84e-05 6.63e-06 9.96e-07 
     75 2 1.20e-06  230 4.17e-05 2.95e-05 6.15e-06 1.20e-06 
     76 2 1.05e-06  230 2.23e-05 5.02e-05 4.95e-06 1.05e-06 
     77 2 1.32e-06  230 6.81e-05 6.52e-06 1.69e-06 1.32e-06 
     78 2 1.19e-06  230 9.13e-05 4.32e-06 8.40e-06 1.19e-06 
     79 2 1.19e-06  230 1.43e-05 6.97e-05 4.75e-06 1.19e-06 
     80 2 1.20e-06  230 8.87e-05 9.17e-05 4.23e-06 1.20e-06 
     81 2 1.26e-06  230 2.47e-05 7.95e-06 7.41e-06 1.26e-06 
     82 2 9.21e-07  230 2.89e-05 7.01e-05 3.72e-06 9.21e-07 
     83 2 9.13e-07  230 4.53e-05 4.77e-05 2.20e-06 9.13e-07 
     84 2 1.10e-06  230 7.69e-05 3.74e-05 7.69e-06 1.10e-06 
     85 2 1.27e-06  230 8.45e-05 6.12e-05 4.19e-06 1.27e-06 
     86 2 1.34e-06  230 7.08e-05 8.22e-05 5.51e-06 1.34e-06 
     87 2 1.02e-06  230 4.34e-06 7.32e-05 3.79e-06 1.02e-06 
     88 2 1.13e-06  230 4.11e-05 9.18e-05 5.75e-06 1.13e-06 
     89 2 1.02e-06  230 2.12e-05 7.25e-05 6.90e-06 1.02e-06 
     90 2 1.08e-06  230 8.19e-05 8.26e-05 6.00e-06 1.08e-06 
     91 2 1.32e-06  230 7.70e-05 7.16e-06 7.25e-06 1.32e-06 
     92 2 1.14e-06  230 2.27e-05 7.03e-05 1.19e-06 1.14e-06 
     93 2 1.02e-06  230 5.33e-05 4.02e-05 3.64e-06 1.02e-06 
     94 2 9.86e-07  230 6.98e-05 4.02e-05 4.29e-06 9.86e-07 
     95 2 9.44e-07  230 5.97e-05 6.49e-05 8.64e-06 9.44e-07 
     96 2 1.14e-06  230 5.89e-05 2.88e-05 7.94e-06 1.14e-06 
     97 2 8.93e-07  230 2.39e-05 5.11e-05 3.72e-06 8.93e-07 
     98 2 1.23e-06  230 8.67e-05 5.23e-05 4.61e-06 1.23e-06 
     99 2 1.08e-06  230 2.02e-05 5.63e-05 8.22e-06 1.08e-06 
     100 2 1.06e-06  230 8.23e-05 8.43e-05 4.78e-06 1.06e-06 

 Nutrients 

     1 sub g nn nn nn 1.00e-01 1.00e-01 
     2 o2 l nn nn nd 9.00e-03 9.00e-03 
     3 suc l nn nn nn 3.42e-20 3.42e-20 
     4 co2 l nn nn nd 2.99e-02 2.99e-02 

 Type Name 

     1 cyano  
     2 ecw  

 Diffusion Coeffs 

     sub 0 
     o2 2.3e-09 
     suc 5.2e-10 
     co2 1.9e-09 

 Growth Rate 

     cyano 1.67e-05 
     ecw 4e-06 

 Ks 

     cyano 0.00035 0.0002 0.01 0.000138 
     ecw 0 0.001 3.6 0.05 

 Yield 

     cyano 0.55 
     ecw 0.43 

 Maintenance 

     cyano 0 
     ecw 9.5e-07 

 Decay 

     cyano 0 
     ecw 0 



