LAMMPS (20 Nov 2019)
Reading data file ...
  orthogonal box = (0 0 0) to (0.0001 0.0001 1e-05)
  8 by 4 by 1 MPI processor grid
  reading atoms ...
  100 atoms
  4 nutrients
Lattice spacing in x,y,z = 100 100 100
50 atoms in group CYANO
50 atoms in group ECW
Model is defined as a closed system. 
Neighbor list info ...
  update every 1 steps, delay 0 steps, check yes
  max neighbors/atom: 5000, page size: 100000
  master list distance cutoff = 2.42e-06
  ghost atom cutoff = 2.42e-06
  binsize = 1.21e-06, bins = 83 83 9
  1 neighbor lists, perpetual/occasional/extra = 1 0 0
  (1) pair gran/hooke/history, perpetual
      attributes: half, newton off, size, history
      pair build: half/size/bin/newtoff
      stencil: half/bin/3d/newtoff
      bin: standard
Setting up Verlet run ...
  Unit style    : lj
  Current step  : 0
  Time step     : 10
Per MPI rank memory allocation (min/avg/max) = 5.789 | 10.75 | 12.11 Mbytes
Step CPU Atoms c_myNtypes[1] c_myNtypes[2] c_myMass[1] c_myMass[2] c_myCon[1] c_myCon[2] c_myCon[3] c_myCon[4] 
       0            0      100           50           50 4.2670737e-14 9.3437319e-15          0.1        0.009     3.42e-20       0.0299 
number of iterations: 321887 
     100    15.600261      137           50           87 4.3236219e-14 9.3360602e-15          0.1 0.0090007726  0.034276299  0.029898713 
number of iterations: 4405 
     200    15.969547      152           50          102 4.3809195e-14 9.3287148e-15          0.1 0.0090007828  0.067931576  0.029898696 
number of iterations: 2693 
     300     16.22511      152           50          102 4.4389763e-14 9.3216876e-15          0.1 0.0090007932   0.10202066  0.029898679 
number of iterations: 2029 
     400    16.472118      152           50          102 4.4978026e-14 9.3149726e-15          0.1 0.0090008037   0.13655299  0.029898661 
number of iterations: 1579 
     500    16.678015      152           50          102 4.5574085e-14 9.3085666e-15          0.1 0.0090008143   0.17153534  0.029898644 
number of iterations: 1555 
     600     16.88531      154           52          102 4.6178042e-14 9.3024648e-15          0.1 0.0090008296   0.20697448  0.029898618 
number of iterations: 1397 
     700    17.081332      154           52          102 4.6790004e-14 9.2966643e-15          0.1 0.0090008406   0.24287668    0.0298986 
number of iterations: 1400 
     800    17.274077      154           52          102 4.7410075e-14 9.2911626e-15          0.1 0.0090008517   0.27924829  0.029898581 
number of iterations: 1403 
     900    17.453754      155           53          102 4.8038364e-14 9.2859575e-15          0.1 0.0090008604   0.31609579  0.029898567 
number of iterations: 1406 
    1000    17.638573      155           53          102 4.8674978e-14 9.281046e-15          0.1 0.0090008718   0.35342558  0.029898548 
number of iterations: 1395 
    1100    17.812613      156           54          102 4.932003e-14 9.276426e-15          0.1 0.0090008807   0.39124418  0.029898533 
number of iterations: 1411 
    1200    17.986836      156           54          102 4.9973629e-14 9.2720952e-15          0.1 0.0090008924   0.42955821  0.029898513 
number of iterations: 1413 
    1300    18.166964      156           54          102 5.063589e-14 9.2680513e-15          0.1 0.0090009042   0.46837438  0.029898494 
number of iterations: 1416 
    1400    18.369958      156           54          102 5.1306928e-14 9.2642921e-15          0.1 0.0090009162   0.50769947  0.029898474 
number of iterations: 1419 
    1500    18.554725      156           54          102 5.1986859e-14 9.2608155e-15          0.1 0.0090009283   0.54754038  0.029898454 
number of iterations: 1422 
    1600    18.726293      156           54          102  5.26758e-14 9.2576193e-15          0.1 0.0090009406   0.58790405  0.029898433 
number of iterations: 1525 
    1700     18.90759      157           55          102 5.337387e-14 9.2547014e-15          0.1 0.0090009545   0.62879756   0.02989841 
number of iterations: 1427 
    1800    19.090445      157           55          102 5.4081192e-14 9.2520596e-15          0.1 0.0090009672   0.67022805  0.029898389 
number of iterations: 1430 
    1900    19.271442      157           55          102 5.4797888e-14 9.2496921e-15          0.1   0.00900098   0.71220277  0.029898367 
number of iterations: 1708 
    2000    19.495745      158           56          102 5.5524081e-14 9.2475968e-15          0.1 0.0090009979   0.75472905  0.029898338 
number of iterations: 1651 
    2100    19.711593      160           58          102 5.6259898e-14 9.245772e-15          0.1 0.0090010171   0.79781425  0.029898306 
number of iterations: 1446 
    2200     20.13227      160           58          102 5.7005466e-14 9.2442154e-15          0.1 0.0090010306   0.84146598  0.029898283 
number of iterations: 1449 
    2300    20.314514      161           59          102 5.7760915e-14 9.242925e-15          0.1 0.0090010416   0.88569188  0.029898265 
number of iterations: 1452 
    2400    20.488689      161           59          102 5.8526375e-14 9.241899e-15          0.1 0.0090010554   0.93049966  0.029898242 
number of iterations: 1454 
    2500    20.680279      161           59          102 5.9301979e-14 9.2411353e-15          0.1 0.0090010694   0.97589716  0.029898218 
number of iterations: 1575 
    2600    20.871476      163           61          102 6.0087861e-14 9.2406326e-15          0.1 0.0090010897    1.0218923  0.029898185 
number of iterations: 1460 
    2700    21.060739      163           61          102 6.0884158e-14 9.2403885e-15          0.1 0.0090011041    1.0684932   0.02989816 
number of iterations: 1463 
    2800    21.250561      163           61          102 6.1691008e-14 9.2404013e-15          0.1 0.0090011188    1.1157079  0.029898136 
number of iterations: 1586 
    2900    21.438273      164           62          102 6.250855e-14 9.240669e-15          0.1 0.0090011396    1.1635447  0.029898101 
number of iterations: 1472 
    3000    21.630089      165           63          102 6.3336927e-14 9.2411898e-15          0.1 0.0090011547    1.2120119  0.029898076 
number of iterations: 1497 
    3100    21.810135      168           66          102 6.4176281e-14 9.2419621e-15          0.1  0.009001173     1.261118  0.029898046 
number of iterations: 1474 
    3200    21.987781      168           66          102 6.5026759e-14 9.242984e-15          0.1 0.0090011886    1.3108717   0.02989802 
number of iterations: 1637 
    3300    22.176055      169           67          102 6.5888507e-14 9.2442537e-15          0.1 0.0090012088    1.3612815  0.029897986 
number of iterations: 1482 
    3400    22.398876      169           67          102 6.6761675e-14 9.2457695e-15          0.1 0.0090012249    1.4123564  0.029897959 
number of iterations: 1484 
    3500    22.568752      171           69          102 6.7646415e-14 9.2475299e-15          0.1 0.0090012372    1.4641052  0.029897939 
number of iterations: 1487 
    3600    22.745514      171           69          102 6.8542879e-14 9.2495331e-15          0.1 0.0090012536    1.5165369  0.029897911 
number of iterations: 1490 
    3700     22.92599      171           69          102 6.9451224e-14 9.2517773e-15          0.1 0.0090012702    1.5696608  0.029897884 
number of iterations: 1493 
    3800    23.123963      171           69          102 7.0371606e-14 9.2542609e-15          0.1 0.0090012871    1.6234861  0.029897856 
number of iterations: 1478 
    3900    23.366508      172           70          102 7.1304185e-14 9.2569821e-15          0.1  0.009001299    1.6780222  0.029897836 
number of iterations: 1498 
    4000    23.595504      172           70          102 7.2249123e-14 9.2599395e-15          0.1 0.0090013162    1.7332787  0.029897807 
number of iterations: 1501 
    4100    23.835055      173           71          102 7.3206584e-14 9.2631314e-15          0.1 0.0090013336    1.7892651  0.029897778 
number of iterations: 1504 
    4200    24.007213      174           72          102 7.4176733e-14 9.2665562e-15          0.1 0.0090013513    1.8459913  0.029897749 
number of iterations: 1506 
    4300    24.188295      174           72          102 7.5159738e-14 9.2702124e-15          0.1 0.0090013692    1.9034672  0.029897719 
number of iterations: 1509 
    4400    24.372814      174           72          102 7.615577e-14 9.2740984e-15          0.1 0.0090013873    1.9617027  0.029897689 
number of iterations: 1511 
    4500    24.550488      176           74          102 7.7165002e-14 9.2782128e-15          0.1 0.0090014057    2.0207081  0.029897658 
number of iterations: 1486 
    4600    24.737229      177           75          102 7.8187609e-14 9.2825539e-15          0.1 0.0090014205    2.0804937  0.029897633 
number of iterations: 1516 
    4700     25.19563      177           75          102 7.9223767e-14 9.2871203e-15          0.1 0.0090014393      2.14107  0.029897602 
number of iterations: 1593 
    4800    25.372162      178           76          102 8.0273657e-14 9.2919105e-15          0.1   0.00900146    2.2024473  0.029897568 
number of iterations: 1511 
    4900    25.575817      180           78          102 8.133746e-14 9.2969231e-15          0.1 0.0090014768    2.2646365   0.02989754 
number of iterations: 1525 
    5000    25.780398      180           78          102 8.2415361e-14 9.3021566e-15          0.1 0.0090014964    2.3276486  0.029897507 
number of iterations: 1527 
    5100    25.975267      180           78          102 8.3507546e-14 9.3076096e-15          0.1 0.0090015162    2.3914944  0.029897474 
number of iterations: 1575 
    5200    26.167544      181           79          102 8.4614205e-14 9.3132801e-15          0.1 0.0090015381    2.4561848  0.029897437 
number of iterations: 1521 
    5300    26.348571      183           81          102 8.5735529e-14 9.3191676e-15          0.1 0.0090015573    2.5217314  0.029897406 
number of iterations: 1506 
    5400    26.522026      186           84          102 8.6871714e-14 9.3252708e-15          0.1 0.0090015704    2.5881457  0.029897384 
number of iterations: 1537 
    5500    26.702309      187           85          102 8.8022956e-14 9.3315879e-15          0.1 0.0090015865     2.655439  0.029897357 
number of iterations: 1578 
    5600    26.896958      188           86          102 8.9189454e-14 9.3381175e-15          0.1 0.0090016042    2.7236232  0.029897327 
number of iterations: 1543 
    5700    27.086071      188           86          102 9.0371411e-14 9.3448582e-15          0.1 0.0090016254    2.7927103  0.029897292 
number of iterations: 1569 
    5800    27.260041      191           89          102 9.1569031e-14 9.3518091e-15          0.1  0.009001647    2.8627122  0.029897256 
number of iterations: 1525 
    5900    27.462179      192           90          102 9.2782523e-14 9.3589686e-15          0.1 0.0090016673    2.9336412  0.029897222 
number of iterations: 1549 
    6000    27.657524      192           90          102 9.4012095e-14 9.3663352e-15          0.1 0.0090016894    3.0055099  0.029897185 
number of iterations: 1521 
    6100    27.865746      197           95          102 9.5257963e-14 9.3739074e-15          0.1 0.0090017048     3.078331   0.02989716 
number of iterations: 1556 
    6200      28.0466      198           96          102 9.6520341e-14 9.3816844e-15          0.1 0.0090017274     3.152117  0.029897122 
number of iterations: 1554 
    6300    28.222289      198           96          102 9.7799448e-14 9.3896648e-15          0.1 0.0090017503    3.2268806  0.029897084 
number of iterations: 1683 
    6400    28.429502      201           99          102 9.9095506e-14 9.3978474e-15          0.1 0.0090017749    3.3026349  0.029897043 
number of iterations: 1549 
    6500    28.591449      203          101          102 1.0040874e-13 9.4062308e-15          0.1 0.0090017954    3.3793931  0.029897009 
number of iterations: 1561 
    6600    28.760964      204          102          102 1.0173938e-13 9.4148139e-15          0.1 0.0090018192    3.4571686  0.029896969 
number of iterations: 1629 
    6700    28.939993      205          103          102 1.0308765e-13 9.4235955e-15          0.1 0.0090018464     3.535975  0.029896924 
number of iterations: 1566 
    6800    29.112659      208          106          102 1.0445379e-13 9.4325746e-15          0.1 0.0090018669    3.6158261   0.02989689 
number of iterations: 1570 
    6900    29.294912      210          107          103 1.0583803e-13 9.4417498e-15          0.1 0.0090018916    3.6967357  0.029896849 
number of iterations: 1554 
    7000    29.487849      211          108          103 1.0724061e-13 9.4511198e-15          0.1 0.0090019155    3.7787177  0.029896809 
number of iterations: 1574 
    7100    29.703072      216          110          106 1.0866179e-13 9.4606836e-15          0.1 0.0090019409    3.8617868  0.029896767 
number of iterations: 1577 
    7200    29.929153      216          110          106 1.101018e-13  9.47044e-15          0.1 0.0090019666    3.9459573  0.029896724 
number of iterations: 1569 
    7300    30.122136      219          113          106 1.1156089e-13 9.4803881e-15          0.1 0.0090019889    4.0312441  0.029896687 
number of iterations: 1582 
    7400    30.308559      219          113          106 1.1303932e-13 9.4905265e-15          0.1 0.0090020152    4.1176621  0.029896643 
number of iterations: 1585 
    7500     30.48571      219          113          106 1.1453733e-13 9.5008543e-15          0.1  0.009002042    4.2052262  0.029896598 
number of iterations: 1588 
    7600    30.659434      221          115          106 1.1605521e-13 9.5113705e-15          0.1 0.0090020667    4.2939516  0.029896557 
number of iterations: 1747 
    7700    30.846819      222          116          106 1.1759319e-13 9.5220738e-15          0.1 0.0090021025    4.3838541  0.029896497 
number of iterations: 1578 
    7800    31.023715      223          117          106 1.1915156e-13 9.5329632e-15          0.1 0.0090021252    4.4749491   0.02989646 
number of iterations: 1591 
    7900    31.219242      228          122          106 1.2073058e-13 9.5440381e-15          0.1 0.0090021414    4.5672525  0.029896433 
number of iterations: 1585 
    8000    31.412034      229          123          106 1.2233053e-13 9.555297e-15          0.1   0.00900216    4.6607807  0.029896402 
number of iterations: 1598 
    8100    31.609816      229          123          106 1.2395168e-13 9.5667391e-15          0.1 0.0090021886    4.7555498  0.029896354 
number of iterations: 1601 
    8200    31.788133      230          124          106 1.2559431e-13 9.5783631e-15          0.1 0.0090022176    4.8515763  0.029896306 
number of iterations: 1625 
    8300    31.977097      234          128          106 1.2725871e-13 9.5901684e-15          0.1 0.0090022458    4.9488769  0.029896259 
number of iterations: 1606 
    8400    32.162695      236          130          106 1.2894517e-13 9.6021537e-15          0.1 0.0090022668    5.0474687  0.029896224 
number of iterations: 1620 
    8500    32.348134      237          131          106 1.3065397e-13 9.6143183e-15          0.1 0.0090022988    5.1473691   0.02989617 
number of iterations: 1612 
    8600    32.530427      237          131          106 1.3238543e-13 9.626661e-15          0.1 0.0090023293    5.2485952   0.02989612 
number of iterations: 1747 
    8700      32.7203      240          134          106 1.3413982e-13 9.639181e-15          0.1  0.009002365    5.3511647   0.02989606 
number of iterations: 1701 
    8800    32.908618      240          134          106 1.3591747e-13 9.6518772e-15          0.1 0.0090024025    5.4550952  0.029895998 
number of iterations: 1621 
    8900    33.129118      241          135          106 1.3771868e-13 9.6647486e-15          0.1 0.0090024328    5.5604051  0.029895947 
number of iterations: 1696 
    9000    33.318596      244          138          106 1.3954375e-13 9.6777943e-15          0.1 0.0090024701    5.6671126  0.029895885 
number of iterations: 1628 
    9100     33.51243      246          140          106 1.4139301e-13 9.6910134e-15          0.1 0.0090024981    5.7752365  0.029895839 
number of iterations: 1647 
    9200     33.71682      248          142          106 1.4326678e-13 9.7044049e-15          0.1 0.0090025316    5.8847951  0.029895783 
number of iterations: 1631 
    9300    33.920074      248          142          106 1.4516538e-13 9.7179681e-15          0.1 0.0090025635    5.9958079  0.029895729 
number of iterations: 1674 
    9400    34.109672      252          146          106 1.4708914e-13 9.7317022e-15          0.1 0.0090025968    6.1082947  0.029895674 
number of iterations: 1636 
    9500    34.292362      254          148          106 1.4903839e-13 9.7456061e-15          0.1 0.0090026267    6.2222745  0.029895624 
number of iterations: 1659 
    9600    34.500431      256          150          106 1.5101348e-13 9.7596792e-15          0.1  0.009002666    6.3377673  0.029895559 
number of iterations: 1643 
    9700    34.680013      258          152          106 1.5301474e-13 9.7739205e-15          0.1 0.0090026943    6.4547933  0.029895512 
number of iterations: 1661 
    9800    34.871559      259          153          106 1.5504252e-13 9.7883293e-15          0.1 0.0090027361    6.5733728  0.029895442 
number of iterations: 1649 
    9900    35.045243      260          154          106 1.5709717e-13 9.8029047e-15          0.1 0.0090027724    6.6935265  0.029895382 
number of iterations: 1636 
   10000    35.225344      262          156          106 1.5917905e-13 9.8176458e-15          0.1 0.0090028092    6.8152756   0.02989532 
number of iterations: 1739 
   10100    35.448888      264          158          106 1.6128853e-13 9.8325522e-15          0.1 0.0090028543     6.938641  0.029895245 
number of iterations: 1689 
   10200    35.646454      266          160          106 1.6342595e-13 9.8476228e-15          0.1  0.009002886    7.0636442  0.029895192 
number of iterations: 1643 
   10300    35.824682      268          162          106 1.655917e-13 9.8628568e-15          0.1 0.0090029177    7.1903073   0.02989514 
number of iterations: 1661 
   10400    36.032461      269          163          106 1.6778616e-13 9.8782533e-15          0.1 0.0090029564     7.318652  0.029895075 
number of iterations: 1733 
   10500    36.230879      272          166          106 1.7000969e-13 9.8938119e-15          0.1 0.0090030004    7.4487012  0.029895002 
number of iterations: 1668 
   10600     36.41119      276          168          108 1.7226269e-13 9.9095312e-15          0.1 0.0090030388    7.5804768  0.029894938 
number of iterations: 1646 
   10700    36.608648      278          170          108 1.7454555e-13 9.9254109e-15          0.1 0.0090030775    7.7140028  0.029894873 
number of iterations: 1696 
   10800    36.793565      282          173          109 1.7685866e-13 9.9414501e-15          0.1 0.0090031214    7.8493017    0.0298948 
number of iterations: 1675 
   10900    36.972459      283          174          109 1.7920243e-13 9.957648e-15          0.1 0.0090031628    7.9863971  0.029894731 
number of iterations: 1743 
   11000    37.166717      287          177          110 1.8157725e-13 9.9740039e-15          0.1 0.0090032052    8.1253125  0.029894661 
number of iterations: 1691 
   11100    37.378903      288          178          110 1.8398355e-13 9.9905169e-15          0.1 0.0090032474    8.2660725   0.02989459 
number of iterations: 1756 
   11200    37.562887      294          184          110 1.8642173e-13 1.0007187e-14          0.1 0.0090033013    8.4087014  0.029894501 
number of iterations: 1687 
   11300    37.748931      297          187          110 1.8889223e-13 1.0024013e-14          0.1 0.0090033419    8.5532242  0.029894433 
number of iterations: 1690 
   11400    37.932505      298          188          110 1.9139546e-13 1.0040994e-14          0.1 0.0090033862    8.6996661  0.029894359 
number of iterations: 1701 
   11500    38.125064      301          191          110 1.9393187e-13 1.0058129e-14          0.1   0.00900343    8.8480525  0.029894286 
number of iterations: 1756 
   11600    38.312202      303          193          110 1.9650189e-13 1.0075419e-14          0.1  0.009003482    8.9984094    0.0298942 
number of iterations: 1745 
   11700    38.500166      308          198          110 1.9910597e-13 1.0092862e-14          0.1 0.0090035345    9.1507628  0.029894112 
number of iterations: 1701 
   11800    38.709053      309          199          110 2.0174456e-13 1.0110458e-14          0.1 0.0090035814    9.3051392  0.029894034 
number of iterations: 1722 
   11900    38.929225      312          202          110 2.0441812e-13 1.0128206e-14          0.1 0.0090036326    9.4615656  0.029893949 
number of iterations: 1772 
   12000    39.126842      315          205          110 2.071271e-13 1.0146106e-14          0.1 0.0090036819    9.6200694  0.029893867 
number of iterations: 1705 
   12100    39.382294      316          206          110 2.0987199e-13 1.0164156e-14          0.1  0.009003728    9.7806779   0.02989379 
number of iterations: 1771 
   12200     39.57023      321          211          110 2.1265325e-13 1.0182356e-14          0.1 0.0090037791    9.9434195  0.029893705 
number of iterations: 1715 
   12300    39.760582      322          212          110 2.1547137e-13 1.0200706e-14          0.1  0.009003826    10.108322  0.029893627 
number of iterations: 1717 
   12400    39.981969      328          217          111 2.1832684e-13 1.0219205e-14          0.1 0.0090038749    10.275415  0.029893546 
number of iterations: 1733 
   12500    40.188853      334          223          111 2.2122014e-13 1.0237853e-14          0.1 0.0090039263    10.444726   0.02989346 
number of iterations: 1724 
   12600    40.381014      335          224          111 2.2415179e-13 1.0256648e-14          0.1 0.0090039768    10.616285  0.029893376 
number of iterations: 1727 
   12700    40.594389      339          228          111 2.2712229e-13 1.027559e-14          0.1 0.0090040309    10.790122  0.029893286 
number of iterations: 1711 
   12800    40.802367      343          232          111 2.3013216e-13 1.0294679e-14          0.1 0.0090040771    10.966268  0.029893209 
number of iterations: 1795 
   12900    41.001002      345          234          111 2.3318191e-13 1.0313914e-14          0.1 0.0090041444    11.144753  0.029893097 
number of iterations: 1789 
   13000     41.21364      346          235          111 2.3627208e-13 1.0333295e-14          0.1 0.0090042058    11.325608  0.029892994 
number of iterations: 1736 
   13100    41.460346      348          237          111 2.394032e-13 1.0352821e-14          0.1 0.0090042616    11.508865  0.029892902 
number of iterations: 1737 
   13200    41.642678      351          240          111 2.4257582e-13 1.0372491e-14          0.1  0.009004305    11.694554  0.029892829 
number of iterations: 1743 
   13300    41.826019      353          242          111 2.4579047e-13 1.0392305e-14          0.1 0.0090043607     11.88271  0.029892736 
number of iterations: 1756 
   13400    42.024689      355          244          111 2.4904773e-13 1.0412263e-14          0.1 0.0090044126    12.073364   0.02989265 
number of iterations: 1809 
   13500    42.223816      360          249          111 2.5234816e-13 1.0432364e-14          0.1 0.0090044864     12.26655  0.029892527 
number of iterations: 1860 
   13600    42.447208      366          255          111 2.5569232e-13 1.0452607e-14          0.1 0.0090045414      12.4623  0.029892436 
number of iterations: 1830 
   13700    42.645946      369          258          111 2.590808e-13 1.0472993e-14          0.1 0.0090046069     12.66065  0.029892327 
number of iterations: 1778 
   13800    42.832978      370          259          111 2.6251418e-13 1.0493519e-14          0.1 0.0090046696    12.861634  0.029892222 
number of iterations: 1808 
   13900    43.046649      374          263          111 2.6599307e-13 1.0514187e-14          0.1 0.0090047341    13.065285  0.029892115 
number of iterations: 1768 
   14000    43.257885      375          264          111 2.6951806e-13 1.0534995e-14          0.1 0.0090047969    13.271641   0.02989201 
number of iterations: 1750 
   14100    43.448934      379          267          112 2.7308976e-13 1.0555943e-14          0.1 0.0090048605    13.480738  0.029891904 
number of iterations: 1780 
   14200    43.638312      383          271          112 2.7670879e-13 1.0577031e-14          0.1 0.0090049272    13.692611  0.029891793 
number of iterations: 1841 
   14300    43.852151      387          275          112 2.8037578e-13 1.0598258e-14          0.1 0.0090049963    13.907297  0.029891678 
number of iterations: 1777 
   14400    44.044492      392          279          113 2.8409137e-13 1.0619623e-14          0.1  0.009005054    14.124834  0.029891582 
number of iterations: 1772 
   14500    44.251371      395          282          113 2.878562e-13 1.0641127e-14          0.1 0.0090051114    14.345259  0.029891486 
number of iterations: 1795 
   14600     44.44212      399          286          113 2.9167092e-13 1.0662769e-14          0.1 0.0090051797    14.568612  0.029891373 
number of iterations: 1808 
   14700    44.643585      404          290          114 2.9553619e-13 1.0684547e-14          0.1 0.0090052349    14.794929  0.029891281 
number of iterations: 1799 
   14800    44.848815      408          294          114 2.9945269e-13 1.0706463e-14          0.1 0.0090053098    15.024252  0.029891156 
number of iterations: 1791 
   14900    45.046655      409          295          114 3.0342108e-13 1.0728516e-14          0.1 0.0090053786    15.256619  0.029891041 
number of iterations: 1806 
   15000    45.239626      414          300          114 3.0744207e-13 1.0750704e-14          0.1  0.009005453    15.492072  0.029890918 
number of iterations: 1861 
   15100    45.475457      417          303          114 3.1151634e-13 1.0773029e-14          0.1 0.0090055352     15.73065  0.029890781 
number of iterations: 1800 
   15200    45.667685      422          308          114 3.1564461e-13 1.0795489e-14          0.1 0.0090056099    15.972396  0.029890656 
number of iterations: 1816 
   15300    45.868702      428          313          115 3.1982759e-13 1.0818083e-14          0.1 0.0090056843    16.217352  0.029890532 
number of iterations: 1807 
   15400     46.05422      431          316          115 3.2406599e-13 1.0840813e-14          0.1 0.0090057604     16.46556  0.029890406 
number of iterations: 1854 
   15500    46.242375      435          320          115 3.2836057e-13 1.0863676e-14          0.1 0.0090058485    16.717064  0.029890259 
number of iterations: 1853 
   15600    46.454859      438          322          116 3.3271206e-13 1.0886673e-14          0.1 0.0090059364    16.971907  0.029890113 
number of iterations: 1816 
   15700    46.650651      441          325          116 3.3712121e-13 1.0909804e-14          0.1 0.0090060134    17.230134  0.029889984 
number of iterations: 1815 
   15800    46.852054      444          328          116 3.415888e-13 1.0933068e-14          0.1 0.0090060888    17.491789  0.029889859 
number of iterations: 1863 
   15900    47.068378      451          335          116 3.4611559e-13 1.0956465e-14          0.1 0.0090061702    17.756919  0.029889723 
number of iterations: 1820 
   16000    47.271392      458          342          116 3.5070237e-13 1.0979994e-14          0.1 0.0090062464    18.025567  0.029889596 
number of iterations: 1850 
   16100    47.493848      464          347          117 3.5534993e-13 1.1003656e-14          0.1 0.0090063355    18.297783  0.029889448 
number of iterations: 1824 
   16200    47.697528      469          352          117 3.6005909e-13 1.1027449e-14          0.1 0.0090064152    18.573613  0.029889315 
number of iterations: 1864 
   16300    47.891218      476          358          118 3.6483065e-13 1.1051374e-14          0.1 0.0090065052    18.853105  0.029889165 
number of iterations: 1855 
   16400    48.098453      483          365          118 3.6966544e-13 1.1075431e-14          0.1 0.0090065927    19.136307   0.02988902 
number of iterations: 1872 
   16500     48.29316      487          369          118 3.7456431e-13 1.1099618e-14          0.1 0.0090066775    19.423268  0.029888878 
number of iterations: 1837 
   16600    48.493409      490          371          119 3.7952809e-13 1.1123935e-14          0.1 0.0090067644    19.714039  0.029888734 
number of iterations: 1888 
   16700    48.690509      496          377          119 3.8455766e-13 1.1148383e-14          0.1 0.0090068599     20.00867  0.029888575 
number of iterations: 1882 
   16800    48.888144      504          385          119 3.8965388e-13 1.1172962e-14          0.1 0.0090069584    20.307213  0.029888411 
number of iterations: 1827 
   16900    49.127202      510          391          119 3.9481763e-13 1.1197669e-14          0.1 0.0090070404    20.609719  0.029888274 
number of iterations: 1865 
   17000    49.328673      518          399          119 4.0004981e-13 1.1222507e-14          0.1 0.0090071382    20.916241  0.029888111 
number of iterations: 1850 
   17100    49.625861      523          403          120 4.0535134e-13 1.1247473e-14          0.1 0.0090072267    21.226833  0.029887964 
number of iterations: 1859 
   17200    49.845195      528          408          120 4.1072311e-13 1.1272568e-14          0.1 0.0090073267    21.541548  0.029887797 
number of iterations: 1892 
   17300    50.068529      532          412          120 4.1616608e-13 1.1297792e-14          0.1  0.009007425     21.86044  0.029887634 
number of iterations: 1861 
   17400    50.278808      540          420          120 4.2168117e-13 1.1323145e-14          0.1 0.0090075154    22.183565  0.029887483 
number of iterations: 1875 
   17500    50.489501      545          424          121 4.2726936e-13 1.1348625e-14          0.1 0.0090076081    22.510979  0.029887329 
number of iterations: 1856 
   17600    50.688359      550          429          121 4.3293159e-13 1.1374233e-14          0.1 0.0090077001     22.84274  0.029887176 
number of iterations: 1921 
   17700    50.901679      554          433          121 4.3866887e-13 1.1399969e-14          0.1 0.0090078113    23.178904   0.02988699 
number of iterations: 1862 
   17800    51.102057      561          439          122 4.4448217e-13 1.1425833e-14          0.1 0.0090079159    23.519531  0.029886816 
number of iterations: 1850 
   17900     51.30231      565          443          122 4.5037252e-13 1.1451823e-14          0.1 0.0090080121    23.864679  0.029886656 
number of iterations: 1878 
   18000    51.494381      574          452          122 4.5634092e-13 1.1477941e-14          0.1 0.0090081219     24.21441  0.029886473 
number of iterations: 1886 
   18100    51.716324      580          458          122 4.6238841e-13 1.1504185e-14          0.1 0.0090082281    24.568782  0.029886296 
number of iterations: 1901 
   18200    51.919371      587          465          122 4.6851605e-13 1.1530556e-14          0.1 0.0090083366    24.927859  0.029886116 
number of iterations: 1900 
   18300    52.140315      594          471          123 4.7472489e-13 1.1557053e-14          0.1 0.0090084439    25.291701  0.029885937 
number of iterations: 1896 
   18400     52.34319      604          480          124 4.8101602e-13 1.1583676e-14          0.1 0.0090085616    25.660374  0.029885741 
number of iterations: 1897 
   18500    52.543218      611          487          124 4.8739051e-13 1.1610425e-14          0.1 0.0090086709    26.033939  0.029885559 
number of iterations: 1943 
   18600    52.769726      615          491          124 4.9384948e-13  1.16373e-14          0.1 0.0090087988    26.412462  0.029885346 
number of iterations: 1890 
   18700    52.969401      622          497          125 5.0039404e-13  1.16643e-14          0.1 0.0090089094    26.796009  0.029885162 
number of iterations: 1932 
   18800    53.231088      628          503          125 5.0702533e-13 1.1691425e-14          0.1 0.0090090283    27.184647  0.029884964 
number of iterations: 1900 
   18900    53.457917      633          507          126 5.137445e-13 1.1718676e-14          0.1 0.0090091473    27.578442  0.029884766 
number of iterations: 1909 
   19000    53.698967      640          514          126 5.2055271e-13 1.1746052e-14          0.1 0.0090092798    27.977465  0.029884545 
number of iterations: 1951 
   19100    53.925149      646          520          126 5.2745115e-13 1.1773552e-14          0.1 0.0090094114    28.381783  0.029884326 
number of iterations: 1910 
   19200    54.136811      653          527          126  5.34441e-13 1.1801177e-14          0.1 0.0090095333    28.791468  0.029884123 
number of iterations: 1892 
   19300    54.337913      662          534          128 5.4152348e-13 1.1828927e-14          0.1   0.00900963     29.20659  0.029883962 
number of iterations: 1866 
   19400    54.550363      669          539          130 5.4732967e-13  1.18568e-14          0.1 0.0090097122    29.626171  0.029883825 
number of iterations: 1943 
   19500    54.778329      679          549          130 5.5458296e-13 1.1884798e-14          0.1 0.0090098366    30.051321  0.029883618 
number of iterations: 1926 
   19600    54.992474      683          553          130 5.6193237e-13 1.191292e-14          0.1 0.0090099666    30.482113  0.029883401 
number of iterations: 1981 
   19700     55.19861      689          559          130 5.6937917e-13 1.1941165e-14          0.1 0.0090101019    30.918622  0.029883176 
number of iterations: 1921 
   19800    55.417229      695          563          132 5.7692466e-13 1.1969534e-14          0.1 0.0090102281    31.360924  0.029882966 
number of iterations: 1933 
   19900    55.627891      702          570          132 5.8457014e-13 1.1998026e-14          0.1 0.0090103493    31.809096  0.029882764 
number of iterations: 1947 
   20000    55.870206      712          580          132 5.9231694e-13 1.2026642e-14          0.1  0.009010495    32.263216  0.029882522 
number of iterations: 1943 
   20100    56.090074      715          583          132 6.001664e-13 1.2055381e-14          0.1 0.0090106295    32.723362  0.029882298 
number of iterations: 1954 
   20200    56.309501      721          589          132 6.0811988e-13 1.2084243e-14          0.1 0.0090107579    33.189614  0.029882084 
number of iterations: 1943 
   20300    56.547086      730          598          132 6.1617876e-13 1.2113228e-14          0.1  0.009010899    33.662055  0.029881849 
number of iterations: 1966 
   20400    56.748512      737          605          132 6.2434443e-13 1.2142336e-14          0.1 0.0090110496    34.140764  0.029881598 
number of iterations: 1955 
   20500    56.965116      747          614          133 6.3261832e-13 1.2171567e-14          0.1  0.009011202    34.625825  0.029881344 
number of iterations: 1937 
   20600    57.188327      753          620          133 6.4100186e-13 1.220092e-14          0.1 0.0090113403    35.117323  0.029881114 
number of iterations: 1944 
   20700    57.395887      764          631          133 6.4949649e-13 1.2230396e-14          0.1  0.009011484    35.615344  0.029880875 
number of iterations: 1920 
   20800    57.592839      771          638          133 6.581037e-13 1.2259995e-14          0.1 0.0090116168    36.119974  0.029880654 
number of iterations: 1984 
   20900    57.818166      784          651          133 6.6682497e-13 1.2289716e-14          0.1 0.0090117798    36.631299  0.029880382 
number of iterations: 1953 
   21000     58.03641      797          663          134 6.7566181e-13 1.2319559e-14          0.1 0.0090119188    37.149408  0.029880151 
number of iterations: 1992 
   21100    58.273662      810          676          134 6.8461577e-13 1.2349524e-14          0.1 0.0090120915    37.674393  0.029879863 
number of iterations: 1973 
   21200    58.495418      819          685          134 6.9368837e-13 1.2379612e-14          0.1 0.0090122435    38.206343   0.02987961 
number of iterations: 1983 
   21300    58.719462      829          695          134 7.0288121e-13 1.2409822e-14          0.1 0.0090124155    38.745351  0.029879324 
number of iterations: 2040 
   21400     58.95462      844          709          135 7.1219587e-13 1.2440153e-14          0.1 0.0090125761    39.291511  0.029879056 
number of iterations: 1962 
   21500    59.170023      851          716          135 7.2163398e-13 1.2470607e-14          0.1 0.0090127426    39.844917  0.029878779 
number of iterations: 1990 
   21600    59.390053      863          728          135 7.3119715e-13 1.2501182e-14          0.1 0.0090129067    40.405666  0.029878506 
number of iterations: 1978 
   21700    59.604191      870          735          135 7.4088706e-13 1.253188e-14          0.1 0.0090130786    40.973855  0.029878219 
number of iterations: 1993 
   21800    59.824986      877          741          136 7.5070537e-13 1.2562699e-14          0.1  0.009013255    41.549582  0.029877926 
number of iterations: 1995 
   21900    60.100817      884          748          136 7.606538e-13 1.259364e-14          0.1 0.0090134304    42.132949  0.029877634 
number of iterations: 1998 
   22000    60.313518      897          759          138 7.7073407e-13 1.2624703e-14          0.1 0.0090136165    42.724056  0.029877324 
number of iterations: 2018 
   22100    60.530336      909          770          139 7.8094792e-13 1.2655887e-14          0.1 0.0090137997    43.323006  0.029877019 
number of iterations: 2002 
   22200    60.735857      916          777          139 7.9129712e-13 1.2687193e-14          0.1 0.0090139776    43.929903  0.029876722 
number of iterations: 1971 
   22300    60.957448      927          788          139 8.0178347e-13 1.271862e-14          0.1 0.0090141452    44.544852  0.029876443 
number of iterations: 1999 
   22400    61.176308      935          796          139 8.1240879e-13 1.275017e-14          0.1 0.0090143341    45.167959  0.029876129 
number of iterations: 1976 
   22500      61.3781      944          804          140 8.2317491e-13 1.278184e-14          0.1 0.0090145064    45.799333  0.029875842 
number of iterations: 2028 
   22600     61.60021      953          813          140 8.340837e-13 1.2813633e-14          0.1 0.0090146949    46.439084  0.029875528 
number of iterations: 2003 
   22700    61.861275      966          826          140 8.4513706e-13 1.2845547e-14          0.1  0.009014876    47.087323  0.029875226 
number of iterations: 2063 
   22800    62.088063      977          837          140 8.563369e-13 1.2877582e-14          0.1 0.0090150829    47.744162  0.029874882 
number of iterations: 2056 
   22900    62.329557      989          849          140 8.6768516e-13 1.2909739e-14          0.1  0.009015295    48.409715  0.029874529 
number of iterations: 2013 
   23000     62.55919     1005          865          140 8.791838e-13 1.2942017e-14          0.1 0.0090155021    49.084099  0.029874184 
number of iterations: 2013 
   23100    62.767839     1022          881          141 8.9083482e-13 1.2974417e-14          0.1 0.0090157078     49.76743  0.029873841 
number of iterations: 2038 
   23200    63.003223     1034          893          141 9.0264025e-13 1.3006938e-14          0.1 0.0090159236    50.459828  0.029873482 
number of iterations: 2022 
   23300    63.249159     1051          910          141 9.1460212e-13 1.3039581e-14          0.1 0.0090161282     51.16141  0.029873141 
number of iterations: 2038 
   23400    63.507583     1060          919          141 9.267225e-13 1.3072345e-14          0.1 0.0090163479      51.8723  0.029872775 
number of iterations: 2007 
   23500    63.710391     1073          932          141 9.3900351e-13 1.310523e-14          0.1 0.0090165517    52.592621  0.029872436 
number of iterations: 2084 
   23600    63.927327     1093          952          141 9.5144726e-13 1.3138237e-14          0.1 0.0090167837    53.322499   0.02987205 
number of iterations: 2058 
   23700    64.165525     1108          966          142 9.6405592e-13 1.3171366e-14          0.1 0.0090170187    54.062061  0.029871658 
number of iterations: 2036 
   23800    64.410787     1123          981          142 9.7683167e-13 1.3204616e-14          0.1  0.009017239    54.811433  0.029871292 
number of iterations: 2026 
   23900    64.663151     1132          989          143 9.8977672e-13 1.3237988e-14          0.1 0.0090174447    55.570745  0.029870949 
number of iterations: 2039 
   24000     64.92714     1141          998          143 1.0028933e-12 1.3271481e-14          0.1  0.009017676    56.340129  0.029870564 
number of iterations: 2043 
   24100    65.142054     1147         1004          143 1.0161837e-12 1.3305095e-14          0.1 0.0090179042    57.119718  0.029870184 
number of iterations: 2075 
   24200    65.351599     1163         1020          143 1.0296503e-12 1.3338832e-14          0.1 0.0090181498    57.909649  0.029869775 
number of iterations: 2030 
   24300    65.583614     1175         1032          143 1.0432953e-12 1.3372689e-14          0.1 0.0090183567    58.710059  0.029869431 
number of iterations: 2096 
   24400     65.79542     1188         1045          143 1.0571211e-12 1.3406669e-14          0.1 0.0090186293    59.521087  0.029868977 
number of iterations: 2080 
   24500    66.029611     1202         1059          143 1.0711302e-12 1.344077e-14          0.1 0.0090188596    60.342872  0.029868593 
number of iterations: 2083 
   24600    66.261811     1218         1074          144 1.0853248e-12 1.3474993e-14          0.1  0.009019095    61.175559  0.029868201 
number of iterations: 2045 
   24700     66.48472     1229         1085          144 1.0997076e-12 1.3509338e-14          0.1 0.0090193333    62.019291  0.029867804 
number of iterations: 2078 
   24800    66.734869     1240         1096          144 1.114281e-12 1.3543805e-14          0.1 0.0090195856    62.874214  0.029867384 
number of iterations: 2066 
   24900    66.957222     1254         1110          144 1.1290476e-12 1.3578394e-14          0.1 0.0090198377    63.740478  0.029866964 
number of iterations: 2087 
   25000    67.176896     1265         1120          145 1.1432871e-12 1.3613105e-14          0.1 0.0090200938    64.617679  0.029866538 
number of iterations: 2090 
   25100    67.417226     1279         1134          145 1.158438e-12 1.3647938e-14          0.1 0.0090203581    65.506515  0.029866098 
number of iterations: 2090 
   25200     67.64718     1293         1148          145 1.1737897e-12 1.3682893e-14          0.1 0.0090206167    66.407142  0.029865667 
number of iterations: 2072 
   25300    67.866068     1313         1168          145 1.1893448e-12 1.371797e-14          0.1 0.0090208825    67.319715  0.029865225 
number of iterations: 2065 
   25400    68.103385     1332         1184          148 1.2051061e-12 1.3753169e-14          0.1 0.0090211332    68.244393  0.029864807 
number of iterations: 2066 
   25500    68.324481     1345         1197          148 1.2210762e-12 1.3788491e-14          0.1 0.0090214054    69.181335  0.029864354 
number of iterations: 2067 
   25600    68.572266     1360         1211          149 1.237258e-12 1.3823935e-14          0.1 0.0090216537    70.130706  0.029863941 
number of iterations: 2088 
   25700     68.79476     1372         1223          149 1.2536542e-12 1.3859501e-14          0.1 0.0090219163    71.092669  0.029863503 
number of iterations: 2095 
   25800    69.028376     1394         1244          150 1.2702677e-12 1.389519e-14          0.1 0.0090222058    72.067389  0.029863021 
number of iterations: 2077 
   25900    69.250947     1415         1264          151 1.2871013e-12 1.3931002e-14          0.1 0.0090224875     73.05504  0.029862552 
number of iterations: 2101 
   26000    69.478553     1430         1279          151 1.3028262e-12 1.3966936e-14          0.1 0.0090227888    74.054768   0.02986205 
number of iterations: 2100 
   26100    69.721013     1447         1296          151 1.3200913e-12 1.4002993e-14          0.1 0.0090230929    75.067756  0.029861544 
number of iterations: 2102 
   26200    70.061281     1464         1313          151 1.3375852e-12 1.4039173e-14          0.1 0.0090233972    76.094178  0.029861037 
number of iterations: 2116 
   26300    70.294489     1482         1331          151 1.3553109e-12 1.4075477e-14          0.1 0.0090236948    77.134212  0.029860542 
number of iterations: 2078 
   26400    70.511815     1503         1352          151 1.3732716e-12 1.4111903e-14          0.1 0.0090239773    78.188039  0.029860071 
number of iterations: 2096 
   26500     70.75113     1523         1372          151 1.3900759e-12 1.4148452e-14          0.1 0.0090242609    79.254776  0.029859599 
number of iterations: 2112 
   26600    71.001263     1542         1389          153 1.4084972e-12 1.4185124e-14          0.1 0.0090245831    80.335664  0.029859063 
number of iterations: 2116 
   26700    71.237935     1555         1402          153 1.4271627e-12 1.422192e-14          0.1 0.0090248802    81.430886  0.029858568 
number of iterations: 2101 
   26800    71.492521     1574         1421          153 1.4460755e-12 1.425884e-14          0.1 0.0090251924    82.540632  0.029858048 
number of iterations: 2123 
   26900    71.726053     1599         1446          153 1.4652389e-12 1.4295883e-14          0.1  0.009025541    83.665096  0.029857468 
number of iterations: 2142 
   27000    71.953644     1614         1461          153 1.4846563e-12 1.433305e-14          0.1 0.0090258873    84.804475  0.029856891 
number of iterations: 2169 
   27100    72.201869     1626         1473          153 1.504331e-12 1.437034e-14          0.1 0.0090262338    85.958963  0.029856314 
number of iterations: 2129 
   27200    72.423692     1651         1498          153 1.5242664e-12 1.4407755e-14          0.1 0.0090265787    87.128763   0.02985574 
number of iterations: 2150 
   27300     72.66548     1670         1517          153 1.544466e-12 1.4445294e-14          0.1 0.0090269145    88.314074  0.029855181 
number of iterations: 2150 
   27400    72.906168     1689         1536          153 1.5649333e-12 1.4482957e-14          0.1 0.0090272875    89.515106  0.029854559 
number of iterations: 2119 
   27500    73.209299     1718         1564          154 1.5856719e-12 1.4520744e-14          0.1 0.0090276112    90.732065   0.02985402 
number of iterations: 2164 
   27600    73.462297     1747         1593          154 1.6066852e-12 1.4558655e-14          0.1 0.0090280023     91.96516  0.029853369 
number of iterations: 2176 
   27700    73.725291     1771         1617          154 1.627977e-12 1.4596692e-14          0.1   0.00902839    93.214606  0.029852724 
number of iterations: 2171 
   27800    73.959144     1793         1639          154 1.649551e-12 1.4634852e-14          0.1 0.0090287621    94.480623  0.029852104 
number of iterations: 2141 
   27900    74.204613     1813         1658          155 1.6714108e-12 1.4673138e-14          0.1 0.0090291264     95.76343  0.029851497 
number of iterations: 2188 
   28000    74.445838     1837         1682          155 1.6935604e-12 1.4711549e-14          0.1 0.0090295221    97.063249  0.029850839 
number of iterations: 2162 
   28100    74.678755     1856         1701          155 1.7160035e-12 1.4750085e-14          0.1 0.0090298688    98.380307  0.029850261 
number of iterations: 2174 
   28200    75.007065     1874         1718          156 1.7387439e-12 1.4788747e-14          0.1 0.0090302526     99.71483  0.029849622 
number of iterations: 2173 
   28300    75.250692     1895         1738          157 1.7617858e-12 1.4827533e-14          0.1  0.009030645    101.06705  0.029848969 
number of iterations: 2173 
   28400    75.484775     1926         1769          157 1.7851329e-12 1.4866446e-14          0.1 0.0090310424     102.4372  0.029848307 
number of iterations: 2142 
   28500     75.72815     1942         1785          157 1.8074534e-12 1.4905484e-14          0.1 0.0090314096     103.8245  0.029847696 
number of iterations: 2164 
   28600    75.974189     1965         1807          158 1.8314057e-12 1.4944648e-14          0.1 0.0090318281     105.2302  0.029846999 
number of iterations: 2171 
   28700    76.204362     1985         1826          159 1.8556755e-12 1.4983938e-14          0.1 0.0090322314    106.65453  0.029846327 
number of iterations: 2193 
   28800    76.437613     2019         1859          160 1.8802669e-12 1.5023354e-14          0.1 0.0090326319    108.09776   0.02984566 
number of iterations: 2172 
   28900    76.661652     2047         1887          160 1.9051841e-12 1.5062897e-14          0.1  0.009033038    109.56012  0.029844984 
number of iterations: 2189 
   29000    76.909473     2069         1907          162 1.9304316e-12 1.5102567e-14          0.1 0.0090334571    111.04187  0.029844286 
number of iterations: 2206 
   29100    77.148001     2089         1927          162 1.9560136e-12 1.5142363e-14          0.1 0.0090339032    112.54327  0.029843543 
number of iterations: 2186 
   29200    77.407571     2115         1953          162 1.9819347e-12 1.5182286e-14          0.1 0.0090343321    114.06458  0.029842829 
number of iterations: 2193 
   29300     77.65338     2146         1984          162 2.0081992e-12 1.5222336e-14          0.1  0.009034775    115.60606  0.029842092 
number of iterations: 2185 
   29400    77.912063     2171         2009          162 2.0336736e-12 1.5262513e-14          0.1 0.0090351976    117.16712  0.029841388 
number of iterations: 2229 
   29500      78.1485     2191         2029          162 2.0594902e-12 1.5302818e-14          0.1 0.0090356448      118.748  0.029840643 
number of iterations: 2184 
   29600    78.377608     2230         2067          163 2.0867825e-12 1.534325e-14          0.1 0.0090360844    120.34985  0.029839911 
number of iterations: 2204 
   29700     78.69212     2255         2091          164 2.1144364e-12 1.5383811e-14          0.1 0.0090365464    121.97294  0.029839142 
number of iterations: 2203 
   29800    78.935699     2279         2114          165 2.1424569e-12 1.5424499e-14          0.1 0.0090370435    123.61755  0.029838314 
number of iterations: 2223 
   29900    79.186177     2303         2138          165 2.1708486e-12 1.5465315e-14          0.1 0.0090375209    125.28397   0.02983752 
number of iterations: 2217 
   30000    79.436867     2333         2168          165 2.1996166e-12 1.550626e-14          0.1 0.0090380147    126.97248  0.029836697 
number of iterations: 2256 
   30100    79.705819     2361         2196          165 2.2287658e-12 1.5547333e-14          0.1 0.0090385258    128.68337  0.029835846 
number of iterations: 2232 
   30200    80.024149     2389         2224          165 2.2583013e-12 1.5588535e-14          0.1 0.0090390339    130.41695     0.029835 
number of iterations: 2226 
   30300    80.272151     2418         2253          165 2.2882282e-12 1.5629866e-14          0.1 0.0090395288    132.17352  0.029834176 
number of iterations: 2212 
   30400    80.520351     2450         2284          166 2.3185517e-12 1.5671326e-14          0.1 0.0090400222    133.95338  0.029833355 
number of iterations: 2210 
   30500    80.751155     2467         2301          166 2.349277e-12 1.5712916e-14          0.1 0.0090405266    135.75683  0.029832515 
number of iterations: 2207 
   30600    81.000517     2507         2341          166 2.3804095e-12 1.5754635e-14          0.1 0.0090410351     137.5842  0.029831668 
number of iterations: 2222 
   30700    81.259262     2539         2373          166 2.4119545e-12 1.5796483e-14          0.1 0.0090415973     139.4358  0.029830732 
number of iterations: 2240 
   30800    81.495047     2566         2400          166 2.4439175e-12 1.5838462e-14          0.1 0.0090421086    141.31195   0.02982988 
number of iterations: 2237 
   30900    81.758965     2605         2438          167 2.4753047e-12 1.5880571e-14          0.1 0.0090426641    143.21221  0.029828955 
number of iterations: 2240 
   31000    82.014308     2636         2468          168 2.506819e-12 1.592281e-14          0.1 0.0090432201    145.13668   0.02982803 
number of iterations: 2245 
   31100     82.27049     2665         2497          168 2.5389135e-12 1.596518e-14          0.1 0.0090437497    147.08581  0.029827148 
number of iterations: 2234 
   31200    82.509554     2697         2529          168 2.572559e-12 1.600768e-14          0.1 0.0090443359    149.06078  0.029826172 
number of iterations: 2269 
   31300    82.765492     2733         2564          169 2.6066504e-12 1.6050312e-14          0.1 0.0090449236    151.06193  0.029825193 
number of iterations: 2268 
   31400    83.030889     2768         2599          169 2.6411935e-12 1.6093074e-14          0.1 0.0090455216    153.08961  0.029824197 
number of iterations: 2249 
   31500    83.272119     2793         2624          169 2.675311e-12 1.6135968e-14          0.1 0.0090461048     155.1435  0.029823226 
number of iterations: 2218 
   31600    83.514835     2821         2652          169 2.710764e-12 1.6178994e-14          0.1 0.0090466557    157.22463  0.029822309 
number of iterations: 2270 
   31700    83.812008     2857         2688          169 2.7453909e-12 1.6222152e-14          0.1 0.0090472446    159.33235  0.029821328 
number of iterations: 2246 
   31800    84.078006     2910         2741          169 2.7817725e-12 1.6265442e-14          0.1 0.0090478576    161.46802  0.029820308 
number of iterations: 2275 
   31900    84.335345     2946         2777          169 2.8186363e-12 1.6308864e-14          0.1 0.0090484822      163.632  0.029819268 
number of iterations: 2264 
   32000    84.590416     2979         2810          169 2.8559885e-12 1.6352419e-14          0.1 0.0090491323    165.82468  0.029818185 
number of iterations: 2255 
   32100     84.85559     3021         2850          171 2.8938358e-12 1.6396106e-14          0.1 0.0090497338    168.04643  0.029817184 
number of iterations: 2271 
   32200    85.178622     3055         2881          174 2.9309968e-12 1.6439927e-14          0.1 0.0090503589    170.29673  0.029816143 
number of iterations: 2268 
   32300      85.4317     3088         2914          174 2.969838e-12 1.6483881e-14          0.1 0.0090509918    172.57686  0.029815089 
number of iterations: 2285 
   32400    85.685273     3127         2953          174 3.0091939e-12 1.6527968e-14          0.1 0.0090516388    174.88722  0.029814012 
number of iterations: 2255 
   32500    86.002562     3167         2990          177 3.0490714e-12 1.657219e-14          0.1 0.0090523069     177.2282  0.029812899 
number of iterations: 2284 
   32600    86.263048     3209         3032          177 3.0894773e-12 1.6616545e-14          0.1 0.0090529935    179.60023  0.029811756 
number of iterations: 2292 
   32700    86.558976     3245         3068          177 3.1304187e-12 1.6661035e-14          0.1  0.009053728     182.0037  0.029810533 
number of iterations: 2309 
   32800    86.813548     3286         3108          178 3.1681228e-12 1.670566e-14          0.1 0.0090543416    184.43614  0.029809511 
number of iterations: 2293 
   32900    87.075801     3338         3160          178 3.2080113e-12 1.6750419e-14          0.1 0.0090550436    186.89922  0.029808342 
number of iterations: 2284 
   33000     87.33648     3384         3205          179 3.2505234e-12 1.6795313e-14          0.1 0.0090557727    189.39497  0.029807128 
number of iterations: 2310 
   33100    87.592221     3428         3249          179 3.2935988e-12 1.6840342e-14          0.1  0.009056492    191.92381   0.02980593 
number of iterations: 2291 
   33200    87.841854     3468         3289          179 3.3372451e-12 1.6885507e-14          0.1 0.0090572104    194.48618  0.029804734 
number of iterations: 2269 
   33300    88.142411     3522         3343          179 3.3798084e-12 1.6930808e-14          0.1 0.0090579065    197.08125  0.029803575 
number of iterations: 2323 
   33400    88.389687     3561         3382          179 3.4237495e-12 1.6976245e-14          0.1 0.0090586773    199.71007  0.029802292 
number of iterations: 2321 
   33500    88.661247     3606         3427          179 3.4691205e-12 1.7021819e-14          0.1  0.009059473    202.37375  0.029800967 
number of iterations: 2297 
   33600    88.911106     3659         3480          179 3.5150927e-12 1.7067529e-14          0.1 0.0090602258    205.07274  0.029799713 
number of iterations: 2310 
   33700    89.171659     3706         3526          180 3.5616742e-12 1.7113375e-14          0.1 0.0090609962     207.8075   0.02979843 
number of iterations: 2314 
   33800     89.45332     3750         3568          182 3.6088729e-12 1.7159359e-14          0.1 0.0090617678    210.57853  0.029797146 
number of iterations: 2341 
   33900    89.708572     3799         3616          183 3.655723e-12 1.7205481e-14          0.1 0.0090625621    213.38557  0.029795823 
number of iterations: 2300 
   34000    90.062093     3844         3659          185 3.704168e-12 1.725174e-14          0.1 0.0090633325    216.22982   0.02979454 
number of iterations: 2295 
   34100    90.323413     3905         3720          185 3.753255e-12 1.7298137e-14          0.1  0.009064097    219.11177  0.029793267 
number of iterations: 2356 
   34200     90.59109     3952         3766          186 3.8021941e-12 1.7344673e-14          0.1 0.0090649573    222.03131  0.029791835 
number of iterations: 2325 
   34300    90.851843     3993         3807          186 3.8518981e-12 1.7391347e-14          0.1 0.0090658118    224.98904  0.029790412 
number of iterations: 2310 
   34400    91.122966     4038         3852          186 3.9029427e-12 1.743816e-14          0.1 0.0090666581    227.98598  0.029789003 
number of iterations: 2312 
   34500     91.40754     4096         3908          188 3.9546638e-12 1.7485112e-14          0.1 0.0090674964    231.02264  0.029787607 
number of iterations: 2317 
   34600     91.68341     4147         3959          188 4.0055797e-12 1.7532203e-14          0.1 0.0090683695    234.09842  0.029786153 
number of iterations: 2341 
   34700    91.960494     4200         4012          188 4.0586608e-12 1.7579434e-14          0.1 0.0090692379    237.21499  0.029784707 
number of iterations: 2302 
   34800     92.27507     4253         4065          188 4.1112006e-12 1.7626806e-14          0.1  0.009070006    240.37194  0.029783428 
number of iterations: 2318 
   34900    92.538315     4293         4105          188 4.1607877e-12 1.7674317e-14          0.1 0.0090707836      243.567  0.029782133 
number of iterations: 2321 
   35000    92.808898     4339         4150          189 4.2159256e-12 1.7721969e-14          0.1 0.0090716506    246.80441   0.02978069 
Loop time of 92.8089 on 32 procs for 35000 steps with 4339 atoms

Performance: 325830690.580 tau/day, 377.119 timesteps/s
92.4% CPU use with 32 MPI tasks x no OpenMP threads

MPI task timing breakdown:
Section |  min time  |  avg time  |  max time  |%varavg| %total
---------------------------------------------------------------
Pair    | 0.0018228  | 0.064153   | 0.14864    |  16.7 |  0.07
Neigh   | 0.0029605  | 0.019352   | 0.042956   |   8.1 |  0.02
Comm    | 0.047884   | 0.17382    | 0.25076    |  10.7 |  0.19
Output  | 21.75      | 21.75      | 21.758     |   0.0 | 23.44
Modify  | 70.379     | 70.426     | 70.487     |   0.3 | 75.88
Other   |            | 0.3751     |            |       |  0.40

Nlocal:    135.594 ave 304 max 0 min
Histogram: 4 3 4 5 4 2 1 3 5 1
Nghost:    75.9062 ave 165 max 19 min
Histogram: 3 2 5 11 2 5 0 3 0 1
Neighs:    487.5 ave 1073 max 0 min
Histogram: 4 3 4 6 3 1 2 2 4 3

Total # of neighbors = 15600
Ave neighs/atom = 3.5953
Neighbor list builds = 699
Dangerous builds = 0
Total wall time: 0:01:33
