ITEM: TIMESTEP
0
ITEM: NUMBER OF ATOMS
50
ITEM: BOX BOUNDS ff ff ff
0.0000000000000000e+00 1.0000000000000000e-04
0.0000000000000000e+00 1.0000000000000000e-04
0.0000000000000000e+00 5.0000000000000002e-05
ITEM: ATOMS id type diameter x y z 
4 1 1.53e-06 7.33e-06 4.62e-05 6.87e-06 
2 1 1.78e-06 2.92e-05 3.47e-05 1.3e-05 
46 1 1.9e-06 4.35e-05 2.65e-05 1.48e-05 
14 1 1.54e-06 1.04e-05 6.54e-06 1.98e-05 
16 1 1.9e-06 3.73e-05 2.76e-05 2.33e-05 
43 1 1.71e-06 2.92e-05 2.39e-05 2.7e-05 
49 1 1.61e-06 3.15e-05 3.85e-05 2.83e-05 
19 1 1.76e-06 4.69e-05 4.49e-06 2.95e-05 
42 1 1.88e-06 2.07e-05 2.51e-05 3e-05 
22 1 1.7e-06 3.89e-05 2.66e-05 3.04e-05 
32 1 1.71e-06 3.76e-05 3.1e-05 4.61e-05 
34 1 1.47e-06 2.61e-05 5.86e-05 3.55e-06 
27 1 1.85e-06 2.68e-06 6.92e-05 8.02e-06 
33 1 1.87e-06 1.1e-05 6.62e-05 1.72e-05 
5 1 1.71e-06 3.59e-05 7.84e-05 2.62e-05 
45 1 1.48e-06 5.3e-06 8.97e-05 2.62e-05 
26 1 1.82e-06 2.87e-06 5.26e-05 2.73e-05 
1 1 1.87e-06 3.72e-06 6.75e-05 3.27e-05 
18 1 1.66e-06 2.17e-05 6.61e-05 3.56e-05 
29 1 1.47e-06 3.24e-05 7.97e-05 3.63e-05 
8 1 1.8e-06 4.39e-05 6.57e-05 4.1e-05 
17 1 1.44e-06 3.79e-05 9.31e-05 4.24e-05 
11 1 1.67e-06 4.06e-05 5.32e-05 4.62e-05 
10 1 1.7e-06 8.76e-05 2.15e-05 2.83e-06 
50 1 1.92e-06 7.88e-05 1.85e-05 3.25e-06 
13 1 1.46e-06 9.53e-05 4.09e-05 4e-06 
3 1 1.91e-06 5.53e-05 1.9e-05 6.25e-06 
39 1 1.57e-06 5.14e-05 3.18e-05 1.25e-05 
20 1 1.72e-06 8.13e-05 3.66e-05 1.56e-05 
38 1 1.85e-06 7.41e-05 1.09e-05 1.79e-05 
41 1 1.84e-06 9.79e-05 4.89e-05 2.09e-05 
47 1 1.63e-06 5.31e-05 3.91e-05 2.26e-05 
6 1 1.59e-06 5.34e-05 4.74e-05 2.48e-05 
15 1 1.54e-06 8.49e-05 3.72e-05 2.5e-05 
30 1 1.71e-06 7.52e-05 3.24e-05 2.77e-05 
9 1 1.38e-06 7.21e-05 4.65e-05 2.81e-05 
21 1 1.84e-06 8.65e-05 4.71e-05 2.95e-05 
35 1 1.5e-06 9.33e-05 3.96e-05 3.07e-05 
40 1 1.73e-06 5.39e-05 3.21e-05 3.25e-05 
37 1 1.64e-06 8.06e-05 1.03e-05 3.62e-05 
28 1 1.64e-06 7.96e-05 3.52e-05 4.3e-05 
25 1 1.5e-06 6.18e-05 4.58e-05 4.61e-05 
31 1 1.71e-06 5.14e-05 4.57e-06 4.74e-05 
36 1 1.52e-06 6.38e-05 6.54e-05 4.63e-06 
44 1 1.92e-06 5.58e-05 5.1e-05 1.35e-05 
7 1 1.85e-06 7.65e-05 9.58e-05 1.39e-05 
23 1 1.77e-06 5.44e-05 8.11e-05 2.3e-05 
24 1 1.54e-06 8.12e-05 8.32e-05 2.77e-05 
12 1 1.76e-06 8.77e-05 8.47e-05 3.59e-05 
48 1 1.56e-06 8.13e-05 7.76e-05 4.5e-05 
ITEM: TIMESTEP
100
ITEM: NUMBER OF ATOMS
50
ITEM: BOX BOUNDS ff ff ff
0.0000000000000000e+00 1.0000000000000000e-04
0.0000000000000000e+00 1.0000000000000000e-04
0.0000000000000000e+00 5.0000000000000002e-05
ITEM: ATOMS id type diameter x y z 
4 1 1.53947e-06 7.33e-06 4.62e-05 6.87e-06 
2 1 1.79102e-06 2.92e-05 3.47e-05 1.3e-05 
46 1 1.91176e-06 4.35e-05 2.65e-05 1.48e-05 
14 1 1.54953e-06 1.04e-05 6.54e-06 1.98e-05 
16 1 1.91176e-06 3.73e-05 2.76e-05 2.33e-05 
43 1 1.72058e-06 2.92e-05 2.39e-05 2.7e-05 
49 1 1.61996e-06 3.15e-05 3.85e-05 2.83e-05 
19 1 1.77089e-06 4.69e-05 4.49e-06 2.95e-05 
42 1 1.89163e-06 2.07e-05 2.51e-05 3e-05 
22 1 1.71052e-06 3.89e-05 2.66e-05 3.04e-05 
32 1 1.72058e-06 3.76e-05 3.1e-05 4.61e-05 
34 1 1.4791e-06 2.61e-05 5.86e-05 3.55e-06 
27 1 1.86145e-06 2.68e-06 6.92e-05 8.02e-06 
33 1 1.88157e-06 1.1e-05 6.62e-05 1.72e-05 
5 1 1.72058e-06 3.59e-05 7.84e-05 2.62e-05 
45 1 1.48916e-06 5.3e-06 8.97e-05 2.62e-05 
26 1 1.83126e-06 2.87e-06 5.26e-05 2.73e-05 
1 1 1.88157e-06 3.72e-06 6.75e-05 3.27e-05 
18 1 1.67027e-06 2.17e-05 6.61e-05 3.56e-05 
29 1 1.4791e-06 3.24e-05 7.97e-05 3.63e-05 
8 1 1.81114e-06 4.39e-05 6.57e-05 4.1e-05 
17 1 1.44891e-06 3.79e-05 9.31e-05 4.24e-05 
11 1 1.68033e-06 4.06e-05 5.32e-05 4.62e-05 
10 1 1.71052e-06 8.76e-05 2.15e-05 2.83e-06 
50 1 1.93188e-06 7.88e-05 1.85e-05 3.25e-06 
13 1 1.46904e-06 9.53e-05 4.09e-05 4e-06 
3 1 1.92182e-06 5.53e-05 1.9e-05 6.25e-06 
39 1 1.57972e-06 5.14e-05 3.18e-05 1.25e-05 
20 1 1.73064e-06 8.13e-05 3.66e-05 1.56e-05 
38 1 1.86145e-06 7.41e-05 1.09e-05 1.79e-05 
41 1 1.85139e-06 9.79e-05 4.89e-05 2.09e-05 
47 1 1.64009e-06 5.31e-05 3.91e-05 2.26e-05 
6 1 1.59984e-06 5.34e-05 4.74e-05 2.48e-05 
15 1 1.54953e-06 8.49e-05 3.72e-05 2.5e-05 
30 1 1.72058e-06 7.52e-05 3.24e-05 2.77e-05 
9 1 1.38854e-06 7.21e-05 4.65e-05 2.81e-05 
21 1 1.85139e-06 8.65e-05 4.71e-05 2.95e-05 
35 1 1.50928e-06 9.33e-05 3.96e-05 3.07e-05 
40 1 1.74071e-06 5.39e-05 3.21e-05 3.25e-05 
37 1 1.65015e-06 8.06e-05 1.03e-05 3.62e-05 
28 1 1.65015e-06 7.96e-05 3.52e-05 4.3e-05 
25 1 1.50928e-06 6.18e-05 4.58e-05 4.61e-05 
31 1 1.72058e-06 5.14e-05 4.57e-06 4.74e-05 
36 1 1.52941e-06 6.38e-05 6.54e-05 4.63e-06 
44 1 1.93188e-06 5.58e-05 5.1e-05 1.35e-05 
7 1 1.86145e-06 7.65e-05 9.58e-05 1.39e-05 
23 1 1.78095e-06 5.44e-05 8.11e-05 2.3e-05 
24 1 1.54953e-06 8.12e-05 8.32e-05 2.77e-05 
12 1 1.77089e-06 8.77e-05 8.47e-05 3.59e-05 
48 1 1.56965e-06 8.13e-05 7.76e-05 4.5e-05 
ITEM: TIMESTEP
200
ITEM: NUMBER OF ATOMS
50
ITEM: BOX BOUNDS ff ff ff
0.0000000000000000e+00 1.0000000000000000e-04
0.0000000000000000e+00 1.0000000000000000e-04
0.0000000000000000e+00 5.0000000000000002e-05
ITEM: ATOMS id type diameter x y z 
4 1 1.549e-06 7.33e-06 4.62e-05 6.87e-06 
2 1 1.8021e-06 2.92e-05 3.47e-05 1.3e-05 
46 1 1.92359e-06 4.35e-05 2.65e-05 1.48e-05 
14 1 1.55912e-06 1.04e-05 6.54e-06 1.98e-05 
16 1 1.92359e-06 3.73e-05 2.76e-05 2.33e-05 
43 1 1.73123e-06 2.92e-05 2.39e-05 2.7e-05 
49 1 1.62999e-06 3.15e-05 3.85e-05 2.83e-05 
19 1 1.78185e-06 4.69e-05 4.49e-06 2.95e-05 
42 1 1.90334e-06 2.07e-05 2.51e-05 3e-05 
22 1 1.72111e-06 3.89e-05 2.66e-05 3.04e-05 
32 1 1.73123e-06 3.76e-05 3.1e-05 4.61e-05 
34 1 1.48825e-06 2.61e-05 5.86e-05 3.55e-06 
27 1 1.87297e-06 2.68e-06 6.92e-05 8.02e-06 
33 1 1.89322e-06 1.1e-05 6.62e-05 1.72e-05 
5 1 1.73123e-06 3.59e-05 7.84e-05 2.62e-05 
45 1 1.49837e-06 5.3e-06 8.97e-05 2.62e-05 
26 1 1.8426e-06 2.87e-06 5.26e-05 2.73e-05 
1 1 1.89322e-06 3.72e-06 6.75e-05 3.27e-05 
18 1 1.68061e-06 2.17e-05 6.61e-05 3.56e-05 
29 1 1.48825e-06 3.24e-05 7.97e-05 3.63e-05 
8 1 1.82235e-06 4.39e-05 6.57e-05 4.1e-05 
17 1 1.45788e-06 3.79e-05 9.31e-05 4.24e-05 
11 1 1.69073e-06 4.06e-05 5.32e-05 4.62e-05 
10 1 1.72111e-06 8.76e-05 2.15e-05 2.83e-06 
50 1 1.94384e-06 7.88e-05 1.85e-05 3.25e-06 
13 1 1.47813e-06 9.53e-05 4.09e-05 4e-06 
3 1 1.93371e-06 5.53e-05 1.9e-05 6.25e-06 
39 1 1.58949e-06 5.14e-05 3.18e-05 1.25e-05 
20 1 1.74135e-06 8.13e-05 3.66e-05 1.56e-05 
38 1 1.87297e-06 7.41e-05 1.09e-05 1.79e-05 
41 1 1.86284e-06 9.79e-05 4.89e-05 2.09e-05 
47 1 1.65024e-06 5.31e-05 3.91e-05 2.26e-05 
6 1 1.60974e-06 5.34e-05 4.74e-05 2.48e-05 
15 1 1.55912e-06 8.49e-05 3.72e-05 2.5e-05 
30 1 1.73123e-06 7.52e-05 3.24e-05 2.77e-05 
9 1 1.39713e-06 7.21e-05 4.65e-05 2.81e-05 
21 1 1.86284e-06 8.65e-05 4.71e-05 2.95e-05 
35 1 1.51862e-06 9.33e-05 3.96e-05 3.07e-05 
40 1 1.75148e-06 5.39e-05 3.21e-05 3.25e-05 
37 1 1.66036e-06 8.06e-05 1.03e-05 3.62e-05 
28 1 1.66036e-06 7.96e-05 3.52e-05 4.3e-05 
25 1 1.51862e-06 6.18e-05 4.58e-05 4.61e-05 
31 1 1.73123e-06 5.14e-05 4.57e-06 4.74e-05 
36 1 1.53887e-06 6.38e-05 6.54e-05 4.63e-06 
44 1 1.94384e-06 5.58e-05 5.1e-05 1.35e-05 
7 1 1.87297e-06 7.65e-05 9.58e-05 1.39e-05 
23 1 1.79197e-06 5.44e-05 8.11e-05 2.3e-05 
24 1 1.55912e-06 8.12e-05 8.32e-05 2.77e-05 
12 1 1.78185e-06 8.77e-05 8.47e-05 3.59e-05 
48 1 1.57937e-06 8.13e-05 7.76e-05 4.5e-05 
ITEM: TIMESTEP
300
ITEM: NUMBER OF ATOMS
50
ITEM: BOX BOUNDS ff ff ff
0.0000000000000000e+00 1.0000000000000000e-04
0.0000000000000000e+00 1.0000000000000000e-04
0.0000000000000000e+00 5.0000000000000002e-05
ITEM: ATOMS id type diameter x y z 
4 1 1.55858e-06 7.33e-06 4.62e-05 6.87e-06 
2 1 1.81325e-06 2.92e-05 3.47e-05 1.3e-05 
46 1 1.93549e-06 4.35e-05 2.65e-05 1.48e-05 
14 1 1.56877e-06 1.04e-05 6.54e-06 1.98e-05 
16 1 1.93549e-06 3.73e-05 2.76e-05 2.33e-05 
43 1 1.74194e-06 2.92e-05 2.39e-05 2.7e-05 
49 1 1.64008e-06 3.15e-05 3.85e-05 2.83e-05 
19 1 1.79288e-06 4.69e-05 4.49e-06 2.95e-05 
42 1 1.91512e-06 2.07e-05 2.51e-05 3e-05 
22 1 1.73176e-06 3.89e-05 2.66e-05 3.04e-05 
32 1 1.74194e-06 3.76e-05 3.1e-05 4.61e-05 
34 1 1.49746e-06 2.61e-05 5.86e-05 3.55e-06 
27 1 1.88456e-06 2.68e-06 6.92e-05 8.02e-06 
33 1 1.90493e-06 1.1e-05 6.62e-05 1.72e-05 
5 1 1.74194e-06 3.59e-05 7.84e-05 2.62e-05 
45 1 1.50765e-06 5.3e-06 8.97e-05 2.62e-05 
26 1 1.854e-06 2.87e-06 5.26e-05 2.73e-05 
1 1 1.90493e-06 3.72e-06 6.75e-05 3.27e-05 
18 1 1.69101e-06 2.17e-05 6.61e-05 3.56e-05 
29 1 1.49746e-06 3.24e-05 7.97e-05 3.63e-05 
8 1 1.83362e-06 4.39e-05 6.57e-05 4.1e-05 
17 1 1.4669e-06 3.79e-05 9.31e-05 4.24e-05 
11 1 1.7012e-06 4.06e-05 5.32e-05 4.62e-05 
10 1 1.73176e-06 8.76e-05 2.15e-05 2.83e-06 
50 1 1.95587e-06 7.88e-05 1.85e-05 3.25e-06 
13 1 1.48727e-06 9.53e-05 4.09e-05 4e-06 
3 1 1.94568e-06 5.53e-05 1.9e-05 6.25e-06 
39 1 1.59933e-06 5.14e-05 3.18e-05 1.25e-05 
20 1 1.75213e-06 8.13e-05 3.66e-05 1.56e-05 
38 1 1.88456e-06 7.41e-05 1.09e-05 1.79e-05 
41 1 1.87437e-06 9.79e-05 4.89e-05 2.09e-05 
47 1 1.66045e-06 5.31e-05 3.91e-05 2.26e-05 
6 1 1.6197e-06 5.34e-05 4.74e-05 2.48e-05 
15 1 1.56877e-06 8.49e-05 3.72e-05 2.5e-05 
30 1 1.74194e-06 7.52e-05 3.24e-05 2.77e-05 
9 1 1.40578e-06 7.21e-05 4.65e-05 2.81e-05 
21 1 1.87437e-06 8.65e-05 4.71e-05 2.95e-05 
35 1 1.52802e-06 9.33e-05 3.96e-05 3.07e-05 
40 1 1.76232e-06 5.39e-05 3.21e-05 3.25e-05 
37 1 1.67064e-06 8.06e-05 1.03e-05 3.62e-05 
28 1 1.67064e-06 7.96e-05 3.52e-05 4.3e-05 
25 1 1.52802e-06 6.18e-05 4.58e-05 4.61e-05 
31 1 1.74194e-06 5.14e-05 4.57e-06 4.74e-05 
36 1 1.54839e-06 6.38e-05 6.54e-05 4.63e-06 
44 1 1.95587e-06 5.58e-05 5.1e-05 1.35e-05 
7 1 1.88456e-06 7.65e-05 9.58e-05 1.39e-05 
23 1 1.80306e-06 5.44e-05 8.11e-05 2.3e-05 
24 1 1.56877e-06 8.12e-05 8.32e-05 2.77e-05 
12 1 1.79288e-06 8.77e-05 8.47e-05 3.59e-05 
48 1 1.58914e-06 8.13e-05 7.76e-05 4.5e-05 
ITEM: TIMESTEP
400
ITEM: NUMBER OF ATOMS
50
ITEM: BOX BOUNDS ff ff ff
0.0000000000000000e+00 1.0000000000000000e-04
0.0000000000000000e+00 1.0000000000000000e-04
0.0000000000000000e+00 5.0000000000000002e-05
ITEM: ATOMS id type diameter x y z 
4 1 1.56823e-06 7.33e-06 4.62e-05 6.87e-06 
2 1 1.82447e-06 2.92e-05 3.47e-05 1.3e-05 
46 1 1.94747e-06 4.35e-05 2.65e-05 1.48e-05 
14 1 1.57848e-06 1.04e-05 6.54e-06 1.98e-05 
16 1 1.94747e-06 3.73e-05 2.76e-05 2.33e-05 
43 1 1.75272e-06 2.92e-05 2.39e-05 2.7e-05 
49 1 1.65023e-06 3.15e-05 3.85e-05 2.83e-05 
19 1 1.80397e-06 4.69e-05 4.49e-06 2.95e-05 
42 1 1.92697e-06 2.07e-05 2.51e-05 3e-05 
22 1 1.74247e-06 3.89e-05 2.66e-05 3.04e-05 
32 1 1.75272e-06 3.76e-05 3.1e-05 4.61e-05 
34 1 1.50673e-06 2.61e-05 5.86e-05 3.55e-06 
27 1 1.89622e-06 2.68e-06 6.92e-05 8.02e-06 
33 1 1.91672e-06 1.1e-05 6.62e-05 1.72e-05 
5 1 1.75272e-06 3.59e-05 7.84e-05 2.62e-05 
45 1 1.51698e-06 5.3e-06 8.97e-05 2.62e-05 
26 1 1.86547e-06 2.87e-06 5.26e-05 2.73e-05 
1 1 1.91672e-06 3.72e-06 6.75e-05 3.27e-05 
18 1 1.70147e-06 2.17e-05 6.61e-05 3.56e-05 
29 1 1.50673e-06 3.24e-05 7.97e-05 3.63e-05 
8 1 1.84497e-06 4.39e-05 6.57e-05 4.1e-05 
17 1 1.47598e-06 3.79e-05 9.31e-05 4.24e-05 
11 1 1.71172e-06 4.06e-05 5.32e-05 4.62e-05 
10 1 1.74247e-06 8.76e-05 2.15e-05 2.83e-06 
50 1 1.96797e-06 7.88e-05 1.85e-05 3.25e-06 
13 1 1.49648e-06 9.53e-05 4.09e-05 4e-06 
3 1 1.95772e-06 5.53e-05 1.9e-05 6.25e-06 
39 1 1.60923e-06 5.14e-05 3.18e-05 1.25e-05 
20 1 1.76297e-06 8.13e-05 3.66e-05 1.56e-05 
38 1 1.89622e-06 7.41e-05 1.09e-05 1.79e-05 
41 1 1.88597e-06 9.79e-05 4.89e-05 2.09e-05 
47 1 1.67072e-06 5.31e-05 3.91e-05 2.26e-05 
6 1 1.62973e-06 5.34e-05 4.74e-05 2.48e-05 
15 1 1.57848e-06 8.49e-05 3.72e-05 2.5e-05 
30 1 1.75272e-06 7.52e-05 3.24e-05 2.77e-05 
9 1 1.41448e-06 7.21e-05 4.65e-05 2.81e-05 
21 1 1.88597e-06 8.65e-05 4.71e-05 2.95e-05 
35 1 1.53748e-06 9.33e-05 3.96e-05 3.07e-05 
40 1 1.77322e-06 5.39e-05 3.21e-05 3.25e-05 
37 1 1.68097e-06 8.06e-05 1.03e-05 3.62e-05 
28 1 1.68097e-06 7.96e-05 3.52e-05 4.3e-05 
25 1 1.53748e-06 6.18e-05 4.58e-05 4.61e-05 
31 1 1.75272e-06 5.14e-05 4.57e-06 4.74e-05 
36 1 1.55798e-06 6.38e-05 6.54e-05 4.63e-06 
44 1 1.96797e-06 5.58e-05 5.1e-05 1.35e-05 
7 1 1.89622e-06 7.65e-05 9.58e-05 1.39e-05 
23 1 1.81422e-06 5.44e-05 8.11e-05 2.3e-05 
24 1 1.57848e-06 8.12e-05 8.32e-05 2.77e-05 
12 1 1.80397e-06 8.77e-05 8.47e-05 3.59e-05 
48 1 1.59898e-06 8.13e-05 7.76e-05 4.5e-05 
ITEM: TIMESTEP
500
ITEM: NUMBER OF ATOMS
52
ITEM: BOX BOUNDS ff ff ff
0.0000000000000000e+00 1.0000000000000000e-04
0.0000000000000000e+00 1.0000000000000000e-04
0.0000000000000000e+00 5.0000000000000002e-05
ITEM: ATOMS id type diameter x y z 
4 1 1.57793e-06 7.33e-06 4.62e-05 6.87e-06 
2 1 1.83576e-06 2.92e-05 3.47e-05 1.3e-05 
46 1 1.95952e-06 4.35e-05 2.65e-05 1.48e-05 
14 1 1.58824e-06 1.04e-05 6.54e-06 1.98e-05 
16 1 1.95952e-06 3.73e-05 2.76e-05 2.33e-05 
43 1 1.76357e-06 2.92e-05 2.39e-05 2.7e-05 
49 1 1.66044e-06 3.15e-05 3.85e-05 2.83e-05 
19 1 1.81514e-06 4.69e-05 4.49e-06 2.95e-05 
42 1 1.9389e-06 2.07e-05 2.51e-05 3e-05 
22 1 1.75326e-06 3.89e-05 2.66e-05 3.04e-05 
32 1 1.76357e-06 3.76e-05 3.1e-05 4.61e-05 
34 1 1.51605e-06 2.61e-05 5.86e-05 3.55e-06 
27 1 1.90796e-06 2.68e-06 6.92e-05 8.02e-06 
33 1 1.92858e-06 1.1e-05 6.62e-05 1.72e-05 
5 1 1.76357e-06 3.59e-05 7.84e-05 2.62e-05 
45 1 1.52636e-06 5.3e-06 8.97e-05 2.62e-05 
26 1 1.87702e-06 2.87e-06 5.26e-05 2.73e-05 
1 1 1.92858e-06 3.72e-06 6.75e-05 3.27e-05 
18 1 1.712e-06 2.17e-05 6.61e-05 3.56e-05 
29 1 1.51605e-06 3.24e-05 7.97e-05 3.63e-05 
8 1 1.85639e-06 4.39e-05 6.57e-05 4.1e-05 
17 1 1.48511e-06 3.79e-05 9.31e-05 4.24e-05 
11 1 1.72232e-06 4.06e-05 5.32e-05 4.62e-05 
10 1 1.75326e-06 8.76e-05 2.15e-05 2.83e-06 
50 1 1.63485e-06 7.95703e-05 1.83268e-05 3.04215e-06 
13 1 1.50574e-06 9.53e-05 4.09e-05 4e-06 
3 1 1.96984e-06 5.53e-05 1.9e-05 6.25e-06 
39 1 1.61918e-06 5.14e-05 3.18e-05 1.25e-05 
20 1 1.77388e-06 8.13e-05 3.66e-05 1.56e-05 
38 1 1.90796e-06 7.41e-05 1.09e-05 1.79e-05 
51 1 1.50291e-06 7.80918e-05 1.86592e-05 3.44108e-06 
41 1 1.89764e-06 9.79e-05 4.89e-05 2.09e-05 
47 1 1.68106e-06 5.31e-05 3.91e-05 2.26e-05 
6 1 1.63981e-06 5.34e-05 4.74e-05 2.48e-05 
15 1 1.58824e-06 8.49e-05 3.72e-05 2.5e-05 
30 1 1.76357e-06 7.52e-05 3.24e-05 2.77e-05 
9 1 1.42323e-06 7.21e-05 4.65e-05 2.81e-05 
21 1 1.89764e-06 8.65e-05 4.71e-05 2.95e-05 
35 1 1.54699e-06 9.33e-05 3.96e-05 3.07e-05 
40 1 1.7842e-06 5.39e-05 3.21e-05 3.25e-05 
37 1 1.69138e-06 8.06e-05 1.03e-05 3.62e-05 
28 1 1.69138e-06 7.96e-05 3.52e-05 4.3e-05 
25 1 1.54699e-06 6.18e-05 4.58e-05 4.61e-05 
31 1 1.76357e-06 5.14e-05 4.57e-06 4.74e-05 
36 1 1.56762e-06 6.38e-05 6.54e-05 4.63e-06 
44 1 1.63485e-06 5.65703e-05 5.08268e-05 1.32921e-05 
7 1 1.90796e-06 7.65e-05 9.58e-05 1.39e-05 
52 1 1.50291e-06 5.50918e-05 5.11592e-05 1.36911e-05 
23 1 1.82545e-06 5.44e-05 8.11e-05 2.3e-05 
24 1 1.58824e-06 8.12e-05 8.32e-05 2.77e-05 
12 1 1.81514e-06 8.77e-05 8.47e-05 3.59e-05 
48 1 1.60887e-06 8.13e-05 7.76e-05 4.5e-05 
ITEM: TIMESTEP
600
ITEM: NUMBER OF ATOMS
53
ITEM: BOX BOUNDS ff ff ff
0.0000000000000000e+00 1.0000000000000000e-04
0.0000000000000000e+00 1.0000000000000000e-04
0.0000000000000000e+00 5.0000000000000002e-05
ITEM: ATOMS id type diameter x y z 
4 1 1.5877e-06 7.33e-06 4.62e-05 6.87e-06 
2 1 1.84712e-06 2.92e-05 3.47e-05 1.3e-05 
46 1 1.97165e-06 4.35e-05 2.65e-05 1.48e-05 
14 1 1.59807e-06 1.04e-05 6.54e-06 1.98e-05 
16 1 1.97165e-06 3.73e-05 2.76e-05 2.33e-05 
43 1 1.77448e-06 2.92e-05 2.39e-05 2.7e-05 
49 1 1.67071e-06 3.15e-05 3.85e-05 2.83e-05 
19 1 1.82637e-06 4.69e-05 4.49e-06 2.95e-05 
42 1 1.95089e-06 2.07e-05 2.51e-05 3e-05 
22 1 1.76411e-06 3.89e-05 2.66e-05 3.04e-05 
32 1 1.77448e-06 3.76e-05 3.1e-05 4.61e-05 
34 1 1.52543e-06 2.61e-05 5.86e-05 3.55e-06 
27 1 1.91976e-06 2.68e-06 6.92e-05 8.02e-06 
33 1 1.94052e-06 1.1e-05 6.62e-05 1.72e-05 
5 1 1.77448e-06 3.59e-05 7.84e-05 2.62e-05 
45 1 1.53581e-06 5.3e-06 8.97e-05 2.62e-05 
26 1 1.88863e-06 2.87e-06 5.26e-05 2.73e-05 
1 1 1.94052e-06 3.72e-06 6.75e-05 3.27e-05 
18 1 1.7226e-06 2.17e-05 6.61e-05 3.56e-05 
29 1 1.52543e-06 3.24e-05 7.97e-05 3.63e-05 
8 1 1.86788e-06 4.39e-05 6.57e-05 4.1e-05 
17 1 1.4943e-06 3.79e-05 9.31e-05 4.24e-05 
11 1 1.73298e-06 4.06e-05 5.32e-05 4.62e-05 
10 1 1.76411e-06 8.76e-05 2.15e-05 2.83e-06 
50 1 1.64496e-06 7.95703e-05 1.83268e-05 3.04215e-06 
13 1 1.51506e-06 9.53e-05 4.09e-05 4e-06 
3 1 1.59583e-06 5.47102e-05 1.85728e-05 6.57364e-06 
39 1 1.6292e-06 5.14e-05 3.18e-05 1.25e-05 
20 1 1.78486e-06 8.13e-05 3.66e-05 1.56e-05 
38 1 1.91976e-06 7.41e-05 1.09e-05 1.79e-05 
51 1 1.51221e-06 7.80918e-05 1.86592e-05 3.44108e-06 
53 1 1.54976e-06 5.58728e-05 1.94149e-05 5.9357e-06 
41 1 1.90939e-06 9.79e-05 4.89e-05 2.09e-05 
47 1 1.69147e-06 5.31e-05 3.91e-05 2.26e-05 
6 1 1.64996e-06 5.34e-05 4.74e-05 2.48e-05 
15 1 1.59807e-06 8.49e-05 3.72e-05 2.5e-05 
30 1 1.77448e-06 7.52e-05 3.24e-05 2.77e-05 
9 1 1.43204e-06 7.21e-05 4.65e-05 2.81e-05 
21 1 1.90939e-06 8.65e-05 4.71e-05 2.95e-05 
35 1 1.55656e-06 9.33e-05 3.96e-05 3.07e-05 
40 1 1.79524e-06 5.39e-05 3.21e-05 3.25e-05 
37 1 1.70184e-06 8.06e-05 1.03e-05 3.62e-05 
28 1 1.70184e-06 7.96e-05 3.52e-05 4.3e-05 
25 1 1.55656e-06 6.18e-05 4.58e-05 4.61e-05 
31 1 1.77448e-06 5.14e-05 4.57e-06 4.74e-05 
36 1 1.57732e-06 6.38e-05 6.54e-05 4.63e-06 
44 1 1.64496e-06 5.65703e-05 5.08268e-05 1.32921e-05 
7 1 1.91976e-06 7.65e-05 9.58e-05 1.39e-05 
52 1 1.51221e-06 5.50918e-05 5.11592e-05 1.36911e-05 
23 1 1.83675e-06 5.44e-05 8.11e-05 2.3e-05 
24 1 1.59807e-06 8.12e-05 8.32e-05 2.77e-05 
12 1 1.82637e-06 8.77e-05 8.47e-05 3.59e-05 
48 1 1.61883e-06 8.13e-05 7.76e-05 4.5e-05 
ITEM: TIMESTEP
700
ITEM: NUMBER OF ATOMS
55
ITEM: BOX BOUNDS ff ff ff
0.0000000000000000e+00 1.0000000000000000e-04
0.0000000000000000e+00 1.0000000000000000e-04
0.0000000000000000e+00 5.0000000000000002e-05
ITEM: ATOMS id type diameter x y z 
4 1 1.59752e-06 7.33e-06 4.62e-05 6.87e-06 
2 1 1.85855e-06 2.92e-05 3.47e-05 1.3e-05 
46 1 1.6379e-06 4.42718e-05 2.63265e-05 1.45918e-05 
14 1 1.60796e-06 1.04e-05 6.54e-06 1.98e-05 
54 1 1.50572e-06 4.27905e-05 2.66595e-05 1.49914e-05 
16 1 1.6379e-06 3.80718e-05 2.74265e-05 2.30918e-05 
43 1 1.78547e-06 2.92e-05 2.39e-05 2.7e-05 
49 1 1.68105e-06 3.15e-05 3.85e-05 2.83e-05 
19 1 1.83767e-06 4.69e-05 4.49e-06 2.95e-05 
42 1 1.96297e-06 2.07e-05 2.51e-05 3e-05 
22 1 1.77502e-06 3.89e-05 2.66e-05 3.04e-05 
32 1 1.78547e-06 3.76e-05 3.1e-05 4.61e-05 
55 1 1.50572e-06 3.65905e-05 2.77595e-05 2.34914e-05 
34 1 1.53487e-06 2.61e-05 5.86e-05 3.55e-06 
27 1 1.93164e-06 2.68e-06 6.92e-05 8.02e-06 
33 1 1.95253e-06 1.1e-05 6.62e-05 1.72e-05 
5 1 1.78547e-06 3.59e-05 7.84e-05 2.62e-05 
45 1 1.54531e-06 5.3e-06 8.97e-05 2.62e-05 
26 1 1.90032e-06 2.87e-06 5.26e-05 2.73e-05 
1 1 1.95253e-06 3.72e-06 6.75e-05 3.27e-05 
18 1 1.73326e-06 2.17e-05 6.61e-05 3.56e-05 
29 1 1.53487e-06 3.24e-05 7.97e-05 3.63e-05 
8 1 1.87944e-06 4.39e-05 6.57e-05 4.1e-05 
17 1 1.50355e-06 3.79e-05 9.31e-05 4.24e-05 
11 1 1.7437e-06 4.06e-05 5.32e-05 4.62e-05 
10 1 1.77502e-06 8.76e-05 2.15e-05 2.83e-06 
50 1 1.65514e-06 7.95703e-05 1.83268e-05 3.04215e-06 
13 1 1.52443e-06 9.53e-05 4.09e-05 4e-06 
3 1 1.60571e-06 5.47102e-05 1.85728e-05 6.57364e-06 
39 1 1.63929e-06 5.14e-05 3.18e-05 1.25e-05 
20 1 1.79591e-06 8.13e-05 3.66e-05 1.56e-05 
38 1 1.93164e-06 7.41e-05 1.09e-05 1.79e-05 
51 1 1.52157e-06 7.80918e-05 1.86592e-05 3.44108e-06 
53 1 1.55935e-06 5.58728e-05 1.94149e-05 5.9357e-06 
41 1 1.9212e-06 9.79e-05 4.89e-05 2.09e-05 
47 1 1.70193e-06 5.31e-05 3.91e-05 2.26e-05 
6 1 1.66017e-06 5.34e-05 4.74e-05 2.48e-05 
15 1 1.60796e-06 8.49e-05 3.72e-05 2.5e-05 
30 1 1.78547e-06 7.52e-05 3.24e-05 2.77e-05 
9 1 1.4409e-06 7.21e-05 4.65e-05 2.81e-05 
21 1 1.9212e-06 8.65e-05 4.71e-05 2.95e-05 
35 1 1.5662e-06 9.33e-05 3.96e-05 3.07e-05 
40 1 1.80635e-06 5.39e-05 3.21e-05 3.25e-05 
37 1 1.71238e-06 8.06e-05 1.03e-05 3.62e-05 
28 1 1.71238e-06 7.96e-05 3.52e-05 4.3e-05 
25 1 1.5662e-06 6.18e-05 4.58e-05 4.61e-05 
31 1 1.78547e-06 5.14e-05 4.57e-06 4.74e-05 
36 1 1.58708e-06 6.38e-05 6.54e-05 4.63e-06 
44 1 1.65514e-06 5.65703e-05 5.08268e-05 1.32921e-05 
7 1 1.93164e-06 7.65e-05 9.58e-05 1.39e-05 
52 1 1.52157e-06 5.50918e-05 5.11592e-05 1.36911e-05 
23 1 1.84811e-06 5.44e-05 8.11e-05 2.3e-05 
24 1 1.60796e-06 8.12e-05 8.32e-05 2.77e-05 
12 1 1.83767e-06 8.77e-05 8.47e-05 3.59e-05 
48 1 1.62885e-06 8.13e-05 7.76e-05 4.5e-05 
ITEM: TIMESTEP
800
ITEM: NUMBER OF ATOMS
56
ITEM: BOX BOUNDS ff ff ff
0.0000000000000000e+00 1.0000000000000000e-04
0.0000000000000000e+00 1.0000000000000000e-04
0.0000000000000000e+00 5.0000000000000002e-05
ITEM: ATOMS id type diameter x y z 
4 1 1.60741e-06 7.33e-06 4.62e-05 6.87e-06 
2 1 1.87006e-06 2.92e-05 3.47e-05 1.3e-05 
46 1 1.64804e-06 4.42718e-05 2.63265e-05 1.45918e-05 
14 1 1.61791e-06 1.04e-05 6.54e-06 1.98e-05 
54 1 1.51503e-06 4.27905e-05 2.66595e-05 1.49914e-05 
16 1 1.64804e-06 3.80718e-05 2.74265e-05 2.30918e-05 
43 1 1.79651e-06 2.92e-05 2.39e-05 2.7e-05 
49 1 1.69146e-06 3.15e-05 3.85e-05 2.83e-05 
19 1 1.84904e-06 4.69e-05 4.49e-06 2.95e-05 
42 1 1.59027e-06 2.01122e-05 2.46742e-05 3.03225e-05 
22 1 1.78601e-06 3.89e-05 2.66e-05 3.04e-05 
32 1 1.79651e-06 3.76e-05 3.1e-05 4.61e-05 
55 1 1.51503e-06 3.65905e-05 2.77595e-05 2.34914e-05 
56 1 1.54436e-06 2.12708e-05 2.55135e-05 2.96868e-05 
34 1 1.54437e-06 2.61e-05 5.86e-05 3.55e-06 
27 1 1.9436e-06 2.68e-06 6.92e-05 8.02e-06 
33 1 1.96461e-06 1.1e-05 6.62e-05 1.72e-05 
5 1 1.79651e-06 3.59e-05 7.84e-05 2.62e-05 
45 1 1.55488e-06 5.3e-06 8.97e-05 2.62e-05 
26 1 1.91208e-06 2.87e-06 5.26e-05 2.73e-05 
1 1 1.96461e-06 3.72e-06 6.75e-05 3.27e-05 
18 1 1.74398e-06 2.17e-05 6.61e-05 3.56e-05 
29 1 1.54437e-06 3.24e-05 7.97e-05 3.63e-05 
8 1 1.89107e-06 4.39e-05 6.57e-05 4.1e-05 
17 1 1.51285e-06 3.79e-05 9.31e-05 4.24e-05 
11 1 1.75449e-06 4.06e-05 5.32e-05 4.62e-05 
10 1 1.78601e-06 8.76e-05 2.15e-05 2.83e-06 
50 1 1.66538e-06 7.95892e-05 1.83226e-05 3.03706e-06 
13 1 1.53387e-06 9.53e-05 4.09e-05 4e-06 
3 1 1.61565e-06 5.47102e-05 1.85728e-05 6.57364e-06 
39 1 1.64943e-06 5.14e-05 3.18e-05 1.25e-05 
20 1 1.80702e-06 8.13e-05 3.66e-05 1.56e-05 
38 1 1.9436e-06 7.41e-05 1.09e-05 1.79e-05 
51 1 1.53098e-06 7.8073e-05 1.86634e-05 3.44617e-06 
53 1 1.569e-06 5.58728e-05 1.94149e-05 5.9357e-06 
41 1 1.93309e-06 9.79e-05 4.89e-05 2.09e-05 
47 1 1.71247e-06 5.31e-05 3.91e-05 2.26e-05 
6 1 1.67044e-06 5.34e-05 4.74e-05 2.48e-05 
15 1 1.61791e-06 8.49e-05 3.72e-05 2.5e-05 
30 1 1.79651e-06 7.52e-05 3.24e-05 2.77e-05 
9 1 1.44982e-06 7.21e-05 4.65e-05 2.81e-05 
21 1 1.93309e-06 8.65e-05 4.71e-05 2.95e-05 
35 1 1.57589e-06 9.33e-05 3.96e-05 3.07e-05 
40 1 1.81753e-06 5.39e-05 3.21e-05 3.25e-05 
37 1 1.72297e-06 8.06e-05 1.03e-05 3.62e-05 
28 1 1.72297e-06 7.96e-05 3.52e-05 4.3e-05 
25 1 1.57589e-06 6.18e-05 4.58e-05 4.61e-05 
31 1 1.79651e-06 5.14e-05 4.57e-06 4.74e-05 
36 1 1.5969e-06 6.38e-05 6.54e-05 4.63e-06 
44 1 1.66538e-06 5.65892e-05 5.08226e-05 1.32871e-05 
7 1 1.9436e-06 7.65e-05 9.58e-05 1.39e-05 
52 1 1.53098e-06 5.5073e-05 5.11634e-05 1.36962e-05 
23 1 1.85955e-06 5.44e-05 8.11e-05 2.3e-05 
24 1 1.61791e-06 8.12e-05 8.32e-05 2.77e-05 
12 1 1.84904e-06 8.77e-05 8.47e-05 3.59e-05 
48 1 1.63893e-06 8.13e-05 7.76e-05 4.5e-05 
ITEM: TIMESTEP
900
ITEM: NUMBER OF ATOMS
58
ITEM: BOX BOUNDS ff ff ff
0.0000000000000000e+00 1.0000000000000000e-04
0.0000000000000000e+00 1.0000000000000000e-04
0.0000000000000000e+00 5.0000000000000002e-05
ITEM: ATOMS id type diameter x y z 
4 1 1.61736e-06 7.33e-06 4.62e-05 6.87e-06 
2 1 1.88163e-06 2.92e-05 3.47e-05 1.3e-05 
46 1 1.65824e-06 4.42718e-05 2.63265e-05 1.45918e-05 
14 1 1.62793e-06 1.04e-05 6.54e-06 1.98e-05 
54 1 1.52441e-06 4.27905e-05 2.66595e-05 1.49914e-05 
16 1 1.65824e-06 3.80718e-05 2.74265e-05 2.30918e-05 
43 1 1.80763e-06 2.92e-05 2.39e-05 2.7e-05 
49 1 1.70192e-06 3.15e-05 3.85e-05 2.83e-05 
19 1 1.86049e-06 4.69e-05 4.49e-06 2.95e-05 
42 1 1.60011e-06 2.01122e-05 2.46742e-05 3.03225e-05 
22 1 1.79706e-06 3.89e-05 2.66e-05 3.04e-05 
32 1 1.80763e-06 3.76e-05 3.1e-05 4.61e-05 
55 1 1.52441e-06 3.65905e-05 2.77595e-05 2.34914e-05 
56 1 1.55392e-06 2.12708e-05 2.55135e-05 2.96868e-05 
34 1 1.55393e-06 2.61e-05 5.86e-05 3.55e-06 
27 1 1.95563e-06 2.68e-06 6.92e-05 8.02e-06 
33 1 1.63205e-06 1.1769e-05 6.60271e-05 1.69925e-05 
57 1 1.50034e-06 1.0293e-05 6.63589e-05 1.73908e-05 
5 1 1.80763e-06 3.59e-05 7.84e-05 2.62e-05 
45 1 1.5645e-06 5.3e-06 8.97e-05 2.62e-05 
26 1 1.92391e-06 2.87e-06 5.26e-05 2.73e-05 
1 1 1.63205e-06 4.48902e-06 6.73271e-05 3.24925e-05 
18 1 1.75478e-06 2.17e-05 6.61e-05 3.56e-05 
29 1 1.55393e-06 3.24e-05 7.97e-05 3.63e-05 
8 1 1.90277e-06 4.39e-05 6.57e-05 4.1e-05 
17 1 1.52222e-06 3.79e-05 9.31e-05 4.24e-05 
11 1 1.76535e-06 4.06e-05 5.32e-05 4.62e-05 
58 1 1.50034e-06 3.01304e-06 6.76589e-05 3.28908e-05 
10 1 1.79706e-06 8.76e-05 2.15e-05 2.83e-06 
50 1 1.67569e-06 7.95892e-05 1.83226e-05 3.03706e-06 
13 1 1.54336e-06 9.53e-05 4.09e-05 4e-06 
3 1 1.62564e-06 5.46954e-05 1.8562e-05 6.58176e-06 
39 1 1.65964e-06 5.14e-05 3.18e-05 1.25e-05 
20 1 1.8182e-06 8.13e-05 3.66e-05 1.56e-05 
38 1 1.95563e-06 7.41e-05 1.09e-05 1.79e-05 
51 1 1.54046e-06 7.8073e-05 1.86634e-05 3.44617e-06 
53 1 1.57871e-06 5.58876e-05 1.94256e-05 5.92758e-06 
41 1 1.94505e-06 9.79e-05 4.89e-05 2.09e-05 
47 1 1.72306e-06 5.31e-05 3.91e-05 2.26e-05 
6 1 1.68078e-06 5.34e-05 4.74e-05 2.48e-05 
15 1 1.62793e-06 8.49e-05 3.72e-05 2.5e-05 
30 1 1.80763e-06 7.52e-05 3.24e-05 2.77e-05 
9 1 1.45879e-06 7.21e-05 4.65e-05 2.81e-05 
21 1 1.94505e-06 8.65e-05 4.71e-05 2.95e-05 
35 1 1.58564e-06 9.33e-05 3.96e-05 3.07e-05 
40 1 1.82877e-06 5.39e-05 3.21e-05 3.25e-05 
37 1 1.73364e-06 8.06e-05 1.03e-05 3.62e-05 
28 1 1.73364e-06 7.96e-05 3.52e-05 4.3e-05 
25 1 1.58564e-06 6.18e-05 4.58e-05 4.61e-05 
31 1 1.80763e-06 5.14e-05 4.57e-06 4.74e-05 
36 1 1.60678e-06 6.38e-05 6.54e-05 4.63e-06 
44 1 1.67569e-06 5.65892e-05 5.08226e-05 1.32871e-05 
7 1 1.95563e-06 7.65e-05 9.58e-05 1.39e-05 
52 1 1.54046e-06 5.5073e-05 5.11634e-05 1.36962e-05 
23 1 1.87106e-06 5.44e-05 8.11e-05 2.3e-05 
24 1 1.62793e-06 8.12e-05 8.32e-05 2.77e-05 
12 1 1.86049e-06 8.77e-05 8.47e-05 3.59e-05 
48 1 1.64907e-06 8.13e-05 7.76e-05 4.5e-05 
ITEM: TIMESTEP
1000
ITEM: NUMBER OF ATOMS
58
ITEM: BOX BOUNDS ff ff ff
0.0000000000000000e+00 1.0000000000000000e-04
0.0000000000000000e+00 1.0000000000000000e-04
0.0000000000000000e+00 5.0000000000000002e-05
ITEM: ATOMS id type diameter x y z 
4 1 1.62736e-06 7.33e-06 4.62e-05 6.87e-06 
2 1 1.89327e-06 2.92e-05 3.47e-05 1.3e-05 
46 1 1.6685e-06 4.42906e-05 2.63223e-05 1.45867e-05 
54 1 1.53384e-06 4.27716e-05 2.66637e-05 1.49965e-05 
14 1 1.638e-06 1.04e-05 6.54e-06 1.98e-05 
16 1 1.6685e-06 3.80906e-05 2.74223e-05 2.30867e-05 
55 1 1.53384e-06 3.65716e-05 2.77637e-05 2.34965e-05 
43 1 1.81882e-06 2.92e-05 2.39e-05 2.7e-05 
49 1 1.71245e-06 3.15e-05 3.85e-05 2.83e-05 
19 1 1.872e-06 4.69e-05 4.49e-06 2.95e-05 
56 1 1.56353e-06 2.12708e-05 2.55135e-05 2.96868e-05 
42 1 1.61001e-06 2.01122e-05 2.46742e-05 3.03225e-05 
22 1 1.80818e-06 3.89e-05 2.66e-05 3.04e-05 
32 1 1.81882e-06 3.76e-05 3.1e-05 4.61e-05 
34 1 1.56355e-06 2.61e-05 5.86e-05 3.55e-06 
27 1 1.96773e-06 2.68e-06 6.92e-05 8.02e-06 
33 1 1.64215e-06 1.1769e-05 6.60271e-05 1.69925e-05 
57 1 1.50963e-06 1.0293e-05 6.63589e-05 1.73908e-05 
5 1 1.81882e-06 3.59e-05 7.84e-05 2.62e-05 
45 1 1.57418e-06 5.3e-06 8.97e-05 2.62e-05 
26 1 1.93582e-06 2.87e-06 5.26e-05 2.73e-05 
1 1 1.64215e-06 4.48902e-06 6.73271e-05 3.24925e-05 
58 1 1.50963e-06 3.01304e-06 6.76589e-05 3.28908e-05 
18 1 1.76564e-06 2.17e-05 6.61e-05 3.56e-05 
29 1 1.56355e-06 3.24e-05 7.97e-05 3.63e-05 
8 1 1.91455e-06 4.39e-05 6.57e-05 4.1e-05 
17 1 1.53164e-06 3.79e-05 9.31e-05 4.24e-05 
11 1 1.77627e-06 4.06e-05 5.32e-05 4.62e-05 
10 1 1.80818e-06 8.76e-05 2.15e-05 2.83e-06 
50 1 1.68606e-06 7.95892e-05 1.83226e-05 3.03706e-06 
51 1 1.54999e-06 7.8073e-05 1.86634e-05 3.44617e-06 
13 1 1.55291e-06 9.53e-05 4.09e-05 4e-06 
53 1 1.58848e-06 5.58876e-05 1.94256e-05 5.92758e-06 
3 1 1.6357e-06 5.46954e-05 1.8562e-05 6.58176e-06 
39 1 1.66991e-06 5.14e-05 3.18e-05 1.25e-05 
20 1 1.82945e-06 8.13e-05 3.66e-05 1.56e-05 
38 1 1.96773e-06 7.41e-05 1.09e-05 1.79e-05 
41 1 1.95709e-06 9.79e-05 4.89e-05 2.09e-05 
47 1 1.73373e-06 5.31e-05 3.91e-05 2.26e-05 
6 1 1.69118e-06 5.34e-05 4.74e-05 2.48e-05 
15 1 1.638e-06 8.49e-05 3.72e-05 2.5e-05 
30 1 1.81882e-06 7.52e-05 3.24e-05 2.77e-05 
9 1 1.46782e-06 7.21e-05 4.65e-05 2.81e-05 
21 1 1.95709e-06 8.65e-05 4.71e-05 2.95e-05 
35 1 1.59545e-06 9.33e-05 3.96e-05 3.07e-05 
40 1 1.84009e-06 5.39e-05 3.21e-05 3.25e-05 
37 1 1.74436e-06 8.06e-05 1.03e-05 3.62e-05 
28 1 1.74436e-06 7.96e-05 3.52e-05 4.3e-05 
25 1 1.59545e-06 6.18e-05 4.58e-05 4.61e-05 
31 1 1.81882e-06 5.14e-05 4.57e-06 4.74e-05 
36 1 1.61673e-06 6.38e-05 6.54e-05 4.63e-06 
44 1 1.68606e-06 5.65892e-05 5.08226e-05 1.32871e-05 
52 1 1.54999e-06 5.5073e-05 5.11634e-05 1.36962e-05 
7 1 1.96773e-06 7.65e-05 9.58e-05 1.39e-05 
23 1 1.88264e-06 5.44e-05 8.11e-05 2.3e-05 
24 1 1.638e-06 8.12e-05 8.32e-05 2.77e-05 
12 1 1.872e-06 8.77e-05 8.47e-05 3.59e-05 
48 1 1.65927e-06 8.13e-05 7.76e-05 4.5e-05 
ITEM: TIMESTEP
1100
ITEM: NUMBER OF ATOMS
61
ITEM: BOX BOUNDS ff ff ff
0.0000000000000000e+00 1.0000000000000000e-04
0.0000000000000000e+00 1.0000000000000000e-04
0.0000000000000000e+00 5.0000000000000002e-05
ITEM: ATOMS id type diameter x y z 
4 1 1.63743e-06 7.33e-06 4.62e-05 6.87e-06 
2 1 1.90499e-06 2.92e-05 3.47e-05 1.3e-05 
46 1 1.67882e-06 4.42906e-05 2.63223e-05 1.45867e-05 
54 1 1.54334e-06 4.27716e-05 2.66637e-05 1.49965e-05 
14 1 1.64814e-06 1.04e-05 6.54e-06 1.98e-05 
16 1 1.67882e-06 3.80906e-05 2.74223e-05 2.30867e-05 
55 1 1.54334e-06 3.65716e-05 2.77637e-05 2.34965e-05 
43 1 1.83007e-06 2.92e-05 2.39e-05 2.7e-05 
49 1 1.72305e-06 3.15e-05 3.85e-05 2.83e-05 
19 1 1.88359e-06 4.69e-05 4.49e-06 2.95e-05 
56 1 1.57321e-06 2.12856e-05 2.55242e-05 2.96787e-05 
42 1 1.61998e-06 2.00974e-05 2.46635e-05 3.03306e-05 
22 1 1.81937e-06 3.89e-05 2.66e-05 3.04e-05 
32 1 1.83007e-06 3.76e-05 3.1e-05 4.61e-05 
34 1 1.57322e-06 2.61e-05 5.86e-05 3.55e-06 
27 1 1.59413e-06 2.09081e-06 6.87732e-05 8.34329e-06 