 NUFEB Simulation

     50 atoms 
     2 atom types 
     4 nutrients 

  0.0e-4   1.00e-04  xlo xhi 
  0.0e-4   1.00e-04  ylo yhi 
  0.0e-4   5.00e-05  zlo zhi 

 Atoms 

     1 1 1.86e-06  370 4.68e-05 2.27e-05 2.08e-05 1.86e-06 
     2 1 1.72e-06  370 8.56e-05 9.84e-06 2.91e-05 1.72e-06 
     3 1 1.71e-06  370 7.49e-06 5.97e-05 2.39e-05 1.71e-06 
     4 1 1.91e-06  370 7.43e-05 9.20e-05 1.80e-05 1.91e-06 
     5 1 1.47e-06  370 3.05e-05 3.02e-05 3.89e-06 1.47e-06 
     6 1 1.54e-06  370 1.80e-05 5.10e-05 4.00e-05 1.54e-06 
     7 1 1.68e-06  370 5.35e-06 2.22e-05 3.01e-05 1.68e-06 
     8 1 1.50e-06  370 6.58e-05 7.86e-05 4.07e-05 1.50e-06 
     9 1 1.39e-06  370 1.15e-05 9.51e-05 4.33e-05 1.39e-06 
     10 1 1.55e-06  370 2.59e-05 8.55e-05 4.44e-05 1.55e-06 
     11 1 1.47e-06  370 9.83e-05 2.64e-05 3.23e-05 1.47e-06 
     12 1 1.83e-06  370 3.41e-05 9.28e-06 8.37e-06 1.83e-06 
     13 1 1.62e-06  370 7.17e-05 7.67e-06 4.45e-05 1.62e-06 
     14 1 1.77e-06  370 3.01e-06 6.84e-05 7.80e-06 1.77e-06 
     15 1 1.83e-06  370 6.99e-05 2.73e-05 3.51e-05 1.83e-06 
     16 1 1.46e-06  370 7.42e-06 7.28e-05 2.71e-05 1.46e-06 
     17 1 1.82e-06  370 4.52e-05 1.04e-05 2.75e-05 1.82e-06 
     18 1 1.92e-06  370 3.99e-05 3.11e-05 9.29e-06 1.92e-06 
     19 1 1.51e-06  370 3.28e-05 4.93e-06 4.65e-05 1.51e-06 
     20 1 1.57e-06  370 5.45e-05 7.88e-06 1.78e-05 1.57e-06 
     21 1 1.78e-06  370 9.15e-05 3.99e-05 4.77e-05 1.78e-06 
     22 1 1.39e-06  370 6.41e-05 7.31e-05 4.43e-05 1.39e-06 
     23 1 1.72e-06  370 3.04e-05 7.70e-05 2.12e-05 1.72e-06 
     24 1 1.71e-06  370 5.80e-05 2.24e-05 3.94e-05 1.71e-06 
     25 1 1.60e-06  370 4.25e-05 7.13e-06 8.46e-06 1.60e-06 
     26 1 1.48e-06  370 3.27e-05 3.30e-05 5.07e-06 1.48e-06 
     27 1 1.40e-06  370 2.47e-06 3.01e-05 2.18e-05 1.40e-06 
     28 1 1.92e-06  370 4.90e-05 7.59e-05 1.23e-05 1.92e-06 
     29 1 1.42e-06  370 6.97e-06 5.49e-05 1.12e-05 1.42e-06 
     30 1 1.42e-06  370 2.34e-05 9.46e-05 4.70e-05 1.42e-06 
     31 1 1.53e-06  370 8.22e-05 5.95e-05 2.09e-05 1.53e-06 
     32 1 1.64e-06  370 8.92e-05 3.00e-05 1.46e-05 1.64e-06 
     33 1 1.60e-06  370 5.13e-05 9.44e-05 2.87e-05 1.60e-06 
     34 1 1.67e-06  370 5.26e-05 1.29e-05 1.86e-05 1.67e-06 
     35 1 1.38e-06  370 2.46e-05 2.11e-05 7.67e-06 1.38e-06 
     36 1 1.71e-06  370 7.07e-05 9.34e-05 1.34e-05 1.71e-06 
     37 1 1.86e-06  370 7.10e-05 7.15e-06 3.59e-05 1.86e-06 
     38 1 1.69e-06  370 1.29e-05 7.49e-05 4.09e-05 1.69e-06 
     39 1 1.72e-06  370 8.88e-06 6.07e-05 3.65e-05 1.72e-06 
     40 1 1.40e-06  370 2.89e-05 3.89e-05 3.76e-05 1.40e-06 
     41 1 1.57e-06  370 9.71e-05 7.85e-05 4.47e-05 1.57e-06 
     42 1 1.84e-06  370 4.47e-05 9.60e-05 4.24e-05 1.84e-06 
     43 1 1.65e-06  370 3.76e-05 8.73e-06 3.83e-05 1.65e-06 
     44 1 1.66e-06  370 6.48e-05 1.18e-05 2.99e-05 1.66e-06 
     45 1 1.41e-06  370 7.98e-05 6.28e-05 3.36e-05 1.41e-06 
     46 1 1.74e-06  370 6.04e-05 3.63e-05 2.65e-06 1.74e-06 
     47 1 1.60e-06  370 4.49e-05 5.48e-05 2.13e-05 1.60e-06 
     48 1 1.92e-06  370 6.64e-05 1.89e-05 1.03e-05 1.92e-06 
     49 1 1.70e-06  370 1.54e-05 5.56e-05 4.12e-05 1.70e-06 
     50 1 1.38e-06  370 6.01e-05 1.70e-05 3.07e-05 1.38e-06 

 Nutrients 

     1 sub g nn nn nn 1.00e-01 1.00e-01 
     2 o2 l nn nn nd 9.00e-03 9.00e-03 
     3 suc l nn nn nn 3.42e-20 3.42e-20 
     4 co2 l nn nn nd 2.99e-02 2.99e-02 

 Type Name 

     1 cyano  
     2 ecw  

 Diffusion Coeffs 

     sub 0 
     o2 2.3e-09 
     suc 5.2e-10 
     co2 1.9e-09 

 Growth Rate 

     cyano 2.047e-05 
     ecw 6.71e-05 

 Ks 

     cyano 0.00035 0.0002 0.01 0.000138 
     ecw 0 0.001 3.6 0.05 

 Yield 

     cyano 0.55 
     ecw 0.43 

 Maintenance 

     cyano 0 
     ecw 9.5e-07 

 Decay 

     cyano 0 
     ecw 0 



