 NUFEB Simulation

     50 atoms 
     2 atom types 
     4 nutrients 

  0.0e-4   1.00e-04  xlo xhi 
  0.0e-4   1.00e-04  ylo yhi 
  0.0e-4   5.00e-05  zlo zhi 

 Atoms 

     1 1 1.77e-06  370 3.66e-06 5.04e-05 3.31e-05 1.77e-06 
     2 1 1.71e-06  370 7.58e-05 9.71e-05 3.13e-06 1.71e-06 
     3 1 1.89e-06  370 1.50e-05 7.20e-05 5.55e-06 1.89e-06 
     4 1 1.91e-06  370 3.65e-05 1.40e-05 1.04e-05 1.91e-06 
     5 1 1.46e-06  370 3.01e-05 8.20e-06 4.52e-05 1.46e-06 
     6 1 1.56e-06  370 5.75e-05 8.42e-05 2.63e-05 1.56e-06 
     7 1 1.59e-06  370 8.19e-05 6.73e-05 1.04e-05 1.59e-06 
     8 1 1.41e-06  370 7.24e-06 3.73e-05 4.53e-05 1.41e-06 
     9 1 1.68e-06  370 2.59e-05 6.23e-05 3.26e-05 1.68e-06 
     10 1 1.60e-06  370 1.96e-05 5.87e-05 4.56e-05 1.60e-06 
     11 1 1.57e-06  370 7.52e-05 7.80e-05 8.97e-06 1.57e-06 
     12 1 1.71e-06  370 2.96e-05 9.65e-05 2.35e-05 1.71e-06 
     13 1 1.91e-06  370 1.55e-05 1.24e-05 4.45e-05 1.91e-06 
     14 1 1.92e-06  370 2.57e-05 7.36e-05 4.08e-05 1.92e-06 
     15 1 1.76e-06  370 9.15e-05 8.89e-05 1.50e-05 1.76e-06 
     16 1 1.65e-06  370 1.61e-05 6.86e-05 2.52e-06 1.65e-06 
     17 1 1.67e-06  370 7.36e-05 5.11e-05 4.34e-05 1.67e-06 
     18 1 1.92e-06  370 4.56e-05 2.00e-05 1.97e-06 1.92e-06 
     19 1 1.69e-06  370 9.60e-05 1.17e-05 3.19e-05 1.69e-06 
     20 1 1.42e-06  370 7.49e-05 2.78e-05 4.77e-05 1.42e-06 
     21 1 1.54e-06  370 6.43e-05 7.42e-05 3.90e-05 1.54e-06 
     22 1 1.80e-06  370 5.75e-05 7.45e-05 8.96e-06 1.80e-06 
     23 1 1.79e-06  370 7.45e-06 8.37e-05 3.48e-05 1.79e-06 
     24 1 1.78e-06  370 4.55e-05 7.54e-05 1.62e-05 1.78e-06 
     25 1 1.38e-06  370 3.03e-05 2.85e-05 2.33e-05 1.38e-06 
     26 1 1.89e-06  370 5.27e-05 4.04e-05 2.93e-05 1.89e-06 
     27 1 1.88e-06  370 5.71e-05 5.40e-05 1.66e-05 1.88e-06 
     28 1 1.42e-06  370 6.48e-05 3.20e-05 2.10e-06 1.42e-06 
     29 1 1.83e-06  370 3.51e-05 5.09e-05 1.55e-05 1.83e-06 
     30 1 1.56e-06  370 9.65e-05 9.19e-05 2.19e-05 1.56e-06 
     31 1 1.59e-06  370 8.13e-05 6.44e-05 2.52e-05 1.59e-06 
     32 1 1.75e-06  370 3.88e-05 1.34e-05 1.57e-05 1.75e-06 
     33 1 1.50e-06  370 2.69e-05 2.58e-05 1.66e-05 1.50e-06 
     34 1 1.40e-06  370 2.46e-05 4.21e-05 4.61e-05 1.40e-06 
     35 1 1.49e-06  370 6.90e-05 8.82e-05 2.20e-05 1.49e-06 
     36 1 1.50e-06  370 5.41e-05 1.31e-05 3.71e-05 1.50e-06 
     37 1 1.74e-06  370 3.54e-05 2.36e-05 2.58e-05 1.74e-06 
     38 1 1.73e-06  370 8.90e-06 6.33e-05 4.57e-05 1.73e-06 
     39 1 1.70e-06  370 9.64e-06 7.61e-05 1.32e-05 1.70e-06 
     40 1 1.90e-06  370 5.54e-05 2.13e-05 2.44e-05 1.90e-06 
     41 1 1.63e-06  370 3.11e-05 3.64e-05 4.05e-05 1.63e-06 
     42 1 1.65e-06  370 7.01e-05 3.61e-05 3.84e-05 1.65e-06 
     43 1 1.81e-06  370 3.20e-05 5.02e-06 3.46e-05 1.81e-06 
     44 1 1.93e-06  370 3.67e-05 5.34e-06 2.91e-05 1.93e-06 
     45 1 1.87e-06  370 4.44e-05 5.48e-05 4.48e-05 1.87e-06 
     46 1 1.89e-06  370 6.46e-05 4.41e-05 1.14e-05 1.89e-06 
     47 1 1.70e-06  370 2.33e-05 8.54e-05 2.24e-05 1.70e-06 
     48 1 1.44e-06  370 6.43e-05 3.37e-05 1.56e-05 1.44e-06 
     49 1 1.49e-06  370 5.92e-05 2.19e-05 2.70e-05 1.49e-06 
     50 1 1.85e-06  370 3.26e-05 5.32e-05 9.23e-06 1.85e-06 

 Nutrients 

     1 sub g nn nn nn 1.00e-01 1.00e-01 
     2 o2 l nn nn nd 9.00e-03 9.00e-03 
     3 suc l nn nn nn 3.42e-20 3.42e-20 
     4 co2 l nn nn nd 2.99e-02 2.99e-02 

 Type Name 

     1 cyano  
     2 ecw  

 Diffusion Coeffs 

     sub 0 
     o2 2.3e-09 
     suc 5.2e-10 
     co2 1.9e-09 

 Growth Rate 

     cyano 2.047e-05 
     ecw 6.71e-05 

 Ks 

     cyano 0.00035 0.0002 0.01 0.000138 
     ecw 0 0.001 3.6 0.05 

 Yield 

     cyano 0.55 
     ecw 0.43 

 Maintenance 

     cyano 0 
     ecw 9.5e-07 

 Decay 

     cyano 0 
     ecw 0 



