LAMMPS (20 Nov 2019)
Reading data file ...
  orthogonal box = (0 0 0) to (0.0001 0.0001 5e-05)
  2 by 2 by 2 MPI processor grid
  reading atoms ...
  50 atoms
  4 nutrients
Lattice spacing in x,y,z = 100 100 100
50 atoms in group CYANO
0 atoms in group ECW
Model is defined as a closed system. 
Neighbor list info ...
  update every 1 steps, delay 0 steps, check yes
  max neighbors/atom: 5000, page size: 100000
  master list distance cutoff = 2.38e-06
  ghost atom cutoff = 2.38e-06
  binsize = 1.19e-06, bins = 85 85 43
  1 neighbor lists, perpetual/occasional/extra = 1 0 0
  (1) pair gran/hooke/history, perpetual
      attributes: half, newton off, size, history
      pair build: half/size/bin/newtoff
      stencil: half/bin/3d/newtoff
      bin: standard
Setting up Verlet run ...
  Unit style    : lj
  Current step  : 0
  Time step     : 10
Per MPI rank memory allocation (min/avg/max) = 6.981 | 10.96 | 12.37 Mbytes
Step CPU Atoms c_myNtypes[1] c_myNtypes[2] c_myMass[1] c_myMass[2] c_myCon[1] c_myCon[2] c_myCon[3] c_myCon[4] 
       0            0       50           50            0 4.4883545e-14            0          0.1        0.009     3.42e-20       0.0299 
number of iterations: 328303 
     100    4.9215098       50           50            0 4.5667309e-14            0          0.1 0.0090033416  0.006226935  0.029894436 
number of iterations: 24407 
     200    5.4976017       50           50            0 4.646476e-14            0          0.1    0.0090034  0.012364494  0.029894339 
number of iterations: 24498 
     300    6.0738392       50           50            0 4.7276137e-14            0          0.1 0.0090034594  0.018608406   0.02989424 
number of iterations: 24590 
     400    6.6684029       50           50            0 4.8101681e-14            0          0.1 0.0090035198   0.02496095   0.02989414 
number of iterations: 24681 
     500    7.2561689       50           50            0 4.8941642e-14            0          0.1 0.0090035813  0.031424166  0.029894037 
number of iterations: 24773 
     600    7.8450752       50           50            0 4.979627e-14            0          0.1 0.0090036438  0.038000096  0.029893933 
number of iterations: 24865 
     700    8.4450556       50           50            0 5.0665821e-14            0          0.1 0.0090037074   0.04469075  0.029893827 
number of iterations: 24957 
     800    9.0525272       50           50            0 5.1550557e-14            0          0.1 0.0090037722  0.051498154   0.02989372 
number of iterations: 26547 
     900    9.6646437       51           51            0 5.2450742e-14            0          0.1 0.0090038573  0.058424367  0.029893578 
number of iterations: 25170 
    1000     10.24751       52           52            0 5.3366647e-14            0          0.1 0.0090039246  0.065471469  0.029893466 
number of iterations: 25261 
    1100    10.842757       54           54            0 5.4298545e-14            0          0.1 0.0090039932   0.07264158  0.029893352 
number of iterations: 25353 
    1200    11.435455       56           56            0 5.5246716e-14            0          0.1 0.0090040629  0.079936853  0.029893235 
number of iterations: 25445 
    1300    12.031594       57           57            0 5.6211444e-14            0          0.1 0.0090041338   0.08735948  0.029893117 
number of iterations: 25537 
    1400    12.636195       58           58            0 5.7193018e-14            0          0.1  0.009004206  0.094911688  0.029892997 
number of iterations: 26317 
    1500    13.316088       60           60            0 5.8191733e-14            0          0.1 0.0090042872   0.10259573  0.029892862 
number of iterations: 25232 
    1600    13.987738       62           62            0 5.9207887e-14            0          0.1 0.0090043568   0.11041393  0.029892746 
number of iterations: 25842 
    1700    14.622125       65           65            0 6.0241786e-14            0          0.1 0.0090044329   0.11836863  0.029892619 
number of iterations: 25910 
    1800    15.207139       66           66            0 6.1293739e-14            0          0.1 0.0090045103    0.1264622   0.02989249 
number of iterations: 26002 
    1900    15.873856       68           68            0 6.2364061e-14            0          0.1 0.0090045891   0.13469709  0.029892359 
number of iterations: 26094 
    2000    16.496441       68           68            0 6.3453073e-14            0          0.1 0.0090046692   0.14307576  0.029892226 
number of iterations: 26208 
    2100    17.092658       69           69            0 6.4561102e-14            0          0.1 0.0090047508   0.15160072   0.02989209 
number of iterations: 26278 
    2200    17.727142       69           69            0 6.5688479e-14            0          0.1 0.0090048337   0.16027452  0.029891952 
number of iterations: 26370 
    2300    18.354215       69           69            0 6.6835543e-14            0          0.1 0.0090049181   0.16909977  0.029891811 
number of iterations: 26463 
    2400    19.014338       70           70            0 6.8002637e-14            0          0.1  0.009005004   0.17807911  0.029891668 
number of iterations: 26555 
    2500    19.632377       71           71            0 6.9190111e-14            0          0.1 0.0090050914   0.18721523  0.029891523 
number of iterations: 26647 
    2600    20.269505       71           71            0 7.0398321e-14            0          0.1 0.0090051803   0.19651088  0.029891375 
number of iterations: 26739 
    2700    20.887649       72           72            0 7.1627629e-14            0          0.1 0.0090052708   0.20596883  0.029891224 
number of iterations: 26831 
    2800    21.505357       74           74            0 7.2878403e-14            0          0.1 0.0090053628   0.21559193  0.029891071 
number of iterations: 26923 
    2900    22.118186       74           74            0 7.4151018e-14            0          0.1 0.0090054565   0.22538305  0.029890915 
number of iterations: 27016 
    3000    22.758192       75           75            0 7.5445856e-14            0          0.1 0.0090055518   0.23534514  0.029890756 
number of iterations: 27108 
    3100    23.382256       76           76            0 7.6763304e-14            0          0.1 0.0090056487   0.24548117  0.029890595 
number of iterations: 27200 
    3200    24.058812       77           77            0 7.8103758e-14            0          0.1 0.0090057473   0.25579419  0.029890431 
number of iterations: 27292 
    3300    24.713739       77           77            0 7.9467619e-14            0          0.1 0.0090058477   0.26628728  0.029890264 
number of iterations: 27385 
    3400    25.358503       77           77            0 8.0855297e-14            0          0.1 0.0090059498   0.27696359  0.029890094 
number of iterations: 27477 
    3500    25.979117       78           78            0 8.2267205e-14            0          0.1 0.0090060537   0.28782633  0.029889921 
number of iterations: 22157 
    3600    26.557577       79           79            0 8.3703769e-14            0          0.1 0.0090060896    0.2988787  0.029889861 
number of iterations: 27600 
    3700    27.260461       80           80            0 8.5165419e-14            0          0.1  0.009006196   0.31012406  0.029889684 
number of iterations: 27694 
    3800    27.971421       80           80            0 8.6652592e-14            0          0.1 0.0090063042   0.32156578  0.029889504 
number of iterations: 27775 
    3900    28.714997       83           83            0 8.8165734e-14            0          0.1 0.0090064142   0.33320729   0.02988932 
number of iterations: 27879 
    4000    29.397448       84           84            0 8.9705298e-14            0          0.1 0.0090065263   0.34505208  0.029889134 
number of iterations: 27969 
    4100    30.054203       87           87            0 9.1271747e-14            0          0.1 0.0090066402   0.35710369  0.029888944 
number of iterations: 28063 
    4200    30.769015       87           87            0 9.286555e-14            0          0.1 0.0090067562   0.36936573  0.029888751 
number of iterations: 28156 
    4300    31.412921       88           88            0 9.4487183e-14            0          0.1 0.0090068742   0.38184189  0.029888554 
number of iterations: 28248 
    4400     32.06753       91           91            0 9.6137134e-14            0          0.1 0.0090069942    0.3945359  0.029888355 
number of iterations: 27918 
    4500    32.701319       92           92            0 9.7815896e-14            0          0.1 0.0090071092   0.40745159  0.029888163 
number of iterations: 28429 
    4600    33.386838       96           96            0 9.9523973e-14            0          0.1 0.0090072334   0.42059281  0.029887956 
number of iterations: 28519 
    4700    34.071552      100          100            0 1.0126188e-13            0          0.1 0.0090073597    0.4339635  0.029887746 
number of iterations: 28611 
    4800     34.72485      103          103            0 1.0303013e-13            0          0.1 0.0090074882   0.44756766  0.029887532 
number of iterations: 28704 
    4900    35.360587      106          106            0 1.0482926e-13            0          0.1  0.009007619   0.46140938  0.029887314 
number of iterations: 28796 
    5000    36.020698      108          108            0 1.066598e-13            0          0.1  0.009007752   0.47549279  0.029887093 
number of iterations: 30649 
    5100    36.736327      112          112            0 1.0852231e-13            0          0.1 0.0090079402   0.48982215  0.029886779 
number of iterations: 29017 
    5200    37.406028      114          114            0 1.1041735e-13            0          0.1 0.0090080789   0.50440173  0.029886548 
number of iterations: 29110 
    5300    38.070907      116          116            0 1.1234547e-13            0          0.1   0.00900822   0.51923589  0.029886314 
number of iterations: 29206 
    5400    38.773138      118          118            0 1.1430727e-13            0          0.1 0.0090083635   0.53432908  0.029886075 
number of iterations: 29303 
    5500    39.468941      121          121            0 1.1630332e-13            0          0.1 0.0090085096   0.54968582  0.029885831 
number of iterations: 29388 
    5600    40.162713      121          121            0 1.1833422e-13            0          0.1 0.0090086581   0.56531072  0.029885584 
number of iterations: 29480 
    5700    40.827969      124          124            0 1.2040059e-13            0          0.1 0.0090088093   0.58120845  0.029885332 
number of iterations: 29571 
    5800    41.497239      125          125            0 1.2250305e-13            0          0.1 0.0090089632   0.59738376  0.029885076 
number of iterations: 29666 
    5900    42.170456      125          125            0 1.2464221e-13            0          0.1 0.0090091197   0.61384152  0.029884815 
number of iterations: 29758 
    6000     42.84275      126          126            0 1.2681873e-13            0          0.1  0.009009279   0.63058666   0.02988455 
number of iterations: 29851 
    6100    43.501874      127          127            0 1.2903326e-13            0          0.1  0.009009441   0.64762419   0.02988428 
number of iterations: 29945 
    6200     44.22969      128          128            0 1.3128646e-13            0          0.1 0.0090096058   0.66495924  0.029884006 
number of iterations: 30036 
    6300     44.91092      129          129            0  1.33579e-13            0          0.1 0.0090097736   0.68259698  0.029883727 
number of iterations: 30129 
    6400    45.599952      131          131            0 1.3591158e-13            0          0.1 0.0090099443   0.70054271  0.029883442 
number of iterations: 29681 
    6500    46.261135      133          133            0 1.3828489e-13            0          0.1 0.0090101044   0.71880175  0.029883176 
number of iterations: 30306 
    6600    46.936019      134          134            0 1.4069964e-13            0          0.1 0.0090102809   0.73737962  0.029882882 
number of iterations: 30398 
    6700      47.6391      135          135            0 1.4315656e-13            0          0.1 0.0090104604    0.7562819  0.029882583 
number of iterations: 30720 
    6800    48.343685      141          141            0 1.4565638e-13            0          0.1 0.0090106493   0.77551422  0.029882269 
number of iterations: 31199 
    6900    49.111553      146          146            0 1.4819985e-13            0          0.1 0.0090108582   0.79508239  0.029881921 
number of iterations: 30692 
    7000    49.848444      146          146            0 1.5078774e-13            0          0.1 0.0090110478   0.81499226  0.029881605 
number of iterations: 30781 
    7100    50.603593      149          149            0 1.5342081e-13            0          0.1 0.0090112407   0.83524979  0.029881284 
number of iterations: 30245 
    7200    51.331654      153          153            0 1.5609987e-13            0          0.1 0.0090114192   0.85586104  0.029880987 
number of iterations: 30960 
    7300    52.062487      154          154            0 1.588257e-13            0          0.1 0.0090116186    0.8768322  0.029880655 
number of iterations: 31053 
    7400    52.805952      157          157            0 1.6159914e-13            0          0.1 0.0090118215   0.89816956  0.029880317 
number of iterations: 31145 
    7500    53.550151      160          160            0 1.6442101e-13            0          0.1 0.0090120279   0.91987951  0.029879973 
number of iterations: 31238 
    7600    54.338114      163          163            0 1.6729215e-13            0          0.1 0.0090122379   0.94196855  0.029879623 
number of iterations: 31331 
    7700    55.107515      164          164            0 1.7021343e-13            0          0.1 0.0090124516   0.96444331  0.029879267 
number of iterations: 31424 
    7800    55.869348      166          166            0 1.7318572e-13            0          0.1 0.0090126691   0.98731049  0.029878905 
number of iterations: 31517 
    7900    56.631384      170          170            0 1.7620991e-13            0          0.1 0.0090128903     1.010577  0.029878537 
number of iterations: 31787 
    8000    57.420497      178          178            0 1.7928691e-13            0          0.1 0.0090131214    1.0342497  0.029878152 
number of iterations: 31703 
    8100    58.239191      179          179            0 1.8241764e-13            0          0.1 0.0090133505    1.0583358  0.029877771 
number of iterations: 31387 
    8200    59.088232      185          185            0 1.8560304e-13            0          0.1 0.0090135697    1.0828424  0.029877406 
number of iterations: 31887 
    8300    59.996504      187          187            0 1.8884406e-13            0          0.1 0.0090138066     1.107777  0.029877011 
number of iterations: 31978 
    8400    60.860149      189          189            0 1.9214168e-13            0          0.1 0.0090140477     1.133147   0.02987661 
number of iterations: 31375 
    8500    62.138281      192          192            0 1.9549688e-13            0          0.1 0.0090142627    1.1589599  0.029876252 
number of iterations: 31509 
    8600    62.941806      196          196            0 1.9891067e-13            0          0.1 0.0090144834    1.1852236  0.029875884 
number of iterations: 32400 
    8700    63.791047      203          203            0 2.0238407e-13            0          0.1 0.0090147424    1.2119458  0.029875453 
number of iterations: 32330 
    8800    64.611611      206          206            0 2.0591813e-13            0          0.1 0.0090149999    1.2391347  0.029875024 
number of iterations: 32854 
    8900    65.377721      208          208            0 2.095139e-13            0          0.1 0.0090152812    1.2667983  0.029874556 
number of iterations: 32525 
    9000    66.171059      210          210            0 2.1317245e-13            0          0.1 0.0090155481     1.294945  0.029874112 
number of iterations: 32617 
    9100    66.941423      213          213            0 2.1689489e-13            0          0.1 0.0090158196    1.3235832  0.029873659 
number of iterations: 32296 
    9200    67.675326      215          215            0 2.2068234e-13            0          0.1 0.0090160774    1.3527215   0.02987323 
number of iterations: 32795 
    9300    68.463506      219          219            0 2.2453592e-13            0          0.1 0.0090163581    1.3823686  0.029872763 
number of iterations: 33200 
    9400    69.336499      226          226            0 2.2845679e-13            0          0.1 0.0090166577    1.4125334  0.029872264 
number of iterations: 32388 
    9500    70.086159      227          227            0 2.3244613e-13            0          0.1 0.0090169175    1.4432249  0.029871831 
number of iterations: 33071 
    9600    70.856907      229          229            0 2.3650512e-13            0          0.1 0.0090172129    1.4744523  0.029871339 
number of iterations: 33165 
    9700    71.633043      234          234            0  2.40635e-13            0          0.1 0.0090175135     1.506225  0.029870839 
number of iterations: 33257 
    9800    72.415796      239          239            0  2.44837e-13            0          0.1 0.0090178193    1.5385525   0.02987033 
number of iterations: 33351 
    9900    73.263493      244          244            0 2.4911236e-13            0          0.1 0.0090181305    1.5714445  0.029869812 
number of iterations: 33445 
   10000     74.12312      252          252            0 2.5346239e-13            0          0.1 0.0090184471    1.6049109  0.029869284 
Loop time of 74.1232 on 8 procs for 10000 steps with 252 atoms

Performance: 116562743.387 tau/day, 134.911 timesteps/s
88.2% CPU use with 8 MPI tasks x no OpenMP threads

MPI task timing breakdown:
Section |  min time  |  avg time  |  max time  |%varavg| %total
---------------------------------------------------------------
Pair    | 0.0080402  | 0.010505   | 0.012359   |   1.2 |  0.01
Neigh   | 0.0074673  | 0.0088212  | 0.010078   |   1.2 |  0.01
Comm    | 0.042052   | 0.058258   | 0.080891   |   6.3 |  0.08
Output  | 12.582     | 12.582     | 12.585     |   0.0 | 16.97
Modify  | 61.389     | 61.39      | 61.391     |   0.0 | 82.82
Other   |            | 0.07352    |            |       |  0.10

Nlocal:    31.5 ave 55 max 7 min
Histogram: 1 0 0 2 1 0 2 1 0 1
Nghost:    9.625 ave 21 max 4 min
Histogram: 2 2 1 0 1 0 0 1 0 1
Neighs:    35.25 ave 61 max 6 min
Histogram: 1 0 0 2 1 0 1 2 0 1

Total # of neighbors = 282
Ave neighs/atom = 1.11905
Neighbor list builds = 117
Dangerous builds = 0
Total wall time: 0:01:14
