ITEM: TIMESTEP
0
ITEM: NUMBER OF ATOMS
50
ITEM: BOX BOUNDS ff ff ff
0.0000000000000000e+00 1.0000000000000000e-04
0.0000000000000000e+00 1.0000000000000000e-04
0.0000000000000000e+00 5.0000000000000002e-05
ITEM: ATOMS id type diameter x y z 
44 1 1.44e-06 4.03e-05 4.74e-05 7.48e-06 
38 1 1.6e-06 1.57e-05 2.07e-05 1.57e-05 
20 1 1.75e-06 4.98e-05 1.05e-05 2.44e-05 
14 1 1.46e-06 2.66e-05 2.22e-05 2.59e-05 
24 1 1.81e-06 7.58e-06 1.61e-05 2.7e-05 
18 1 1.68e-06 4.86e-05 2.33e-05 2.8e-05 
23 1 1.77e-06 3.9e-05 4.24e-05 3.65e-05 
16 1 1.52e-06 1.99e-05 1.2e-05 3.74e-05 
47 1 1.61e-06 1.13e-05 3.74e-05 3.95e-05 
19 1 1.56e-06 3e-05 4.14e-05 4.26e-05 
49 1 1.54e-06 4.11e-05 4.42e-06 4.54e-05 
25 1 1.4e-06 4.74e-05 6.91e-05 4.32e-06 
37 1 1.86e-06 1.54e-05 8.35e-05 6.8e-06 
39 1 1.79e-06 4.98e-05 6.4e-05 7.04e-06 
21 1 1.44e-06 4.53e-05 9.58e-05 7.98e-06 
17 1 1.53e-06 4.77e-05 7.68e-05 1.22e-05 
9 1 1.77e-06 3.48e-05 7.37e-05 2.35e-05 
10 1 1.79e-06 3.1e-05 7.67e-05 2.35e-05 
41 1 1.57e-06 3.87e-05 6.11e-05 2.44e-05 
28 1 1.56e-06 1.54e-05 9.17e-05 3.1e-05 
3 1 1.84e-06 4.98e-05 9.27e-05 3.91e-05 
32 1 1.52e-06 8.59e-05 3.03e-05 5.18e-06 
35 1 1.83e-06 8.24e-05 4.98e-05 6.38e-06 
12 1 1.8e-06 8.9e-05 1.43e-05 9.54e-06 
29 1 1.58e-06 7.02e-05 2.28e-05 1.1e-05 
7 1 1.65e-06 7.31e-05 4.11e-05 1.41e-05 
8 1 1.78e-06 5.15e-05 4.45e-05 1.92e-05 
46 1 1.88e-06 5.96e-05 2.29e-05 3.06e-05 
6 1 1.58e-06 8.17e-05 3.43e-05 3.24e-05 
2 1 1.42e-06 8.61e-05 3.5e-05 3.67e-05 
27 1 1.79e-06 8.85e-05 4.76e-05 3.7e-05 
26 1 1.58e-06 9.33e-05 1.08e-05 3.79e-05 
33 1 1.38e-06 6.76e-05 3.98e-05 4.12e-05 
36 1 1.69e-06 8.33e-05 2.63e-05 4.34e-05 
34 1 1.68e-06 7.41e-05 9.39e-05 5.32e-06 
45 1 1.81e-06 8.83e-05 7.31e-05 1.05e-05 
31 1 1.8e-06 6.44e-05 8.2e-05 1.39e-05 
48 1 1.85e-06 6.88e-05 9.1e-05 1.47e-05 
40 1 1.5e-06 9.56e-05 6.27e-05 1.89e-05 
30 1 1.64e-06 6.07e-05 9.68e-05 1.87e-05 
42 1 1.62e-06 7.64e-05 5.59e-05 2.22e-05 
43 1 1.53e-06 5.2e-05 8.86e-05 2.3e-05 
50 1 1.86e-06 7.62e-05 8.34e-05 3.19e-05 
5 1 1.71e-06 6.13e-05 6.7e-05 3.29e-05 
1 1 1.47e-06 9.39e-05 9.26e-05 4.05e-05 
13 1 1.72e-06 7.36e-05 5.16e-05 4.13e-05 
4 1 1.87e-06 8.38e-05 8.26e-05 4.31e-05 
15 1 1.39e-06 8.96e-05 5.33e-05 4.39e-05 
11 1 1.82e-06 8.55e-05 7.6e-05 4.5e-05 
22 1 1.66e-06 7.54e-05 5.19e-05 4.74e-05 
ITEM: TIMESTEP
100
ITEM: NUMBER OF ATOMS
50
ITEM: BOX BOUNDS ff ff ff
0.0000000000000000e+00 1.0000000000000000e-04
0.0000000000000000e+00 1.0000000000000000e-04
0.0000000000000000e+00 5.0000000000000002e-05
ITEM: ATOMS id type diameter x y z 
44 1 1.44833e-06 4.03e-05 4.74e-05 7.48e-06 
38 1 1.60926e-06 1.57e-05 2.07e-05 1.57e-05 
20 1 1.76013e-06 4.98e-05 1.05e-05 2.44e-05 
14 1 1.46845e-06 2.66e-05 2.22e-05 2.59e-05 
24 1 1.82047e-06 7.58e-06 1.61e-05 2.7e-05 
18 1 1.68972e-06 4.86e-05 2.33e-05 2.8e-05 
23 1 1.78024e-06 3.9e-05 4.24e-05 3.65e-05 
16 1 1.5288e-06 1.99e-05 1.2e-05 3.74e-05 
47 1 1.61932e-06 1.13e-05 3.74e-05 3.95e-05 
19 1 1.56903e-06 3e-05 4.14e-05 4.26e-05 
49 1 1.54891e-06 4.11e-05 4.42e-06 4.54e-05 
25 1 1.4081e-06 4.74e-05 6.91e-05 4.32e-06 
37 1 1.87076e-06 1.54e-05 8.35e-05 6.8e-06 
39 1 1.80036e-06 4.98e-05 6.4e-05 7.04e-06 
21 1 1.44833e-06 4.53e-05 9.58e-05 7.98e-06 
17 1 1.53885e-06 4.77e-05 7.68e-05 1.22e-05 
9 1 1.78024e-06 3.48e-05 7.37e-05 2.35e-05 
10 1 1.80036e-06 3.1e-05 7.67e-05 2.35e-05 
41 1 1.57909e-06 3.87e-05 6.11e-05 2.44e-05 
28 1 1.56903e-06 1.54e-05 9.17e-05 3.1e-05 
3 1 1.85065e-06 4.98e-05 9.27e-05 3.91e-05 
32 1 1.5288e-06 8.59e-05 3.03e-05 5.18e-06 
35 1 1.84059e-06 8.24e-05 4.98e-05 6.38e-06 
12 1 1.81042e-06 8.9e-05 1.43e-05 9.54e-06 
29 1 1.58914e-06 7.02e-05 2.28e-05 1.1e-05 
7 1 1.65955e-06 7.31e-05 4.11e-05 1.41e-05 
8 1 1.7903e-06 5.15e-05 4.45e-05 1.92e-05 
46 1 1.89088e-06 5.96e-05 2.29e-05 3.06e-05 
6 1 1.58914e-06 8.17e-05 3.43e-05 3.24e-05 
2 1 1.42822e-06 8.61e-05 3.5e-05 3.67e-05 
27 1 1.80036e-06 8.85e-05 4.76e-05 3.7e-05 
26 1 1.58914e-06 9.33e-05 1.08e-05 3.79e-05 
33 1 1.38799e-06 6.76e-05 3.98e-05 4.12e-05 
36 1 1.69978e-06 8.33e-05 2.63e-05 4.34e-05 
34 1 1.68972e-06 7.41e-05 9.39e-05 5.32e-06 
45 1 1.82047e-06 8.83e-05 7.31e-05 1.05e-05 
31 1 1.81042e-06 6.44e-05 8.2e-05 1.39e-05 
48 1 1.86071e-06 6.88e-05 9.1e-05 1.47e-05 
40 1 1.50868e-06 9.56e-05 6.27e-05 1.89e-05 
30 1 1.64949e-06 6.07e-05 9.68e-05 1.87e-05 
42 1 1.62938e-06 7.64e-05 5.59e-05 2.22e-05 
43 1 1.53885e-06 5.2e-05 8.86e-05 2.3e-05 
50 1 1.87076e-06 7.62e-05 8.34e-05 3.19e-05 
5 1 1.7199e-06 6.13e-05 6.7e-05 3.29e-05 
1 1 1.47851e-06 9.39e-05 9.26e-05 4.05e-05 
13 1 1.72995e-06 7.36e-05 5.16e-05 4.13e-05 
4 1 1.88082e-06 8.38e-05 8.26e-05 4.31e-05 
15 1 1.39804e-06 8.96e-05 5.33e-05 4.39e-05 
11 1 1.83053e-06 8.55e-05 7.6e-05 4.5e-05 
22 1 1.66961e-06 7.54e-05 5.19e-05 4.74e-05 
ITEM: TIMESTEP
200
ITEM: NUMBER OF ATOMS
50
ITEM: BOX BOUNDS ff ff ff
0.0000000000000000e+00 1.0000000000000000e-04
0.0000000000000000e+00 1.0000000000000000e-04
0.0000000000000000e+00 5.0000000000000002e-05
ITEM: ATOMS id type diameter x y z 
44 1 1.45672e-06 4.03e-05 4.74e-05 7.48e-06 
38 1 1.61857e-06 1.57e-05 2.07e-05 1.57e-05 
20 1 1.77031e-06 4.98e-05 1.05e-05 2.44e-05 
14 1 1.47695e-06 2.66e-05 2.22e-05 2.59e-05 
24 1 1.83101e-06 7.58e-06 1.61e-05 2.7e-05 
18 1 1.6995e-06 4.86e-05 2.33e-05 2.8e-05 
23 1 1.79055e-06 3.9e-05 4.24e-05 3.65e-05 
16 1 1.53764e-06 1.99e-05 1.2e-05 3.74e-05 
47 1 1.62869e-06 1.13e-05 3.74e-05 3.95e-05 
19 1 1.57811e-06 3e-05 4.14e-05 4.26e-05 
49 1 1.55788e-06 4.11e-05 4.42e-06 4.54e-05 
25 1 1.41625e-06 4.74e-05 6.91e-05 4.32e-06 
37 1 1.88159e-06 1.54e-05 8.35e-05 6.8e-06 
39 1 1.81078e-06 4.98e-05 6.4e-05 7.04e-06 
21 1 1.45672e-06 4.53e-05 9.58e-05 7.98e-06 
17 1 1.54776e-06 4.77e-05 7.68e-05 1.22e-05 
9 1 1.79055e-06 3.48e-05 7.37e-05 2.35e-05 
10 1 1.81078e-06 3.1e-05 7.67e-05 2.35e-05 
41 1 1.58822e-06 3.87e-05 6.11e-05 2.44e-05 
28 1 1.57811e-06 1.54e-05 9.17e-05 3.1e-05 
3 1 1.86136e-06 4.98e-05 9.27e-05 3.91e-05 
32 1 1.53764e-06 8.59e-05 3.03e-05 5.18e-06 
35 1 1.85124e-06 8.24e-05 4.98e-05 6.38e-06 
12 1 1.82089e-06 8.9e-05 1.43e-05 9.54e-06 
29 1 1.59834e-06 7.02e-05 2.28e-05 1.1e-05 
7 1 1.66915e-06 7.31e-05 4.11e-05 1.41e-05 
8 1 1.80066e-06 5.15e-05 4.45e-05 1.92e-05 
46 1 1.90182e-06 5.96e-05 2.29e-05 3.06e-05 
6 1 1.59834e-06 8.17e-05 3.43e-05 3.24e-05 
2 1 1.43648e-06 8.61e-05 3.5e-05 3.67e-05 
27 1 1.81078e-06 8.85e-05 4.76e-05 3.7e-05 
26 1 1.59834e-06 9.33e-05 1.08e-05 3.79e-05 
33 1 1.39602e-06 6.76e-05 3.98e-05 4.12e-05 
36 1 1.70962e-06 8.33e-05 2.63e-05 4.34e-05 
34 1 1.6995e-06 7.41e-05 9.39e-05 5.32e-06 
45 1 1.83101e-06 8.83e-05 7.31e-05 1.05e-05 
31 1 1.82089e-06 6.44e-05 8.2e-05 1.39e-05 
48 1 1.87147e-06 6.88e-05 9.1e-05 1.47e-05 
40 1 1.51741e-06 9.56e-05 6.27e-05 1.89e-05 
30 1 1.65904e-06 6.07e-05 9.68e-05 1.87e-05 
42 1 1.6388e-06 7.64e-05 5.59e-05 2.22e-05 
43 1 1.54776e-06 5.2e-05 8.86e-05 2.3e-05 
50 1 1.88159e-06 7.62e-05 8.34e-05 3.19e-05 
5 1 1.72985e-06 6.13e-05 6.7e-05 3.29e-05 
1 1 1.48706e-06 9.39e-05 9.26e-05 4.05e-05 
13 1 1.73997e-06 7.36e-05 5.16e-05 4.13e-05 
4 1 1.89171e-06 8.38e-05 8.26e-05 4.31e-05 
15 1 1.40613e-06 8.96e-05 5.33e-05 4.39e-05 
11 1 1.84113e-06 8.55e-05 7.6e-05 4.5e-05 
22 1 1.67927e-06 7.54e-05 5.19e-05 4.74e-05 
ITEM: TIMESTEP
300
ITEM: NUMBER OF ATOMS
50
ITEM: BOX BOUNDS ff ff ff
0.0000000000000000e+00 1.0000000000000000e-04
0.0000000000000000e+00 1.0000000000000000e-04
0.0000000000000000e+00 5.0000000000000002e-05
ITEM: ATOMS id type diameter x y z 
44 1 1.46515e-06 4.03e-05 4.74e-05 7.48e-06 
38 1 1.62794e-06 1.57e-05 2.07e-05 1.57e-05 
20 1 1.78056e-06 4.98e-05 1.05e-05 2.44e-05 
14 1 1.48549e-06 2.66e-05 2.22e-05 2.59e-05 
24 1 1.84161e-06 7.58e-06 1.61e-05 2.7e-05 
18 1 1.70934e-06 4.86e-05 2.33e-05 2.8e-05 
23 1 1.80091e-06 3.9e-05 4.24e-05 3.65e-05 
16 1 1.54654e-06 1.99e-05 1.2e-05 3.74e-05 
47 1 1.63811e-06 1.13e-05 3.74e-05 3.95e-05 
19 1 1.58724e-06 3e-05 4.14e-05 4.26e-05 
49 1 1.56689e-06 4.11e-05 4.42e-06 4.54e-05 
25 1 1.42445e-06 4.74e-05 6.91e-05 4.32e-06 
37 1 1.89248e-06 1.54e-05 8.35e-05 6.8e-06 
39 1 1.82126e-06 4.98e-05 6.4e-05 7.04e-06 
21 1 1.46515e-06 4.53e-05 9.58e-05 7.98e-06 
17 1 1.55672e-06 4.77e-05 7.68e-05 1.22e-05 
9 1 1.80091e-06 3.48e-05 7.37e-05 2.35e-05 
10 1 1.82126e-06 3.1e-05 7.67e-05 2.35e-05 
41 1 1.59742e-06 3.87e-05 6.11e-05 2.44e-05 
28 1 1.58724e-06 1.54e-05 9.17e-05 3.1e-05 
3 1 1.87213e-06 4.98e-05 9.27e-05 3.91e-05 
32 1 1.54654e-06 8.59e-05 3.03e-05 5.18e-06 
35 1 1.86196e-06 8.24e-05 4.98e-05 6.38e-06 
12 1 1.83143e-06 8.9e-05 1.43e-05 9.54e-06 
29 1 1.60759e-06 7.02e-05 2.28e-05 1.1e-05 
7 1 1.67881e-06 7.31e-05 4.11e-05 1.41e-05 
8 1 1.81108e-06 5.15e-05 4.45e-05 1.92e-05 
46 1 1.91283e-06 5.96e-05 2.29e-05 3.06e-05 
6 1 1.60759e-06 8.17e-05 3.43e-05 3.24e-05 
2 1 1.4448e-06 8.61e-05 3.5e-05 3.67e-05 
27 1 1.82126e-06 8.85e-05 4.76e-05 3.7e-05 
26 1 1.60759e-06 9.33e-05 1.08e-05 3.79e-05 
33 1 1.4041e-06 6.76e-05 3.98e-05 4.12e-05 
36 1 1.71951e-06 8.33e-05 2.63e-05 4.34e-05 
34 1 1.70934e-06 7.41e-05 9.39e-05 5.32e-06 
45 1 1.84161e-06 8.83e-05 7.31e-05 1.05e-05 
31 1 1.83143e-06 6.44e-05 8.2e-05 1.39e-05 
48 1 1.88231e-06 6.88e-05 9.1e-05 1.47e-05 
40 1 1.52619e-06 9.56e-05 6.27e-05 1.89e-05 
30 1 1.66864e-06 6.07e-05 9.68e-05 1.87e-05 
42 1 1.64829e-06 7.64e-05 5.59e-05 2.22e-05 
43 1 1.55672e-06 5.2e-05 8.86e-05 2.3e-05 
50 1 1.89248e-06 7.62e-05 8.34e-05 3.19e-05 
5 1 1.73986e-06 6.13e-05 6.7e-05 3.29e-05 
1 1 1.49567e-06 9.39e-05 9.26e-05 4.05e-05 
13 1 1.75003e-06 7.36e-05 5.16e-05 4.13e-05 
4 1 1.90265e-06 8.38e-05 8.26e-05 4.31e-05 
15 1 1.41427e-06 8.96e-05 5.33e-05 4.39e-05 
11 1 1.85178e-06 8.55e-05 7.6e-05 4.5e-05 
22 1 1.68899e-06 7.54e-05 5.19e-05 4.74e-05 
ITEM: TIMESTEP
400
ITEM: NUMBER OF ATOMS
50
ITEM: BOX BOUNDS ff ff ff
0.0000000000000000e+00 1.0000000000000000e-04
0.0000000000000000e+00 1.0000000000000000e-04
0.0000000000000000e+00 5.0000000000000002e-05
ITEM: ATOMS id type diameter x y z 
44 1 1.47362e-06 4.03e-05 4.74e-05 7.48e-06 
38 1 1.63736e-06 1.57e-05 2.07e-05 1.57e-05 
20 1 1.79086e-06 4.98e-05 1.05e-05 2.44e-05 
14 1 1.49409e-06 2.66e-05 2.22e-05 2.59e-05 
24 1 1.85226e-06 7.58e-06 1.61e-05 2.7e-05 
18 1 1.71923e-06 4.86e-05 2.33e-05 2.8e-05 
23 1 1.81133e-06 3.9e-05 4.24e-05 3.65e-05 
16 1 1.55549e-06 1.99e-05 1.2e-05 3.74e-05 
47 1 1.64759e-06 1.13e-05 3.74e-05 3.95e-05 
19 1 1.59643e-06 3e-05 4.14e-05 4.26e-05 
49 1 1.57596e-06 4.11e-05 4.42e-06 4.54e-05 
25 1 1.43269e-06 4.74e-05 6.91e-05 4.32e-06 
37 1 1.90343e-06 1.54e-05 8.35e-05 6.8e-06 
39 1 1.8318e-06 4.98e-05 6.4e-05 7.04e-06 
21 1 1.47362e-06 4.53e-05 9.58e-05 7.98e-06 
17 1 1.56573e-06 4.77e-05 7.68e-05 1.22e-05 
9 1 1.81133e-06 3.48e-05 7.37e-05 2.35e-05 
10 1 1.8318e-06 3.1e-05 7.67e-05 2.35e-05 
41 1 1.60666e-06 3.87e-05 6.11e-05 2.44e-05 
28 1 1.59643e-06 1.54e-05 9.17e-05 3.1e-05 
3 1 1.88296e-06 4.98e-05 9.27e-05 3.91e-05 
32 1 1.55549e-06 8.59e-05 3.03e-05 5.18e-06 
35 1 1.87273e-06 8.24e-05 4.98e-05 6.38e-06 
12 1 1.84203e-06 8.9e-05 1.43e-05 9.54e-06 
29 1 1.61689e-06 7.02e-05 2.28e-05 1.1e-05 
7 1 1.68853e-06 7.31e-05 4.11e-05 1.41e-05 
8 1 1.82156e-06 5.15e-05 4.45e-05 1.92e-05 
46 1 1.9239e-06 5.96e-05 2.29e-05 3.06e-05 
6 1 1.61689e-06 8.17e-05 3.43e-05 3.24e-05 
2 1 1.45316e-06 8.61e-05 3.5e-05 3.67e-05 
27 1 1.8318e-06 8.85e-05 4.76e-05 3.7e-05 
26 1 1.61689e-06 9.33e-05 1.08e-05 3.79e-05 
33 1 1.41222e-06 6.76e-05 3.98e-05 4.12e-05 
36 1 1.72946e-06 8.33e-05 2.63e-05 4.34e-05 
34 1 1.71923e-06 7.41e-05 9.39e-05 5.32e-06 
45 1 1.85226e-06 8.83e-05 7.31e-05 1.05e-05 
31 1 1.84203e-06 6.44e-05 8.2e-05 1.39e-05 
48 1 1.8932e-06 6.88e-05 9.1e-05 1.47e-05 
40 1 1.53503e-06 9.56e-05 6.27e-05 1.89e-05 
30 1 1.67829e-06 6.07e-05 9.68e-05 1.87e-05 
42 1 1.65783e-06 7.64e-05 5.59e-05 2.22e-05 
43 1 1.56573e-06 5.2e-05 8.86e-05 2.3e-05 
50 1 1.90343e-06 7.62e-05 8.34e-05 3.19e-05 
5 1 1.74993e-06 6.13e-05 6.7e-05 3.29e-05 
1 1 1.50433e-06 9.39e-05 9.26e-05 4.05e-05 
13 1 1.76016e-06 7.36e-05 5.16e-05 4.13e-05 
4 1 1.91367e-06 8.38e-05 8.26e-05 4.31e-05 
15 1 1.42246e-06 8.96e-05 5.33e-05 4.39e-05 
11 1 1.8625e-06 8.55e-05 7.6e-05 4.5e-05 
22 1 1.69876e-06 7.54e-05 5.19e-05 4.74e-05 
ITEM: TIMESTEP
500
ITEM: NUMBER OF ATOMS
50
ITEM: BOX BOUNDS ff ff ff
0.0000000000000000e+00 1.0000000000000000e-04
0.0000000000000000e+00 1.0000000000000000e-04
0.0000000000000000e+00 5.0000000000000002e-05
ITEM: ATOMS id type diameter x y z 
44 1 1.48215e-06 4.03e-05 4.74e-05 7.48e-06 
38 1 1.64684e-06 1.57e-05 2.07e-05 1.57e-05 
20 1 1.80123e-06 4.98e-05 1.05e-05 2.44e-05 
14 1 1.50274e-06 2.66e-05 2.22e-05 2.59e-05 
24 1 1.86298e-06 7.58e-06 1.61e-05 2.7e-05 
18 1 1.72918e-06 4.86e-05 2.33e-05 2.8e-05 
23 1 1.82181e-06 3.9e-05 4.24e-05 3.65e-05 
16 1 1.56449e-06 1.99e-05 1.2e-05 3.74e-05 
47 1 1.65713e-06 1.13e-05 3.74e-05 3.95e-05 
19 1 1.60567e-06 3e-05 4.14e-05 4.26e-05 
49 1 1.58508e-06 4.11e-05 4.42e-06 4.54e-05 
25 1 1.44098e-06 4.74e-05 6.91e-05 4.32e-06 
37 1 1.91445e-06 1.54e-05 8.35e-05 6.8e-06 
39 1 1.8424e-06 4.98e-05 6.4e-05 7.04e-06 
21 1 1.48215e-06 4.53e-05 9.58e-05 7.98e-06 
17 1 1.57479e-06 4.77e-05 7.68e-05 1.22e-05 
9 1 1.82181e-06 3.48e-05 7.37e-05 2.35e-05 
10 1 1.8424e-06 3.1e-05 7.67e-05 2.35e-05 
41 1 1.61596e-06 3.87e-05 6.11e-05 2.44e-05 
28 1 1.60567e-06 1.54e-05 9.17e-05 3.1e-05 
3 1 1.89386e-06 4.98e-05 9.27e-05 3.91e-05 
32 1 1.56449e-06 8.59e-05 3.03e-05 5.18e-06 
35 1 1.88357e-06 8.24e-05 4.98e-05 6.38e-06 
12 1 1.85269e-06 8.9e-05 1.43e-05 9.54e-06 
29 1 1.62625e-06 7.02e-05 2.28e-05 1.1e-05 
7 1 1.6983e-06 7.31e-05 4.11e-05 1.41e-05 
8 1 1.83211e-06 5.15e-05 4.45e-05 1.92e-05 
46 1 1.93503e-06 5.96e-05 2.29e-05 3.06e-05 
6 1 1.62625e-06 8.17e-05 3.43e-05 3.24e-05 
2 1 1.46157e-06 8.61e-05 3.5e-05 3.67e-05 
27 1 1.8424e-06 8.85e-05 4.76e-05 3.7e-05 
26 1 1.62625e-06 9.33e-05 1.08e-05 3.79e-05 
33 1 1.4204e-06 6.76e-05 3.98e-05 4.12e-05 
36 1 1.73947e-06 8.33e-05 2.63e-05 4.34e-05 
34 1 1.72918e-06 7.41e-05 9.39e-05 5.32e-06 
45 1 1.86298e-06 8.83e-05 7.31e-05 1.05e-05 
31 1 1.85269e-06 6.44e-05 8.2e-05 1.39e-05 
48 1 1.90415e-06 6.88e-05 9.1e-05 1.47e-05 
40 1 1.54391e-06 9.56e-05 6.27e-05 1.89e-05 
30 1 1.68801e-06 6.07e-05 9.68e-05 1.87e-05 
42 1 1.66742e-06 7.64e-05 5.59e-05 2.22e-05 
43 1 1.57479e-06 5.2e-05 8.86e-05 2.3e-05 
50 1 1.91445e-06 7.62e-05 8.34e-05 3.19e-05 
5 1 1.76006e-06 6.13e-05 6.7e-05 3.29e-05 
1 1 1.51303e-06 9.39e-05 9.26e-05 4.05e-05 
13 1 1.77035e-06 7.36e-05 5.16e-05 4.13e-05 
4 1 1.92474e-06 8.38e-05 8.26e-05 4.31e-05 
15 1 1.43069e-06 8.96e-05 5.33e-05 4.39e-05 
11 1 1.87328e-06 8.55e-05 7.6e-05 4.5e-05 
22 1 1.70859e-06 7.54e-05 5.19e-05 4.74e-05 
ITEM: TIMESTEP
600
ITEM: NUMBER OF ATOMS
50
ITEM: BOX BOUNDS ff ff ff
0.0000000000000000e+00 1.0000000000000000e-04
0.0000000000000000e+00 1.0000000000000000e-04
0.0000000000000000e+00 5.0000000000000002e-05
ITEM: ATOMS id type diameter x y z 
44 1 1.49073e-06 4.03e-05 4.74e-05 7.48e-06 
38 1 1.65637e-06 1.57e-05 2.07e-05 1.57e-05 
20 1 1.81165e-06 4.98e-05 1.05e-05 2.44e-05 
14 1 1.51143e-06 2.66e-05 2.22e-05 2.59e-05 
24 1 1.87377e-06 7.58e-06 1.61e-05 2.7e-05 
18 1 1.73919e-06 4.86e-05 2.33e-05 2.8e-05 
23 1 1.83236e-06 3.9e-05 4.24e-05 3.65e-05 
16 1 1.57355e-06 1.99e-05 1.2e-05 3.74e-05 
47 1 1.66672e-06 1.13e-05 3.74e-05 3.95e-05 
19 1 1.61496e-06 3e-05 4.14e-05 4.26e-05 
49 1 1.59425e-06 4.11e-05 4.42e-06 4.54e-05 
25 1 1.44932e-06 4.74e-05 6.91e-05 4.32e-06 
37 1 1.92553e-06 1.54e-05 8.35e-05 6.8e-06 
39 1 1.85306e-06 4.98e-05 6.4e-05 7.04e-06 
21 1 1.49073e-06 4.53e-05 9.58e-05 7.98e-06 
17 1 1.5839e-06 4.77e-05 7.68e-05 1.22e-05 
9 1 1.83236e-06 3.48e-05 7.37e-05 2.35e-05 
10 1 1.85306e-06 3.1e-05 7.67e-05 2.35e-05 
41 1 1.62531e-06 3.87e-05 6.11e-05 2.44e-05 
28 1 1.61496e-06 1.54e-05 9.17e-05 3.1e-05 
3 1 1.90482e-06 4.98e-05 9.27e-05 3.91e-05 
32 1 1.57355e-06 8.59e-05 3.03e-05 5.18e-06 
35 1 1.89447e-06 8.24e-05 4.98e-05 6.38e-06 
12 1 1.86341e-06 8.9e-05 1.43e-05 9.54e-06 
29 1 1.63566e-06 7.02e-05 2.28e-05 1.1e-05 
7 1 1.70813e-06 7.31e-05 4.11e-05 1.41e-05 
8 1 1.84271e-06 5.15e-05 4.45e-05 1.92e-05 
46 1 1.94623e-06 5.96e-05 2.29e-05 3.06e-05 
6 1 1.63566e-06 8.17e-05 3.43e-05 3.24e-05 
2 1 1.47003e-06 8.61e-05 3.5e-05 3.67e-05 
27 1 1.85306e-06 8.85e-05 4.76e-05 3.7e-05 
26 1 1.63566e-06 9.33e-05 1.08e-05 3.79e-05 
33 1 1.42862e-06 6.76e-05 3.98e-05 4.12e-05 
36 1 1.74954e-06 8.33e-05 2.63e-05 4.34e-05 
34 1 1.73919e-06 7.41e-05 9.39e-05 5.32e-06 
45 1 1.87376e-06 8.83e-05 7.31e-05 1.05e-05 
31 1 1.86341e-06 6.44e-05 8.2e-05 1.39e-05 
48 1 1.91517e-06 6.88e-05 9.1e-05 1.47e-05 
40 1 1.55284e-06 9.56e-05 6.27e-05 1.89e-05 
30 1 1.69778e-06 6.07e-05 9.68e-05 1.87e-05 
42 1 1.67707e-06 7.64e-05 5.59e-05 2.22e-05 
43 1 1.5839e-06 5.2e-05 8.86e-05 2.3e-05 
50 1 1.92553e-06 7.62e-05 8.34e-05 3.19e-05 
5 1 1.77024e-06 6.13e-05 6.7e-05 3.29e-05 
1 1 1.52179e-06 9.39e-05 9.26e-05 4.05e-05 
13 1 1.78059e-06 7.36e-05 5.16e-05 4.13e-05 
4 1 1.93588e-06 8.38e-05 8.26e-05 4.31e-05 
15 1 1.43897e-06 8.96e-05 5.33e-05 4.39e-05 
11 1 1.88412e-06 8.55e-05 7.6e-05 4.5e-05 
22 1 1.71848e-06 7.54e-05 5.19e-05 4.74e-05 
ITEM: TIMESTEP
700
ITEM: NUMBER OF ATOMS
50
ITEM: BOX BOUNDS ff ff ff
0.0000000000000000e+00 1.0000000000000000e-04
0.0000000000000000e+00 1.0000000000000000e-04
0.0000000000000000e+00 5.0000000000000002e-05
ITEM: ATOMS id type diameter x y z 
44 1 1.49936e-06 4.03e-05 4.74e-05 7.48e-06 
38 1 1.66595e-06 1.57e-05 2.07e-05 1.57e-05 
20 1 1.82214e-06 4.98e-05 1.05e-05 2.44e-05 
14 1 1.52018e-06 2.66e-05 2.22e-05 2.59e-05 
24 1 1.88461e-06 7.58e-06 1.61e-05 2.7e-05 
18 1 1.74925e-06 4.86e-05 2.33e-05 2.8e-05 
23 1 1.84296e-06 3.9e-05 4.24e-05 3.65e-05 
16 1 1.58265e-06 1.99e-05 1.2e-05 3.74e-05 
47 1 1.67636e-06 1.13e-05 3.74e-05 3.95e-05 
19 1 1.6243e-06 3e-05 4.14e-05 4.26e-05 
49 1 1.60348e-06 4.11e-05 4.42e-06 4.54e-05 
25 1 1.45771e-06 4.74e-05 6.91e-05 4.32e-06 
37 1 1.93667e-06 1.54e-05 8.35e-05 6.8e-06 
39 1 1.86378e-06 4.98e-05 6.4e-05 7.04e-06 
21 1 1.49936e-06 4.53e-05 9.58e-05 7.98e-06 
17 1 1.59307e-06 4.77e-05 7.68e-05 1.22e-05 
9 1 1.84296e-06 3.48e-05 7.37e-05 2.35e-05 
10 1 1.86378e-06 3.1e-05 7.67e-05 2.35e-05 
41 1 1.63472e-06 3.87e-05 6.11e-05 2.44e-05 
28 1 1.6243e-06 1.54e-05 9.17e-05 3.1e-05 
3 1 1.91585e-06 4.98e-05 9.27e-05 3.91e-05 
32 1 1.58265e-06 8.59e-05 3.03e-05 5.18e-06 
35 1 1.90543e-06 8.24e-05 4.98e-05 6.38e-06 
12 1 1.8742e-06 8.9e-05 1.43e-05 9.54e-06 
29 1 1.64513e-06 7.02e-05 2.28e-05 1.1e-05 
7 1 1.71801e-06 7.31e-05 4.11e-05 1.41e-05 
8 1 1.85337e-06 5.15e-05 4.45e-05 1.92e-05 
46 1 1.95749e-06 5.96e-05 2.29e-05 3.06e-05 
6 1 1.64513e-06 8.17e-05 3.43e-05 3.24e-05 
2 1 1.47853e-06 8.61e-05 3.5e-05 3.67e-05 
27 1 1.86378e-06 8.85e-05 4.76e-05 3.7e-05 
26 1 1.64513e-06 9.33e-05 1.08e-05 3.79e-05 
33 1 1.43688e-06 6.76e-05 3.98e-05 4.12e-05 
36 1 1.75966e-06 8.33e-05 2.63e-05 4.34e-05 
34 1 1.74925e-06 7.41e-05 9.39e-05 5.32e-06 
45 1 1.88461e-06 8.83e-05 7.31e-05 1.05e-05 
31 1 1.8742e-06 6.44e-05 8.2e-05 1.39e-05 
48 1 1.92626e-06 6.88e-05 9.1e-05 1.47e-05 
40 1 1.56183e-06 9.56e-05 6.27e-05 1.89e-05 
30 1 1.7076e-06 6.07e-05 9.68e-05 1.87e-05 
42 1 1.68678e-06 7.64e-05 5.59e-05 2.22e-05 
43 1 1.59307e-06 5.2e-05 8.86e-05 2.3e-05 
50 1 1.93667e-06 7.62e-05 8.34e-05 3.19e-05 
5 1 1.78049e-06 6.13e-05 6.7e-05 3.29e-05 
1 1 1.53059e-06 9.39e-05 9.26e-05 4.05e-05 
13 1 1.7909e-06 7.36e-05 5.16e-05 4.13e-05 
4 1 1.94708e-06 8.38e-05 8.26e-05 4.31e-05 
15 1 1.4473e-06 8.96e-05 5.33e-05 4.39e-05 
11 1 1.89502e-06 8.55e-05 7.6e-05 4.5e-05 
22 1 1.72843e-06 7.54e-05 5.19e-05 4.74e-05 
ITEM: TIMESTEP
800
ITEM: NUMBER OF ATOMS
50
ITEM: BOX BOUNDS ff ff ff
0.0000000000000000e+00 1.0000000000000000e-04
0.0000000000000000e+00 1.0000000000000000e-04
0.0000000000000000e+00 5.0000000000000002e-05
ITEM: ATOMS id type diameter x y z 
44 1 1.50803e-06 4.03e-05 4.74e-05 7.48e-06 
38 1 1.67559e-06 1.57e-05 2.07e-05 1.57e-05 
20 1 1.83268e-06 4.98e-05 1.05e-05 2.44e-05 
14 1 1.52898e-06 2.66e-05 2.22e-05 2.59e-05 
24 1 1.89552e-06 7.58e-06 1.61e-05 2.7e-05 
18 1 1.75937e-06 4.86e-05 2.33e-05 2.8e-05 
23 1 1.85363e-06 3.9e-05 4.24e-05 3.65e-05 
16 1 1.59181e-06 1.99e-05 1.2e-05 3.74e-05 
47 1 1.68607e-06 1.13e-05 3.74e-05 3.95e-05 
19 1 1.6337e-06 3e-05 4.14e-05 4.26e-05 
49 1 1.61276e-06 4.11e-05 4.42e-06 4.54e-05 
25 1 1.46614e-06 4.74e-05 6.91e-05 4.32e-06 
37 1 1.94788e-06 1.54e-05 8.35e-05 6.8e-06 
39 1 1.87457e-06 4.98e-05 6.4e-05 7.04e-06 
21 1 1.50803e-06 4.53e-05 9.58e-05 7.98e-06 
17 1 1.60229e-06 4.77e-05 7.68e-05 1.22e-05 
9 1 1.85363e-06 3.48e-05 7.37e-05 2.35e-05 
10 1 1.87457e-06 3.1e-05 7.67e-05 2.35e-05 
41 1 1.64418e-06 3.87e-05 6.11e-05 2.44e-05 
28 1 1.6337e-06 1.54e-05 9.17e-05 3.1e-05 
3 1 1.92693e-06 4.98e-05 9.27e-05 3.91e-05 
32 1 1.59181e-06 8.59e-05 3.03e-05 5.18e-06 
35 1 1.91646e-06 8.24e-05 4.98e-05 6.38e-06 
12 1 1.88504e-06 8.9e-05 1.43e-05 9.54e-06 
29 1 1.65465e-06 7.02e-05 2.28e-05 1.1e-05 
7 1 1.72796e-06 7.31e-05 4.11e-05 1.41e-05 
8 1 1.8641e-06 5.15e-05 4.45e-05 1.92e-05 
46 1 1.96882e-06 5.96e-05 2.29e-05 3.06e-05 
6 1 1.65465e-06 8.17e-05 3.43e-05 3.24e-05 
2 1 1.48709e-06 8.61e-05 3.5e-05 3.67e-05 
27 1 1.87457e-06 8.85e-05 4.76e-05 3.7e-05 
26 1 1.65465e-06 9.33e-05 1.08e-05 3.79e-05 
33 1 1.4452e-06 6.76e-05 3.98e-05 4.12e-05 
36 1 1.76985e-06 8.33e-05 2.63e-05 4.34e-05 
34 1 1.75937e-06 7.41e-05 9.39e-05 5.32e-06 
45 1 1.89552e-06 8.83e-05 7.31e-05 1.05e-05 
31 1 1.88504e-06 6.44e-05 8.2e-05 1.39e-05 
48 1 1.93741e-06 6.88e-05 9.1e-05 1.47e-05 
40 1 1.57087e-06 9.56e-05 6.27e-05 1.89e-05 
30 1 1.71748e-06 6.07e-05 9.68e-05 1.87e-05 
42 1 1.69654e-06 7.64e-05 5.59e-05 2.22e-05 
43 1 1.60229e-06 5.2e-05 8.86e-05 2.3e-05 
50 1 1.94788e-06 7.62e-05 8.34e-05 3.19e-05 
5 1 1.79079e-06 6.13e-05 6.7e-05 3.29e-05 
1 1 1.53945e-06 9.39e-05 9.26e-05 4.05e-05 
13 1 1.80126e-06 7.36e-05 5.16e-05 4.13e-05 
4 1 1.95835e-06 8.38e-05 8.26e-05 4.31e-05 
15 1 1.45567e-06 8.96e-05 5.33e-05 4.39e-05 
11 1 1.90599e-06 8.55e-05 7.6e-05 4.5e-05 
22 1 1.73843e-06 7.54e-05 5.19e-05 4.74e-05 
ITEM: TIMESTEP
900
ITEM: NUMBER OF ATOMS
51
ITEM: BOX BOUNDS ff ff ff
0.0000000000000000e+00 1.0000000000000000e-04
0.0000000000000000e+00 1.0000000000000000e-04
0.0000000000000000e+00 5.0000000000000002e-05
ITEM: ATOMS id type diameter x y z 
44 1 1.51676e-06 4.03e-05 4.74e-05 7.48e-06 
38 1 1.68529e-06 1.57e-05 2.07e-05 1.57e-05 
20 1 1.84329e-06 4.98e-05 1.05e-05 2.44e-05 
14 1 1.53783e-06 2.66e-05 2.22e-05 2.59e-05 
24 1 1.90649e-06 7.58e-06 1.61e-05 2.7e-05 
18 1 1.76956e-06 4.86e-05 2.33e-05 2.8e-05 
23 1 1.86435e-06 3.9e-05 4.24e-05 3.65e-05 
16 1 1.60103e-06 1.99e-05 1.2e-05 3.74e-05 
47 1 1.69582e-06 1.13e-05 3.74e-05 3.95e-05 
19 1 1.64316e-06 3e-05 4.14e-05 4.26e-05 
49 1 1.62209e-06 4.11e-05 4.42e-06 4.54e-05 
25 1 1.47463e-06 4.74e-05 6.91e-05 4.32e-06 
37 1 1.95915e-06 1.54e-05 8.35e-05 6.8e-06 
39 1 1.88542e-06 4.98e-05 6.4e-05 7.04e-06 
21 1 1.51676e-06 4.53e-05 9.58e-05 7.98e-06 
17 1 1.61156e-06 4.77e-05 7.68e-05 1.22e-05 
9 1 1.86435e-06 3.48e-05 7.37e-05 2.35e-05 
10 1 1.88542e-06 3.1e-05 7.67e-05 2.35e-05 
41 1 1.65369e-06 3.87e-05 6.11e-05 2.44e-05 
28 1 1.64316e-06 1.54e-05 9.17e-05 3.1e-05 
3 1 1.93808e-06 4.98e-05 9.27e-05 3.91e-05 
32 1 1.60103e-06 8.59e-05 3.03e-05 5.18e-06 
35 1 1.92755e-06 8.24e-05 4.98e-05 6.38e-06 
12 1 1.89595e-06 8.9e-05 1.43e-05 9.54e-06 
29 1 1.66422e-06 7.02e-05 2.28e-05 1.1e-05 
7 1 1.73796e-06 7.31e-05 4.11e-05 1.41e-05 
8 1 1.87489e-06 5.15e-05 4.45e-05 1.92e-05 
46 1 1.55928e-06 5.96392e-05 2.29122e-05 2.98221e-05 
6 1 1.66422e-06 8.17e-05 3.43e-05 3.24e-05 
2 1 1.4957e-06 8.61e-05 3.5e-05 3.67e-05 
27 1 1.88542e-06 8.85e-05 4.76e-05 3.7e-05 
26 1 1.66422e-06 9.33e-05 1.08e-05 3.79e-05 
33 1 1.45356e-06 6.76e-05 3.98e-05 4.12e-05 
36 1 1.78009e-06 8.33e-05 2.63e-05 4.34e-05 
51 1 1.58393e-06 5.95602e-05 2.28876e-05 3.13902e-05 
34 1 1.76956e-06 7.41e-05 9.39e-05 5.32e-06 
45 1 1.90649e-06 8.83e-05 7.31e-05 1.05e-05 
31 1 1.89595e-06 6.44e-05 8.2e-05 1.39e-05 
48 1 1.94862e-06 6.88e-05 9.1e-05 1.47e-05 
40 1 1.57996e-06 9.56e-05 6.27e-05 1.89e-05 
30 1 1.72742e-06 6.07e-05 9.68e-05 1.87e-05 
42 1 1.70636e-06 7.64e-05 5.59e-05 2.22e-05 
43 1 1.61156e-06 5.2e-05 8.86e-05 2.3e-05 
50 1 1.95915e-06 7.62e-05 8.34e-05 3.19e-05 
5 1 1.80115e-06 6.13e-05 6.7e-05 3.29e-05 
1 1 1.54836e-06 9.39e-05 9.26e-05 4.05e-05 
13 1 1.81169e-06 7.36e-05 5.16e-05 4.13e-05 
4 1 1.96968e-06 8.38e-05 8.26e-05 4.31e-05 
15 1 1.4641e-06 8.96e-05 5.33e-05 4.39e-05 
11 1 1.91702e-06 8.55e-05 7.6e-05 4.5e-05 
22 1 1.74849e-06 7.54e-05 5.19e-05 4.74e-05 
ITEM: TIMESTEP
1000
ITEM: NUMBER OF ATOMS
52
ITEM: BOX BOUNDS ff ff ff
0.0000000000000000e+00 1.0000000000000000e-04
0.0000000000000000e+00 1.0000000000000000e-04
0.0000000000000000e+00 5.0000000000000002e-05
ITEM: ATOMS id type diameter x y z 
44 1 1.52554e-06 4.03e-05 4.74e-05 7.48e-06 
38 1 1.69504e-06 1.57e-05 2.07e-05 1.57e-05 
20 1 1.85395e-06 4.98e-05 1.05e-05 2.44e-05 
14 1 1.54673e-06 2.66e-05 2.22e-05 2.59e-05 
24 1 1.91752e-06 7.58e-06 1.61e-05 2.7e-05 
18 1 1.7798e-06 4.86e-05 2.33e-05 2.8e-05 
23 1 1.87514e-06 3.9e-05 4.24e-05 3.65e-05 
16 1 1.61029e-06 1.99e-05 1.2e-05 3.74e-05 
47 1 1.70564e-06 1.13e-05 3.74e-05 3.95e-05 
19 1 1.65267e-06 3e-05 4.14e-05 4.26e-05 
49 1 1.63148e-06 4.11e-05 4.42e-06 4.54e-05 
25 1 1.48316e-06 4.74e-05 6.91e-05 4.32e-06 
37 1 1.97049e-06 1.54e-05 8.35e-05 6.8e-06 
39 1 1.89633e-06 4.98e-05 6.4e-05 7.04e-06 
21 1 1.52554e-06 4.53e-05 9.58e-05 7.98e-06 
17 1 1.62089e-06 4.77e-05 7.68e-05 1.22e-05 
9 1 1.87514e-06 3.48e-05 7.37e-05 2.35e-05 
10 1 1.89633e-06 3.1e-05 7.67e-05 2.35e-05 
41 1 1.66326e-06 3.87e-05 6.11e-05 2.44e-05 
28 1 1.65267e-06 1.54e-05 9.17e-05 3.1e-05 
3 1 1.9493e-06 4.98e-05 9.27e-05 3.91e-05 
32 1 1.61029e-06 8.59e-05 3.03e-05 5.18e-06 
35 1 1.93871e-06 8.24e-05 4.98e-05 6.38e-06 
12 1 1.90692e-06 8.9e-05 1.43e-05 9.54e-06 
29 1 1.67386e-06 7.02e-05 2.28e-05 1.1e-05 
7 1 1.74801e-06 7.31e-05 4.11e-05 1.41e-05 
8 1 1.88574e-06 5.15e-05 4.45e-05 1.92e-05 
46 1 1.5683e-06 5.96392e-05 2.29122e-05 2.98221e-05 
51 1 1.59309e-06 5.95602e-05 2.28876e-05 3.13902e-05 
6 1 1.67386e-06 8.17e-05 3.43e-05 3.24e-05 
2 1 1.50435e-06 8.61e-05 3.5e-05 3.67e-05 
27 1 1.89633e-06 8.85e-05 4.76e-05 3.7e-05 
26 1 1.67386e-06 9.33e-05 1.08e-05 3.79e-05 
33 1 1.46198e-06 6.76e-05 3.98e-05 4.12e-05 
36 1 1.79039e-06 8.33e-05 2.63e-05 4.34e-05 
34 1 1.7798e-06 7.41e-05 9.39e-05 5.32e-06 
45 1 1.91752e-06 8.83e-05 7.31e-05 1.05e-05 
31 1 1.90692e-06 6.44e-05 8.2e-05 1.39e-05 
48 1 1.95989e-06 6.88e-05 9.1e-05 1.47e-05 
40 1 1.5891e-06 9.56e-05 6.27e-05 1.89e-05 
30 1 1.73742e-06 6.07e-05 9.68e-05 1.87e-05 
42 1 1.71623e-06 7.64e-05 5.59e-05 2.22e-05 
43 1 1.62089e-06 5.2e-05 8.86e-05 2.3e-05 
50 1 1.97049e-06 7.62e-05 8.34e-05 3.19e-05 
5 1 1.81158e-06 6.13e-05 6.7e-05 3.29e-05 
1 1 1.55732e-06 9.39e-05 9.26e-05 4.05e-05 
13 1 1.82217e-06 7.36e-05 5.16e-05 4.13e-05 
4 1 1.55996e-06 8.38392e-05 8.26122e-05 4.23217e-05 
15 1 1.47257e-06 8.96e-05 5.33e-05 4.39e-05 
52 1 1.58462e-06 8.37602e-05 8.25876e-05 4.38906e-05 
11 1 1.92811e-06 8.55e-05 7.6e-05 4.5e-05 
22 1 1.75861e-06 7.54e-05 5.19e-05 4.74e-05 
ITEM: TIMESTEP
1100
ITEM: NUMBER OF ATOMS
54
ITEM: BOX BOUNDS ff ff ff
0.0000000000000000e+00 1.0000000000000000e-04
0.0000000000000000e+00 1.0000000000000000e-04
0.0000000000000000e+00 5.0000000000000002e-05
ITEM: ATOMS id type diameter x y z 
44 1 1.53437e-06 4.03e-05 4.74e-05 7.48e-06 
38 1 1.70485e-06 1.57e-05 2.07e-05 1.57e-05 
20 1 1.86468e-06 4.98e-05 1.05e-05 2.44e-05 
14 1 1.55568e-06 2.66e-05 2.22e-05 2.59e-05 
24 1 1.92862e-06 7.58e-06 1.61e-05 2.7e-05 
18 1 1.7901e-06 4.86e-05 2.33e-05 2.8e-05 
23 1 1.88599e-06 3.9e-05 4.24e-05 3.65e-05 
16 1 1.61961e-06 1.99e-05 1.2e-05 3.74e-05 
47 1 1.71551e-06 1.13e-05 3.74e-05 3.95e-05 
19 1 1.66223e-06 3e-05 4.14e-05 4.26e-05 
49 1 1.64092e-06 4.11e-05 4.42e-06 4.54e-05 
25 1 1.49175e-06 4.74e-05 6.91e-05 4.32e-06 
37 1 1.5606e-06 1.54392e-05 8.35122e-05 6.0214e-06 
39 1 1.9073e-06 4.98e-05 6.4e-05 7.04e-06 
21 1 1.53437e-06 4.53e-05 9.58e-05 7.98e-06 
17 1 1.63027e-06 4.77e-05 7.68e-05 1.22e-05 
53 1 1.58527e-06 1.53602e-05 8.34876e-05 7.59091e-06 
9 1 1.88599e-06 3.48e-05 7.37e-05 2.35e-05 
10 1 1.9073e-06 3.1e-05 7.67e-05 2.35e-05 
41 1 1.67289e-06 3.87e-05 6.11e-05 2.44e-05 
28 1 1.66223e-06 1.54e-05 9.17e-05 3.1e-05 
3 1 1.96058e-06 4.98e-05 9.27e-05 3.91e-05 
32 1 1.61961e-06 8.59e-05 3.03e-05 5.18e-06 
35 1 1.94993e-06 8.24e-05 4.98e-05 6.38e-06 
12 1 1.91796e-06 8.9e-05 1.43e-05 9.54e-06 
29 1 1.68354e-06 7.02e-05 2.28e-05 1.1e-05 
7 1 1.75813e-06 7.31e-05 4.11e-05 1.41e-05 
8 1 1.89665e-06 5.15e-05 4.45e-05 1.92e-05 
46 1 1.57738e-06 5.96392e-05 2.29122e-05 2.98221e-05 
51 1 1.60231e-06 5.95602e-05 2.28876e-05 3.13902e-05 
6 1 1.68354e-06 8.17e-05 3.43e-05 3.24e-05 
2 1 1.51306e-06 8.61e-05 3.5e-05 3.67e-05 
27 1 1.9073e-06 8.85e-05 4.76e-05 3.7e-05 
26 1 1.68354e-06 9.33e-05 1.08e-05 3.79e-05 
33 1 1.47044e-06 6.76e-05 3.98e-05 4.12e-05 
36 1 1.80075e-06 8.33e-05 2.63e-05 4.34e-05 
34 1 1.7901e-06 7.41e-05 9.39e-05 5.32e-06 
45 1 1.92862e-06 8.83e-05 7.31e-05 1.05e-05 
31 1 1.91796e-06 6.44e-05 8.2e-05 1.39e-05 
48 1 1.97124e-06 6.88e-05 9.1e-05 1.47e-05 
40 1 1.5983e-06 9.56e-05 6.27e-05 1.89e-05 
30 1 1.74747e-06 6.07e-05 9.68e-05 1.87e-05 
42 1 1.72616e-06 7.64e-05 5.59e-05 2.22e-05 
43 1 1.63027e-06 5.2e-05 8.86e-05 2.3e-05 
50 1 1.46639e-06 7.64071e-05 8.37036e-05 3.25338e-05 
5 1 1.82206e-06 6.13e-05 6.7e-05 3.29e-05 
1 1 1.56633e-06 9.39e-05 9.26e-05 4.05e-05 
13 1 1.83272e-06 7.36e-05 5.16e-05 4.13e-05 
4 1 1.56899e-06 8.38392e-05 8.26122e-05 4.23217e-05 
15 1 1.48109e-06 8.96e-05 5.33e-05 4.39e-05 
52 1 1.59379e-06 8.37602e-05 8.25876e-05 4.38906e-05 
11 1 1.93927e-06 8.55e-05 7.6e-05 4.5e-05 
22 1 1.76879e-06 7.54e-05 5.19e-05 4.74e-05 
54 1 1.66689e-06 7.59646e-05 8.30549e-05 3.11795e-05 
ITEM: TIMESTEP
1200
ITEM: NUMBER OF ATOMS
56
ITEM: BOX BOUNDS ff ff ff
0.0000000000000000e+00 1.0000000000000000e-04
0.0000000000000000e+00 1.0000000000000000e-04