LAMMPS (20 Nov 2019)
Reading data file ...
  orthogonal box = (0 0 0) to (0.0001 0.0001 1e-05)
  8 by 4 by 1 MPI processor grid
  reading atoms ...
  100 atoms
  4 nutrients
Lattice spacing in x,y,z = 100 100 100
50 atoms in group CYANO
50 atoms in group ECW
Model is defined as a closed system. 
Neighbor list info ...
  update every 1 steps, delay 0 steps, check yes
  max neighbors/atom: 5000, page size: 100000
  master list distance cutoff = 2.43e-06
  ghost atom cutoff = 2.43e-06
  binsize = 1.215e-06, bins = 83 83 9
  1 neighbor lists, perpetual/occasional/extra = 1 0 0
  (1) pair gran/hooke/history, perpetual
      attributes: half, newton off, size, history
      pair build: half/size/bin/newtoff
      stencil: half/bin/3d/newtoff
      bin: standard
Setting up Verlet run ...
  Unit style    : lj
  Current step  : 0
  Time step     : 10
Per MPI rank memory allocation (min/avg/max) = 5.794 | 10.18 | 12.11 Mbytes
Step CPU Atoms c_myNtypes[1] c_myNtypes[2] c_myMass[1] c_myMass[2] c_myCon[1] c_myCon[2] c_myCon[3] c_myCon[4] 
       0            0      100           50           50 4.5677652e-14 9.8072399e-15          0.1        0.009     3.42e-20       0.0299 
number of iterations: 324331 
     100    15.761936      142           50           92 4.6282982e-14 9.8001909e-15          0.1 0.0090008356  0.036699615  0.029898608 
number of iterations: 4357 
     200    16.090655      164           50          114 4.6896334e-14 9.7945059e-15          0.1 0.0090008466  0.072706346   0.02989859 
number of iterations: 2955 
     300    16.366908      164           50          114 4.7517814e-14 9.7901046e-15          0.1 0.0090008578   0.10915666  0.029898571 
number of iterations: 2389 
     400    16.607395      164           50          114 4.814753e-14 9.7869717e-15          0.1 0.0090008691    0.1460596  0.029898552 
number of iterations: 2021 
     500    16.919246      165           51          114 4.8785592e-14 9.7850937e-15          0.1 0.0090008766   0.18342242   0.02989854 
number of iterations: 1753 
     600    17.143247      166           52          114 4.9432109e-14 9.7844606e-15          0.1 0.0090008911   0.22125207  0.029898515 
number of iterations: 1546 
     700    17.354374      167           53          114 5.0087194e-14 9.7850639e-15          0.1 0.0090009058   0.25955556  0.029898491 
number of iterations: 1435 
     800    17.561516      167           53          114 5.075096e-14 9.786894e-15          0.1 0.0090009177   0.29833985  0.029898471 
number of iterations: 1445 
     900    17.763627      168           54          114 5.1423523e-14 9.7899428e-15          0.1 0.0090009298    0.3376119  0.029898451 
number of iterations: 1440 
    1000    17.967057      168           54          114 5.2104998e-14 9.7942016e-15          0.1 0.0090009421   0.37737889   0.02989843 
number of iterations: 1443 
    1100    18.161532      168           54          114 5.2795505e-14 9.7996627e-15          0.1 0.0090009545     0.417648  0.029898409 
number of iterations: 1446 
    1200    18.345579      169           55          114 5.3495162e-14 9.8063187e-15          0.1 0.0090009671   0.45842647  0.029898388 
number of iterations: 1448 
    1300    18.547787      169           55          114 5.4204091e-14 9.8141621e-15          0.1 0.0090009799   0.49972168  0.029898367 
number of iterations: 1451 
    1400    18.743519      169           55          114 5.4922416e-14 9.8231867e-15          0.1 0.0090009928   0.54154098  0.029898345 
number of iterations: 1454 
    1500    18.951568      169           55          114 5.5650259e-14 9.8333865e-15          0.1 0.0090010059   0.58389182  0.029898324 
number of iterations: 1436 
    1600    19.143233      171           57          114 5.6387748e-14 9.8447556e-15          0.1 0.0090010148   0.62678175  0.029898309 
number of iterations: 1500 
    1700    19.345946      172           58          114 5.7135011e-14 9.8572888e-15          0.1 0.0090010282   0.67021835  0.029898286 
number of iterations: 1622 
    1800    19.571691      173           59          114 5.7892176e-14 9.870982e-15          0.1 0.0090010462   0.71420918  0.029898256 
number of iterations: 1465 
    1900    19.768655      173           59          114 5.8659375e-14 9.8858307e-15          0.1 0.0090010601   0.75876217  0.029898233 
number of iterations: 1468 
    2000    19.975822      173           59          114 5.9436742e-14 9.901831e-15          0.1 0.0090010741   0.80388524   0.02989821 
number of iterations: 1482 
    2100     20.16383      176           62          114 6.022441e-14 9.9189799e-15          0.1 0.0090010883   0.84958634  0.029898186 
number of iterations: 1506 
    2200    20.354237      178           64          114 6.1022517e-14 9.9372721e-15          0.1 0.0090011026    0.8958734  0.029898162 
number of iterations: 1511 
    2300    20.551449      180           66          114  6.18312e-14 9.9567067e-15          0.1 0.0090011133    0.9427546  0.029898144 
number of iterations: 1478 
    2400    20.735272      180           66          114  6.26506e-14 9.977281e-15          0.1  0.009001128   0.99023837   0.02989812 
number of iterations: 1481 
    2500    20.914347      180           66          114 6.3480859e-14 9.9989929e-15          0.1 0.0090011429    1.0383331  0.029898095 
number of iterations: 1578 
    2600    21.109313      182           68          114 6.4322121e-14 1.0021842e-14          0.1 0.0090011642    1.0870472  0.029898059 
number of iterations: 1487 
    2700    21.287592      184           69          115 6.5174532e-14 1.0045825e-14          0.1  0.009001177    1.1363893  0.029898038 
number of iterations: 1491 
    2800    21.542196      184           69          115 6.6038238e-14 1.0070942e-14          0.1 0.0090011925     1.186368  0.029898012 
number of iterations: 1524 
    2900    21.765916      186           70          116 6.6913391e-14 1.0097192e-14          0.1 0.0090012124    1.2369923  0.029897979 
number of iterations: 1480 
    3000    22.024172      187           71          116 6.7800141e-14 1.0124574e-14          0.1 0.0090012271    1.2882709  0.029897954 
number of iterations: 1515 
    3100     22.19134      188           72          116 6.8698643e-14 1.0153088e-14          0.1 0.0090012446    1.3402128  0.029897925 
number of iterations: 1502 
    3200    22.374643      188           72          116 6.9609052e-14 1.0182734e-14          0.1 0.0090012611    1.3928273  0.029897897 
number of iterations: 1625 
    3300    22.574557      190           74          116 7.0531526e-14 1.0213514e-14          0.1 0.0090012819    1.4461233  0.029897863 
number of iterations: 1565 
    3400    22.755748      192           76          116 7.1466224e-14 1.0245428e-14          0.1 0.0090013002    1.5001105  0.029897832 
number of iterations: 1511 
    3500     22.93919      193           77          116 7.241331e-14 1.0278478e-14          0.1 0.0090013174    1.5547981  0.029897803 
number of iterations: 1513 
    3600    23.107623      193           77          116 7.3372946e-14 1.0312664e-14          0.1 0.0090013348    1.6101959  0.029897774 
number of iterations: 1516 
    3700    23.281359      193           77          116  7.43453e-14 1.0347988e-14          0.1 0.0090013525    1.6663136  0.029897745 
number of iterations: 1519 
    3800     23.44964      194           77          117 7.5330539e-14 1.0384452e-14          0.1 0.0090013704    1.7231609  0.029897715 
number of iterations: 1520 
    3900    23.627147      195           78          117 7.6328835e-14 1.042206e-14          0.1 0.0090013885    1.7807479  0.029897685 
number of iterations: 1525 
    4000    23.825209      195           78          117 7.7340361e-14 1.0460812e-14          0.1 0.0090014069    1.8390846  0.029897654 
number of iterations: 1612 
    4100    24.003072      197           80          117 7.8365291e-14 1.0500714e-14          0.1 0.0090014245    1.8981812  0.029897625 
number of iterations: 1531 
    4200    24.199405      197           80          117 7.9403804e-14 1.0541768e-14          0.1 0.0090014433    1.9580481  0.029897593 
number of iterations: 1534 
    4300    24.379519      197           80          117 8.045608e-14 1.0583977e-14          0.1 0.0090014624    2.0186957  0.029897561 
number of iterations: 1604 
    4400     24.57843      197           80          117  8.15223e-14 1.0627345e-14          0.1 0.0090014869    2.0801347  0.029897521 
number of iterations: 1540 
    4500    24.781714      197           80          117 8.2602651e-14 1.0671875e-14          0.1 0.0090015065    2.1423758  0.029897488 
number of iterations: 1532 
    4600    24.959541      199           82          117 8.3697318e-14 1.0717573e-14          0.1 0.0090015245    2.2054297  0.029897458 
number of iterations: 1543 
    4700    25.133049      199           82          117 8.4806492e-14 1.0764443e-14          0.1 0.0090015447    2.2693075  0.029897424 
number of iterations: 1664 
    4800    25.319259      200           83          117 8.5930365e-14 1.0812489e-14          0.1 0.0090015692    2.3340205  0.029897383 
number of iterations: 1551 
    4900    25.497185      201           83          118 8.7069132e-14 1.0861717e-14          0.1   0.00900159      2.39958  0.029897348 
number of iterations: 1553 
    5000    25.716098      202           83          119 8.822299e-14 1.0912132e-14          0.1  0.009001611    2.4659973  0.029897313 
number of iterations: 1552 
    5100    25.900812      205           85          120 8.9392139e-14 1.0963737e-14          0.1 0.0090016304    2.5332844  0.029897281 
number of iterations: 1568 
    5200    26.083508      207           87          120 9.0576782e-14 1.1016542e-14          0.1  0.009001652    2.6014527  0.029897245 
number of iterations: 1554 
    5300    26.281694      208           88          120 9.1777124e-14 1.107055e-14          0.1 0.0090016739    2.6705142  0.029897208 
number of iterations: 1559 
    5400    26.458361      210           89          121 9.2993373e-14 1.1125769e-14          0.1  0.009001696    2.7404809  0.029897171 
number of iterations: 1641 
    5500    26.667008      211           89          122 9.422574e-14 1.1182206e-14          0.1 0.0090017207    2.8113649   0.02989713 
number of iterations: 1547 
    5600    26.911379      213           90          123 9.5474439e-14 1.1239866e-14          0.1 0.0090017435    2.8831787  0.029897092 
number of iterations: 1578 
    5700    27.104721      215           91          124 9.6739686e-14 1.1298757e-14          0.1 0.0090017666    2.9559348  0.029897054 
number of iterations: 1671 
    5800    27.289247      217           92          125  9.80217e-14 1.135889e-14          0.1 0.0090017945    3.0296459  0.029897007 
number of iterations: 1579 
    5900    27.493191      219           92          127 9.9320703e-14 1.1420269e-14          0.1 0.0090018182    3.1043247  0.029896968 
number of iterations: 1582 
    6000    27.713006      220           93          127 1.0063692e-13 1.1482903e-14          0.1 0.0090018436    3.1799844  0.029896925 
number of iterations: 1569 
    6100    27.892787      222           95          127 1.0197058e-13 1.1546801e-14          0.1 0.0090018623    3.2566381  0.029896894 
number of iterations: 1628 
    6200    28.086499      223           96          127 1.0332192e-13 1.161197e-14          0.1 0.0090018916    3.3342992  0.029896845 
number of iterations: 1591 
    6300    28.257332      226           97          129 1.0469116e-13 1.1678418e-14          0.1 0.0090019167    3.4129809  0.029896803 
number of iterations: 1684 
    6400    28.487393      227           98          129 1.0607855e-13 1.1746155e-14          0.1 0.0090019508    3.4926972  0.029896746 
number of iterations: 1660 
    6500    28.680377      230          100          130 1.0748432e-13 1.1815192e-14          0.1 0.0090019782     3.573462  0.029896701 
number of iterations: 1602 
    6600    28.852237      236          103          133 1.0890873e-13 1.1885536e-14          0.1 0.0090020029    3.6552894  0.029896659 
number of iterations: 1583 
    6700    29.037739      237          104          133 1.1035201e-13 1.1957198e-14          0.1 0.0090020219    3.7381936  0.029896628 
number of iterations: 1589 
    6800    29.223041      238          105          133 1.1181441e-13 1.2030189e-14          0.1 0.0090020446    3.8221891   0.02989659 
number of iterations: 1638 
    6900    29.425628      240          107          133 1.132962e-13 1.2104518e-14          0.1 0.0090020783    3.9072904  0.029896534 
number of iterations: 1652 
    7000    29.625403      243          110          133 1.1479762e-13 1.2180194e-14          0.1 0.0090021041    3.9935123  0.029896491 
number of iterations: 1621 
    7100    29.850553      245          111          134 1.1631895e-13 1.2257229e-14          0.1 0.0090021257    4.0808699  0.029896455 
number of iterations: 1568 
    7200    30.033466      249          115          134 1.1786043e-13 1.2335636e-14          0.1 0.0090021453    4.1693784  0.029896422 
number of iterations: 1681 
    7300    30.212237      251          117          134 1.1942234e-13 1.2415425e-14          0.1 0.0090021792    4.2590531  0.029896365 
number of iterations: 1566 
    7400    30.390911      252          118          134 1.2100495e-13 1.2496605e-14          0.1 0.0090022055    4.3499101  0.029896321 
number of iterations: 1614 
    7500    30.596166      252          118          134 1.2260853e-13 1.257919e-14          0.1 0.0090022347    4.4419647  0.029896273 
number of iterations: 1614 
    7600     30.79563      255          121          134 1.2423336e-13 1.266319e-14          0.1 0.0090022643    4.5352332  0.029896223 
number of iterations: 1619 
    7700    30.981692      256          122          134 1.2587973e-13 1.2748619e-14          0.1 0.0090022914    4.6297314  0.029896178 
number of iterations: 1609 
    7800    31.159973      265          129          136 1.2754791e-13 1.283549e-14          0.1  0.009002307     4.725476  0.029896152 
number of iterations: 1665 
    7900    31.360427      268          132          136 1.292382e-13 1.2923817e-14          0.1 0.0090023393    4.8224837  0.029896098 
number of iterations: 1635 
    8000     31.59037      270          134          136 1.3095089e-13 1.301361e-14          0.1 0.0090023678    4.9207714  0.029896051 
number of iterations: 1638 
    8100    31.835414      276          139          137 1.3268628e-13 1.3104884e-14          0.1 0.0090023966     5.020356  0.029896003 
number of iterations: 1593 
    8200    32.042008      277          140          137 1.3444466e-13 1.3197652e-14          0.1 0.0090024228    5.1212551  0.029895959 
number of iterations: 1679 
    8300    32.231178      279          142          137 1.3622635e-13 1.3291929e-14          0.1  0.009002458    5.2234861    0.0298959 
number of iterations: 1648 
    8400    32.410795      284          145          139 1.3803165e-13 1.3387727e-14          0.1  0.009002492    5.3270667  0.029895843 
number of iterations: 1630 
    8500     32.60938      287          146          141 1.3986087e-13 1.3485062e-14          0.1 0.0090025196     5.432015  0.029895797 
number of iterations: 1718 
    8600    32.807685      288          147          141 1.4171433e-13 1.3583949e-14          0.1 0.0090025559    5.5383493  0.029895737 
number of iterations: 1648 
    8700    32.984583      292          149          143 1.4359236e-13 1.3684403e-14          0.1 0.0090025885    5.6460885  0.029895682 
number of iterations: 1658 
    8800    33.181798      294          150          144 1.4549527e-13 1.3786439e-14          0.1 0.0090026228    5.7552509  0.029895625 
number of iterations: 1636 
    8900     33.35761      298          154          144 1.4742341e-13 1.3890072e-14          0.1 0.0090026576    5.8658556  0.029895567 
number of iterations: 1738 
    9000    33.551652      301          156          145 1.4937709e-13 1.399532e-14          0.1 0.0090026958    5.9779215  0.029895503 
number of iterations: 1639 
    9100    33.736043      303          157          146 1.5135666e-13 1.4102194e-14          0.1 0.0090027268    6.0914679  0.029895452 
number of iterations: 1675 
    9200    33.921484      304          158          146 1.5336247e-13 1.4210713e-14          0.1 0.0090027665     6.206515  0.029895385 
number of iterations: 1672 
    9300    34.131328      306          159          147 1.5539486e-13 1.4320894e-14          0.1 0.0090028055    6.3230828  0.029895321 
number of iterations: 1674 
    9400    34.296897      307          160          147 1.5745418e-13 1.4432753e-14          0.1 0.0090028426    6.4411916  0.029895258 
number of iterations: 1665 
    9500    34.505735      311          161          150 1.595408e-13 1.4546309e-14          0.1 0.0090028775    6.5608618    0.0298952 
number of iterations: 1672 
    9600    34.775649      314          162          152 1.6165506e-13 1.4661577e-14          0.1 0.0090029156    6.6821143  0.029895137 
number of iterations: 1644 
    9700    34.972831      316          163          153 1.6379735e-13 1.4778577e-14          0.1 0.0090029514    6.8049706  0.029895077 
number of iterations: 1652 
    9800    35.149148      320          166          154 1.6596802e-13 1.4897326e-14          0.1  0.009002989    6.9294519  0.029895014 
number of iterations: 1665 
    9900    35.321097      321          166          155 1.6816746e-13 1.5017844e-14          0.1 0.0090030251    7.0555796  0.029894954 
number of iterations: 1717 
   10000    35.492848      324          167          157 1.7039605e-13 1.5140148e-14          0.1 0.0090030687    7.1833754  0.029894881 
number of iterations: 1684 
   10100    35.727149      328          168          160 1.7265417e-13 1.5264256e-14          0.1 0.0090031079    7.3128621  0.029894816 
number of iterations: 1705 
   10200    35.917506      330          170          160 1.7494222e-13 1.539019e-14          0.1 0.0090031491    7.4440618  0.029894747 
number of iterations: 1651 
   10300    36.093896      333          171          162 1.7726058e-13 1.5517968e-14          0.1 0.0090031847    7.5769974  0.029894688 
number of iterations: 1808 
   10400    36.308389      334          171          163 1.7960967e-13 1.5647608e-14          0.1  0.009003237    7.7116917  0.029894601 
number of iterations: 1710 
   10500    36.498452      340          173          167 1.8198989e-13 1.5779133e-14          0.1 0.0090032828    7.8481685  0.029894524 
number of iterations: 1699 
   10600    36.676001      346          178          168 1.8440166e-13 1.5912563e-14          0.1 0.0090033203    7.9864513  0.029894462 
number of iterations: 1646 
   10700    36.860143      353          183          170 1.8684538e-13 1.6047916e-14          0.1 0.0090033552    8.1265637  0.029894404 
number of iterations: 1719 
   10800    37.073564      358          185          173 1.8932149e-13 1.6185217e-14          0.1 0.0090033997    8.2685306  0.029894329 
number of iterations: 1722 
   10900    37.264449      362          188          174 1.9183042e-13 1.6324485e-14          0.1 0.0090034522    8.4123769  0.029894242 
number of iterations: 1717 
   11000    37.449524      365          189          176 1.9437259e-13 1.6465743e-14          0.1 0.0090034979    8.5581273  0.029894165 
number of iterations: 1758 
   11100    37.674854      368          192          176 1.9694845e-13 1.6609012e-14          0.1 0.0090035514    8.7058074  0.029894076 
number of iterations: 1718 
   11200    37.857152      375          193          182 1.9955845e-13 1.6754315e-14          0.1 0.0090035971     8.855443     0.029894 
number of iterations: 1725 
   11300    38.042047      378          194          184 2.0220304e-13 1.6901675e-14          0.1   0.00900364    9.0070601  0.029893928 
number of iterations: 1709 
   11400    38.238725      384          197          187 2.0488267e-13 1.7051113e-14          0.1 0.0090036883    9.1606846  0.029893848 
number of iterations: 1739 
   11500    38.437385      389          199          190 2.0759781e-13 1.7202655e-14          0.1 0.0090037347    9.3163432  0.029893771 
number of iterations: 1770 
   11600    38.628024      392          201          191 2.1034894e-13 1.7356322e-14          0.1 0.0090037876    9.4740631  0.029893682 
number of iterations: 1742 
   11700    38.822174      394          202          192 2.1313652e-13 1.7512141e-14          0.1 0.0090038395    9.6338716  0.029893596 
number of iterations: 1738 
   11800    39.009203      397          203          194 2.1596104e-13 1.7670134e-14          0.1 0.0090038904    9.7957965  0.029893511 
number of iterations: 1748 
   11900    39.203536      402          205          197  2.18823e-13 1.7830328e-14          0.1  0.009003942     9.959866  0.029893425 
number of iterations: 1782 
   12000    39.420385      408          210          198 2.2172288e-13 1.7992748e-14          0.1 0.0090039874    10.126109  0.029893349 
number of iterations: 1746 
   12100    39.644647      410          212          198 2.2466119e-13 1.815742e-14          0.1 0.0090040402    10.294554  0.029893261 
number of iterations: 1748 
   12200     39.82818      416          218          198 2.2763844e-13 1.8324368e-14          0.1 0.0090040912     10.46523  0.029893176 
number of iterations: 1726 
   12300    40.030847      420          221          199 2.3065515e-13 1.8493621e-14          0.1 0.0090041428    10.638167   0.02989309 
number of iterations: 1779 
   12400    40.215672      425          224          201 2.3371183e-13 1.8665201e-14          0.1 0.0090042016    10.813395  0.029892992 
number of iterations: 1747 
   12500    40.412314      431          228          203 2.3680902e-13 1.883914e-14          0.1 0.0090042568    10.990944    0.0298929 
number of iterations: 1748 
   12600    40.610769      439          234          205 2.3994726e-13 1.9015463e-14          0.1 0.0090043124    11.170845  0.029892807 
number of iterations: 1774 
   12700    40.797959      443          238          205 2.4312708e-13 1.9194198e-14          0.1 0.0090043693     11.35313  0.029892712 
number of iterations: 1756 
   12800    40.986411      452          244          208 2.4634905e-13 1.9375373e-14          0.1 0.0090044188     11.53783   0.02989263 
number of iterations: 1779 
   12900    41.191899      460          248          212 2.4961371e-13 1.9559019e-14          0.1 0.0090044747    11.724977  0.029892536 
number of iterations: 1763 
   13000    41.373052      469          253          216 2.5292163e-13 1.974516e-14          0.1 0.0090045311    11.914605  0.029892442 
number of iterations: 1793 
   13100    41.638243      475          258          217 2.562734e-13 1.993383e-14          0.1 0.0090045876    12.106745  0.029892348 
number of iterations: 1795 
   13200    41.836143      482          262          220 2.5966958e-13 2.0125057e-14          0.1 0.0090046466    12.301432  0.029892249 
number of iterations: 1799 
   13300    42.192494      487          266          221 2.6311077e-13 2.0318871e-14          0.1 0.0090047109    12.498698  0.029892142 
number of iterations: 1764 
   13400    42.388016      491          269          222 2.6659756e-13 2.0515304e-14          0.1 0.0090047649    12.698578  0.029892052 
number of iterations: 1749 
   13500     42.59376      497          274          223 2.7013055e-13 2.0714385e-14          0.1 0.0090048264    12.901108   0.02989195 
number of iterations: 1779 
   13600    42.786807      501          277          224 2.7371037e-13 2.0916147e-14          0.1 0.0090048831    13.106323  0.029891855 
number of iterations: 1769 
   13700    42.971035      509          281          228 2.7733763e-13 2.1120621e-14          0.1 0.0090049455    13.314257  0.029891751 
number of iterations: 1796 
   13800    43.163963      516          287          229 2.8101296e-13 2.132784e-14          0.1 0.0090050134    13.524947  0.029891638 
number of iterations: 1796 
   13900    43.368827      522          291          231 2.8473699e-13 2.1537836e-14          0.1 0.0090050766     13.73843  0.029891532 
number of iterations: 1791 
   14000    43.561483      528          294          234 2.8851037e-13 2.1750643e-14          0.1 0.0090051442    13.954743   0.02989142 
number of iterations: 1798 
   14100     43.77483      533          297          236 2.9233376e-13 2.1966295e-14          0.1  0.009005206    14.173923  0.029891316 
number of iterations: 1811 
   14200    43.972296      536          298          238 2.9620782e-13 2.2184827e-14          0.1 0.0090052808    14.396008  0.029891192 
number of iterations: 1809 
   14300    44.169681      543          302          241 3.0013322e-13 2.2406271e-14          0.1 0.0090053507    14.621037  0.029891075 
number of iterations: 1770 
   14400    44.356596      551          307          244 3.0411063e-13 2.2630664e-14          0.1 0.0090054188    14.849048  0.029890961 
number of iterations: 1828 
   14500    44.557647      554          308          246 3.0814076e-13 2.2858039e-14          0.1 0.0090054911    15.080082  0.029890841 
number of iterations: 1844 
   14600    44.787489      561          312          249 3.1222429e-13 2.3088434e-14          0.1 0.0090055685    15.314179  0.029890712 
number of iterations: 1829 
   14700     44.98522      562          313          249 3.1636194e-13 2.3321885e-14          0.1  0.009005645    15.551379  0.029890584 
number of iterations: 1819 
   14800     45.18266      570          317          253 3.2055442e-13 2.3558433e-14          0.1 0.0090057115    15.791723  0.029890473 
number of iterations: 1855 
   14900     45.37281      580          325          255 3.2480247e-13 2.379811e-14          0.1 0.0090057996    16.035255  0.029890326 
number of iterations: 1819 
   15000    45.588507      587          329          258 3.291068e-13 2.4040956e-14          0.1  0.009005869    16.282015   0.02989021 
number of iterations: 1832 
   15100    45.771093      588          329          259 3.3346818e-13 2.428701e-14          0.1 0.0090059468    16.532047  0.029890081 
number of iterations: 1825 
   15200    45.960562      593          330          263 3.3788736e-13 2.4536311e-14          0.1 0.0090060175    16.785394  0.029889963 
number of iterations: 1781 
   15300    46.154458      599          335          264 3.4236509e-13 2.4788899e-14          0.1 0.0090060751    17.042101  0.029889867 
number of iterations: 1860 
   15400    46.345356      602          336          266 3.4690217e-13 2.5044812e-14          0.1 0.0090061623    17.302211  0.029889721 
number of iterations: 1850 
   15500    46.543311      612          343          269 3.5149938e-13 2.5304091e-14          0.1 0.0090062436    17.565769  0.029889586 
number of iterations: 1862 
   15600      46.7399      619          347          272 3.561575e-13 2.5566779e-14          0.1 0.0090063351    17.832823  0.029889433 
number of iterations: 1849 
   15700    47.011176      622          350          272 3.6087736e-13 2.5832916e-14          0.1 0.0090064127    18.103419  0.029889304 
number of iterations: 1833 
   15800     47.20476      629          355          274 3.6565977e-13 2.6102545e-14          0.1 0.0090064987    18.377602   0.02988916 
number of iterations: 1860 
   15900    47.408205      631          356          275 3.7050555e-13 2.6375708e-14          0.1 0.0090065949     18.65542     0.029889 
number of iterations: 1896 
   16000    47.671909      640          361          279 3.7541555e-13 2.665245e-14          0.1 0.0090066835    18.936923  0.029888852 
number of iterations: 1872 
   16100    47.858888      649          367          282 3.8039061e-13 2.6932814e-14          0.1 0.0090067818    19.222158  0.029888688 
number of iterations: 1870 
   16200    48.057466      661          376          285 3.8543161e-13 2.7216842e-14          0.1 0.0090068733    19.511177  0.029888535 
number of iterations: 1844 
   16300    48.255449      674          384          290 3.9053941e-13 2.7504581e-14          0.1  0.009006957    19.804027  0.029888396 
number of iterations: 1842 
   16400      48.4529      681          387          294 3.957149e-13 2.7796078e-14          0.1 0.0090070462    20.100762  0.029888247 
number of iterations: 1891 
   16500    48.656956      686          391          295 4.0095898e-13 2.8091378e-14          0.1 0.0090071398    20.401432  0.029888091 
number of iterations: 1852 
   16600     48.85657      694          395          299 4.0627255e-13 2.8390527e-14          0.1 0.0090072246    20.706089   0.02988795 
number of iterations: 1861 
   16700    49.052548      705          399          306 4.1165653e-13 2.8693575e-14          0.1 0.0090073152    21.014786  0.029887798 
number of iterations: 1874 
   16800    49.263606      709          402          307 4.1711187e-13 2.9000567e-14          0.1 0.0090074097    21.327577  0.029887641 
number of iterations: 1898 
   16900    49.457938      719          408          311 4.226395e-13 2.9311553e-14          0.1 0.0090075095    21.644516  0.029887474 
number of iterations: 1882 
   17000    49.698828      725          412          313 4.2824038e-13 2.9626582e-14          0.1 0.0090076116    21.965658  0.029887304 
number of iterations: 1896 
   17100    49.908517      733          416          317 4.3391549e-13 2.9945706e-14          0.1 0.0090077121     22.29106  0.029887136 
number of iterations: 1874 
   17200    50.103482      741          421          320 4.3966581e-13 3.0268973e-14          0.1  0.009007792    22.620776  0.029887003 
number of iterations: 1845 
   17300    50.296118      753          428          325 4.4549232e-13 3.0596436e-14          0.1 0.0090078865    22.954866  0.029886845 
number of iterations: 1866 
   17400    50.486193      758          432          326 4.5139605e-13 3.0928146e-14          0.1 0.0090079762    23.293385  0.029886696 
number of iterations: 1908 
   17500    50.684834      773          443          330 4.5737802e-13 3.1264156e-14          0.1 0.0090080899    23.636394  0.029886506 
number of iterations: 1913 
   17600    50.893291      783          449          334 4.6343926e-13 3.1604519e-14          0.1 0.0090081917    23.983952  0.029886336 
number of iterations: 1918 
   17700     51.09269      797          460          337 4.6958083e-13 3.1949289e-14          0.1 0.0090083064     24.33612  0.029886145 
number of iterations: 1909 
   17800    51.288895      808          466          342 4.7580378e-13 3.2298522e-14          0.1 0.0090084322    24.692957  0.029885935 
number of iterations: 1910 
   17900    51.588281      822          474          348 4.8210921e-13 3.2652271e-14          0.1 0.0090085385    25.054526  0.029885758 
number of iterations: 1918 
   18000    51.796655      833          481          352 4.8849819e-13 3.3010592e-14          0.1 0.0090086543    25.420891  0.029885565 
number of iterations: 1906 
   18100    52.036656      843          488          355 4.9497183e-13 3.3373544e-14          0.1 0.0090087747    25.792115  0.029885364 
number of iterations: 1902 
   18200    52.271678      856          497          359 5.0153127e-13 3.3741183e-14          0.1 0.0090088764    26.168262  0.029885194 
number of iterations: 1948 
   18300    52.480469      867          507          360 5.0817764e-13 3.4113568e-14          0.1 0.0090090211    26.549398  0.029884953 
number of iterations: 1913 
   18400    52.706829      880          514          366 5.1491208e-13 3.4490759e-14          0.1 0.0090091407     26.93559  0.029884754 
number of iterations: 1921 
   18500    52.930645      890          522          368 5.2173577e-13 3.4872815e-14          0.1 0.0090092626    27.326904   0.02988455 
number of iterations: 1927 
   18600    53.143048      903          533          370 5.2864988e-13 3.5259795e-14          0.1 0.0090093862    27.723408  0.029884344 
number of iterations: 1935 
   18700    53.345659      915          538          377 5.3565563e-13 3.5651762e-14          0.1 0.0090095086    28.125171   0.02988414 
number of iterations: 1964 
   18800     53.54565      927          546          381 5.4275421e-13 3.6048778e-14          0.1 0.0090096446    28.532262  0.029883913 
number of iterations: 1919 
   18900    53.799255      937          553          384 5.4994686e-13 3.6450907e-14          0.1 0.0090097745    28.944754  0.029883697 
number of iterations: 1937 
   19000    54.007678      945          556          389 5.5723483e-13 3.6858212e-14          0.1 0.0090099129    29.362716  0.029883466 
number of iterations: 1909 
   19100     54.21747      957          564          393 5.6461938e-13 3.7270757e-14          0.1 0.0090100384    29.786223  0.029883256 
number of iterations: 1960 
   19200    54.468568      978          578          400 5.721018e-13 3.7688607e-14          0.1 0.0090101785    30.215346  0.029883023 
number of iterations: 1930 
   19300    54.718647      984          580          404 5.7968337e-13 3.8111829e-14          0.1  0.009010295    30.650162  0.029882828 
number of iterations: 1955 
   19400    54.950656      998          588          410 5.8736541e-13 3.854049e-14          0.1 0.0090104296    31.090746  0.029882604 
number of iterations: 1927 
   19500    55.153998     1005          594          411 5.9514925e-13 3.8974658e-14          0.1 0.0090105573    31.537174  0.029882391 
number of iterations: 1956 
   19600    55.359634     1019          601          418 6.0303625e-13 3.9414402e-14          0.1  0.009010703    31.989523  0.029882148 
number of iterations: 1945 
   19700    55.586247     1032          609          423 6.1102776e-13 3.9859792e-14          0.1  0.009010841    32.447873  0.029881918 
number of iterations: 1989 
   19800    55.814805     1045          618          427 6.1912518e-13  4.03109e-14          0.1 0.0090109828    32.912303  0.029881681 
number of iterations: 1964 
   19900    56.022665     1059          624          435 6.2732991e-13 4.0767795e-14          0.1 0.0090111293    33.382893  0.029881437 
number of iterations: 1969 
   20000    56.236951     1081          632          449 6.3564336e-13 4.1230551e-14          0.1 0.0090112856    33.859724  0.029881176 
number of iterations: 1953 
   20100    56.448223     1090          636          454 6.4406699e-13 4.1699241e-14          0.1 0.0090114211    34.342879   0.02988095 
number of iterations: 2005 
   20200    56.659905     1100          641          459 6.5260224e-13 4.2173939e-14          0.1 0.0090115859    34.832444  0.029880675 
number of iterations: 1952 
   20300    56.860571     1115          653          462 6.6125061e-13 4.2654722e-14          0.1 0.0090117344    35.328503  0.029880428 
number of iterations: 1973 
   20400    57.085932     1128          662          466 6.7001358e-13 4.3141664e-14          0.1   0.00901189    35.831142  0.029880168 
number of iterations: 1976 
   20500    57.303615     1143          671          472 6.7889268e-13 4.3634844e-14          0.1 0.0090120524    36.340447  0.029879897 
number of iterations: 1967 
   20600    57.517172     1159          682          477 6.8788945e-13 4.4134339e-14          0.1 0.0090122104    36.856508  0.029879634 
number of iterations: 1998 
   20700    57.769568     1173          691          482 6.9700544e-13 4.4640228e-14          0.1 0.0090123746    37.379414   0.02987936 
number of iterations: 1951 
   20800    58.027702     1184          698          486 7.0624224e-13 4.5152589e-14          0.1 0.0090125318    37.909256  0.029879098 
number of iterations: 1996 
   20900    58.247727     1194          705          489 7.1560145e-13 4.5671506e-14          0.1 0.0090127008    38.446125  0.029878816 
number of iterations: 1977 
   21000     58.46054     1205          711          494 7.2508468e-13 4.6197062e-14          0.1 0.0090128687    38.990116  0.029878536 
number of iterations: 1995 
   21100    58.675502     1216          719          497 7.3469358e-13 4.672934e-14          0.1 0.0090130408    39.541324  0.029878249 
number of iterations: 1981 
   21200    58.884927     1234          729          505 7.4442983e-13 4.7268422e-14          0.1 0.0090131898    40.099843     0.029878 
number of iterations: 1984 
   21300    59.094056     1243          735          508 7.5429509e-13 4.7814396e-14          0.1 0.0090133488    40.665771  0.029877735 
number of iterations: 2025 
   21400    59.317428     1263          748          515 7.642911e-13 4.8367348e-14          0.1 0.0090135416    41.239205  0.029877414 
number of iterations: 2005 
   21500    59.543992     1280          757          523 7.7441956e-13 4.8927367e-14          0.1 0.0090137059    41.820247  0.029877139 
number of iterations: 2009 
   21600    59.787838     1292          763          529 7.8468226e-13 4.949454e-14          0.1 0.0090138865    42.408996  0.029876838 
number of iterations: 2006 
   21700    60.039912     1305          774          531 7.9508095e-13 5.0068957e-14          0.1 0.0090140627    43.005555  0.029876544 
number of iterations: 2032 
   21800     60.24845     1325          786          539 8.0561745e-13 5.065071e-14          0.1  0.009014251    43.610029   0.02987623 
number of iterations: 2015 
   21900    60.490086     1337          792          545 8.1629357e-13 5.1239891e-14          0.1 0.0090144452     44.22252  0.029875906 
number of iterations: 2017 
   22000    60.711507     1349          799          550 8.2711118e-13 5.1836595e-14          0.1 0.0090146313    44.843137  0.029875596 
number of iterations: 2040 
   22100    60.935427     1366          813          553 8.3807214e-13 5.2440915e-14          0.1 0.0090148326    45.471984   0.02987526 
number of iterations: 2012 
   22200    61.166682     1381          823          558 8.4917835e-13 5.3052946e-14          0.1  0.009015036    46.109175  0.029874921 
number of iterations: 2041 
   22300    61.414229     1399          833          566 8.6043175e-13 5.3672788e-14          0.1  0.009015229    46.754818  0.029874599 
number of iterations: 2020 
   22400    61.667204     1415          841          574 8.7183427e-13 5.4300536e-14          0.1 0.0090154217    47.409025  0.029874278 
number of iterations: 2016 
   22500    61.889071     1439          859          580 8.833879e-13 5.4936292e-14          0.1 0.0090156077    48.071911  0.029873968 
number of iterations: 2040 
   22600    62.175511     1453          868          585 8.9509464e-13 5.5580154e-14          0.1 0.0090158176    48.743591  0.029873618 
number of iterations: 2006 
   22700    62.393923     1476          882          594 9.0695652e-13 5.6232226e-14          0.1 0.0090160227    49.424181  0.029873275 
number of iterations: 2032 
   22800    62.600239     1505          903          602 9.1897559e-13 5.6892611e-14          0.1 0.0090162189    50.113799  0.029872948 
number of iterations: 2033 
   22900     62.85599     1528          917          611 9.3115394e-13 5.7561411e-14          0.1 0.0090164562    50.812566  0.029872553 
number of iterations: 2055 
   23000     63.11207     1548          929          619 9.4205547e-13 5.8238734e-14          0.1 0.0090166479    51.519501  0.029872233 
number of iterations: 2054 
   23100     63.33991     1567          945          622 9.5453967e-13 5.8924687e-14          0.1 0.0090168769    52.235813  0.029871851 
number of iterations: 2037 
   23200     63.56413     1596          961          635 9.6718932e-13 5.9619378e-14          0.1 0.0090170976    52.961628  0.029871483 
number of iterations: 2047 
   23300    63.784628     1615          973          642 9.8000659e-13 6.0322919e-14          0.1 0.0090173096     53.69707  0.029871129 
number of iterations: 2063 
   23400    64.020928     1642          990          652 9.9299372e-13 6.1035419e-14          0.1 0.0090175609    54.442269   0.02987071 
number of iterations: 2077 
   23500    64.243759     1659         1003          656 1.006153e-12 6.1756992e-14          0.1 0.0090177966    55.197354  0.029870317 
number of iterations: 2045 
   23600    64.478191     1677         1015          662 1.0194866e-12 6.2487752e-14          0.1  0.009018028    55.962455  0.029869931 
number of iterations: 2082 
   23700    64.767483     1704         1036          668 1.0329969e-12 6.3227814e-14          0.1 0.0090182761    56.737705  0.029869518 
number of iterations: 2062 
   23800    64.988036     1722         1048          674 1.0466862e-12 6.3977297e-14          0.1 0.0090184897    57.523238  0.029869161 
number of iterations: 2082 
   23900    65.211843     1737         1057          680 1.060557e-12 6.4736318e-14          0.1 0.0090187406    58.319193  0.029868743 
number of iterations: 2035 
   24000    65.457076     1762         1075          687 1.0746116e-12 6.5504998e-14          0.1   0.00901896    59.125706  0.029868377 
number of iterations: 2060 
   24100    65.686652     1782         1086          696 1.0888524e-12 6.6283461e-14          0.1 0.0090191937     59.94292  0.029867987 
number of iterations: 2100 
   24200    65.913218     1799         1097          702 1.103282e-12 6.7071828e-14          0.1 0.0090194662    60.770974  0.029867533 
number of iterations: 2060 
   24300     66.14634     1829         1117          712 1.1179027e-12 6.7870226e-14          0.1 0.0090197267    61.610011  0.029867098 
number of iterations: 2118 
   24400    66.402833     1849         1127          722 1.1327173e-12 6.8678781e-14          0.1 0.0090200145    62.460178  0.029866618 
number of iterations: 2086 
   24500    66.642199     1874         1136          738 1.1477281e-12 6.9497623e-14          0.1 0.0090202718    63.321623  0.029866189 
number of iterations: 2085 
   24600    66.900518     1906         1153          753 1.1629379e-12 7.032688e-14          0.1  0.009020521    64.194496  0.029865774 
number of iterations: 2089 
   24700    67.167426     1924         1163          761 1.1783492e-12 7.1166683e-14          0.1 0.0090208059    65.078947  0.029865298 
number of iterations: 2103 
   24800    67.392212     1949         1182          767 1.1939648e-12 7.2017165e-14          0.1 0.0090210808    65.975132   0.02986484 
number of iterations: 2072 
   24900    67.624006     1986         1201          785 1.2097872e-12 7.2878459e-14          0.1 0.0090213293    66.883205  0.029864426 
number of iterations: 2088 
   25000    67.873373     2010         1214          796 1.2258194e-12 7.3750704e-14          0.1 0.0090215901    67.803325   0.02986399 
number of iterations: 2090 
   25100    68.145251     2035         1226          809 1.242064e-12 7.4634037e-14          0.1 0.0090218685    68.735648  0.029863526 
number of iterations: 2105 
   25200    68.405851     2054         1238          816 1.2585239e-12  7.55286e-14          0.1 0.0090221618    69.680339  0.029863037 
number of iterations: 2116 
   25300    68.619045     2084         1256          828 1.275202e-12 7.6434533e-14          0.1 0.0090224454    70.637562  0.029862564 
number of iterations: 2106 
   25400     68.84537     2107         1273          834 1.292101e-12 7.7351979e-14          0.1 0.0090227334    71.607481  0.029862084 
number of iterations: 2112 
   25500    69.071182     2132         1292          840 1.309224e-12 7.8281085e-14          0.1 0.0090230372    72.590267  0.029861577 
number of iterations: 2101 
   25600    69.310435     2154         1307          847 1.3252317e-12 7.9221998e-14          0.1 0.0090232923    73.585062  0.029861151 
number of iterations: 2129 
   25700    69.555621     2190         1333          857 1.3427937e-12 8.0174867e-14          0.1 0.0090236198    74.593053  0.029860605 
number of iterations: 2114 
   25800    69.769242     2214         1349          865 1.3605885e-12 8.1139843e-14          0.1 0.0090239257    75.614416  0.029860095 
number of iterations: 2100 
   25900    70.008346     2232         1357          875 1.3786191e-12 8.2117079e-14          0.1 0.0090242162    76.649328  0.029859611 
number of iterations: 2144 
   26000    70.283447     2257         1373          884 1.3968886e-12 8.3106729e-14          0.1 0.0090245366    77.697968  0.029859076 
number of iterations: 2123 
   26100    70.557259     2284         1389          895 1.4154002e-12 8.4108951e-14          0.1 0.0090248536    78.760521  0.029858547 
number of iterations: 2162 
   26200    70.795636     2310         1406          904 1.4341571e-12 8.5123904e-14          0.1 0.0090252185    79.837169  0.029857939 
number of iterations: 2086 
   26300    71.036784     2338         1421          917 1.4531626e-12 8.6151747e-14          0.1 0.0090255069      80.9281  0.029857458 
number of iterations: 2154 
   26400    71.262945     2364         1435          929  1.47242e-12 8.7192642e-14          0.1 0.0090258289    82.033501  0.029856921 
number of iterations: 2139 
   26500    71.532133     2393         1455          938 1.4919325e-12 8.8246757e-14          0.1 0.0090261794    83.153565  0.029856336 
number of iterations: 2133 
   26600    71.801111     2419         1476          943 1.5117037e-12 8.9314257e-14          0.1 0.0090265144    84.288489  0.029855778 
number of iterations: 2134 
   26700    72.029392     2441         1488          953 1.5317368e-12 9.0395312e-14          0.1 0.0090268675    85.438468  0.029855189 
number of iterations: 2153 
   26800    72.277271     2474         1511          963 1.5520354e-12 9.1490093e-14          0.1 0.0090272104    86.603702  0.029854617 
number of iterations: 2131 
   26900    72.556747     2520         1538          982 1.5712008e-12 9.259877e-14          0.1 0.0090275112     87.78332  0.029854115 
number of iterations: 2127 
   27000    72.807381     2557         1559          998 1.5906728e-12 9.3721523e-14          0.1 0.0090278429     88.97755  0.029853562 
number of iterations: 2169 
   27100    73.044784     2602         1590         1012 1.6117525e-12 9.4858528e-14          0.1 0.0090282243    90.187623  0.029852926 
number of iterations: 2122 
   27200    73.289374     2637         1613         1024 1.6317264e-12 9.6009963e-14          0.1 0.0090285753    91.412687   0.02985234 
number of iterations: 2156 
   27300    73.531214     2669         1634         1035 1.6533501e-12 9.7176013e-14          0.1 0.0090289472    92.654001   0.02985172 
number of iterations: 2158 
   27400    73.781326     2714         1656         1058 1.6752603e-12 9.8356864e-14          0.1 0.0090293146    93.911782  0.029851107 
number of iterations: 2175 
   27500    74.028785     2741         1671         1070 1.6974609e-12 9.9552702e-14          0.1 0.0090296915    95.186248  0.029850478 
number of iterations: 2183 
   27600    74.263485     2775         1697         1078 1.7199556e-12 1.0076372e-13          0.1 0.0090301031     96.47762  0.029849792 
number of iterations: 2190 
   27700    74.516084     2807         1717         1090 1.7427485e-12 1.019901e-13          0.1 0.0090305306    97.786121  0.029849079 
number of iterations: 2168 
   27800    74.845266     2835         1735         1100 1.7658434e-12 1.0323205e-13          0.1 0.0090309387     99.11198  0.029848399 
number of iterations: 2176 
   27900    75.088544     2864         1752         1112 1.7892443e-12 1.0448975e-13          0.1 0.0090313192    100.45543  0.029847764 
number of iterations: 2204 
   28000    75.316719     2905         1778         1127 1.8129554e-12 1.0576341e-13          0.1 0.0090317444     101.8167  0.029847055 
number of iterations: 2197 
   28100    75.564517     2938         1803         1135 1.8369806e-12 1.0705324e-13          0.1 0.0090321601    103.19603  0.029846362 
number of iterations: 2164 
   28200    75.811641     2977         1826         1151 1.8613243e-12 1.0835943e-13          0.1 0.0090325575    104.59366  0.029845699 
number of iterations: 2183 
   28300     76.05811     3013         1849         1164 1.8859905e-12 1.0968219e-13          0.1 0.0090329969    106.00982  0.029844966 
number of iterations: 2161 
   28400    76.288694     3048         1876         1172 1.9109837e-12 1.1102174e-13          0.1  0.009033389    107.44478  0.029844312 
number of iterations: 2183 
   28500    76.529748     3092         1909         1183 1.936308e-12 1.1237827e-13          0.1 0.0090337799    108.89877   0.02984366 
number of iterations: 2186 
   28600    76.800104     3134         1938         1196 1.9619679e-12 1.1375201e-13          0.1 0.0090342164    110.37204  0.029842932 
number of iterations: 2191 
   28700    77.043057     3176         1963         1213 1.9879678e-12 1.1514319e-13          0.1 0.0090346399    111.86487  0.029842226 
number of iterations: 2203 
   28800    77.303812     3215         1991         1224 2.0143123e-12 1.1655201e-13          0.1 0.0090351093    113.37749  0.029841443 
number of iterations: 2207 
   28900    77.544213     3255         2017         1238 2.041006e-12 1.179787e-13          0.1  0.009035558    114.91018  0.029840694 
number of iterations: 2207 
   29000    77.811022     3301         2045         1256 2.0680533e-12 1.1942348e-13          0.1 0.0090360047     116.4632  0.029839949 
number of iterations: 2197 
   29100    78.057258     3349         2072         1277 2.0954591e-12 1.2088659e-13          0.1 0.0090364594    118.03683  0.029839191 
number of iterations: 2205 
   29200    78.304258     3394         2100         1294 2.123228e-12 1.2236826e-13          0.1 0.0090369176    119.63133  0.029838427 
number of iterations: 2214 
   29300    78.592834     3428         2123         1305 2.151365e-12 1.2386872e-13          0.1 0.0090374005    121.24698  0.029837621 
number of iterations: 2216 
   29400    78.855215     3482         2151         1331 2.1798748e-12 1.2538822e-13          0.1 0.0090378655    122.88407  0.029836846 
number of iterations: 2216 
   29500    79.096124     3529         2181         1348 2.2087624e-12 1.2692698e-13          0.1  0.009038367    124.54288  0.029836009 
number of iterations: 2219 
   29600    79.341973     3570         2209         1361 2.2380328e-12 1.2848526e-13          0.1 0.0090388539    126.22369  0.029835197 
number of iterations: 2215 
   29700    79.598316     3636         2250         1386 2.2676911e-12 1.300633e-13          0.1 0.0090393406    127.92681  0.029834386 
number of iterations: 2192 
   29800    79.841758     3688         2278         1410 2.2977424e-12 1.3166135e-13          0.1 0.0090398203    129.65251  0.029833585 
number of iterations: 2212 
   29900    80.106739     3736         2311         1425 2.3259105e-12 1.3327967e-13          0.1 0.0090403107    131.39936  0.029832768 
number of iterations: 2198 
   30000    80.379323     3786         2342         1444 2.3554625e-12 1.3491851e-13          0.1 0.0090407892    133.16841  0.029831969 
number of iterations: 2257 
   30100    80.651335     3839         2370         1469 2.386677e-12 1.3657812e-13          0.1 0.0090413405    134.96093   0.02983105 
number of iterations: 2229 
   30200    80.905105     3883         2397         1486 2.4183051e-12 1.3825878e-13          0.1 0.0090418572    136.77722  0.029830188 
number of iterations: 2241 
   30300    81.164916     3935         2429         1506 2.4503523e-12 1.3996076e-13          0.1 0.0090424215    138.61762  0.029829247 
number of iterations: 2232 
   30400    81.459915     3980         2457         1523 2.4828242e-12 1.4168431e-13          0.1 0.0090429515    140.48243  0.029828363 
number of iterations: 2252 
   30500    81.720233     4030         2495         1535 2.5157264e-12 1.4342972e-13          0.1 0.0090435141    142.37197  0.029827425 
number of iterations: 2223 
   30600    81.970393     4076         2522         1554 2.5490646e-12 1.4519725e-13          0.1 0.0090440632    144.28658  0.029826509 
number of iterations: 2255 
   30700    82.248135     4119         2551         1568 2.5828447e-12 1.469872e-13          0.1 0.0090446121     146.2266  0.029825593 
number of iterations: 2257 
   30800    82.533823     4164         2578         1586 2.6170723e-12 1.4879984e-13          0.1 0.0090451863    148.19235  0.029824636 
number of iterations: 2278 
   30900     82.81709     4209         2608         1601 2.6517536e-12 1.5063547e-13          0.1 0.0090458364    150.18418  0.029823552 
number of iterations: 2270 
   31000    83.085533     4253         2634         1619 2.6868944e-12 1.5249437e-13          0.1 0.0090464436    152.20244  0.029822539 
number of iterations: 2275 
   31100    83.370338     4315         2672         1643 2.7225009e-12 1.5437684e-13          0.1 0.0090470441    154.24747  0.029821538 
number of iterations: 2269 
   31200    83.647609     4366         2707         1659 2.7585792e-12 1.5628317e-13          0.1 0.0090476677    156.31963  0.029820498 
number of iterations: 2262 
   31300     83.92766     4421         2746         1675 2.794354e-12 1.5821368e-13          0.1  0.009048279    158.41868  0.029819478 
number of iterations: 2246 
   31400    84.211232     4491         2792         1699 2.8313845e-12 1.6016865e-13          0.1  0.009048864    160.54557  0.029818502 
number of iterations: 2228 
   31500    84.487652     4553         2830         1723 2.8676726e-12 1.6214841e-13          0.1 0.0090494387    162.69974  0.029817543 
number of iterations: 2263 
   31600    84.838188     4607         2861         1746 2.9046111e-12 1.6415326e-13          0.1 0.0090500563    164.88167  0.029816513 
number of iterations: 2282 
   31700    85.134471     4673         2898         1775 2.9431027e-12 1.6618353e-13          0.1 0.0090506963    167.09255  0.029815446 
number of iterations: 2280 
   31800    85.385772     4726         2930         1796 2.9807553e-12 1.6823954e-13          0.1 0.0090513507    169.33173  0.029814355 
number of iterations: 2282 
   31900    85.648656     4793         2974         1819 3.020256e-12 1.703216e-13          0.1 0.0090519697    171.60061  0.029813322 
number of iterations: 2301 
   32000    85.916747     4848         3011         1837 3.0602801e-12 1.7243006e-13          0.1 0.0090526829    173.89958  0.029812133 
number of iterations: 2280 
   32100    86.181075     4921         3059         1862 3.1008345e-12 1.7456525e-13          0.1 0.0090533918    176.22906  0.029810951 
number of iterations: 2284 
   32200    86.445636     4989         3098         1891 3.1406503e-12 1.7672751e-13          0.1 0.0090540978    178.58846  0.029809773 
number of iterations: 2277 
   32300    86.772223     5050         3135         1915 3.1822698e-12 1.7891717e-13          0.1 0.0090547829    180.97917  0.029808631 
number of iterations: 2291 
   32400    87.034266     5103         3169         1934 3.2231211e-12 1.8113459e-13          0.1 0.0090554521    183.40059  0.029807514 
number of iterations: 2285 
   32500    87.366433     5160         3205         1955 3.2658335e-12 1.8338012e-13          0.1 0.0090561607    185.85413  0.029806333 
number of iterations: 2302 
   32600    87.621796     5223         3250         1973 3.3077313e-12 1.8565411e-13          0.1 0.0090569156    188.33916  0.029805074 
number of iterations: 2276 
   32700    87.927812     5304         3297         2007 3.3515649e-12 1.8795693e-13          0.1 0.0090576369    190.85715  0.029803871 
number of iterations: 2260 
   32800    88.191921     5366         3338         2028 3.3952186e-12 1.9028893e-13          0.1 0.0090582867    193.40797  0.029802787 
number of iterations: 2280 
   32900    88.486276     5429         3375         2054 3.4359567e-12 1.9265049e-13          0.1 0.0090589591    195.98936  0.029801665 
number of iterations: 2310 
   33000    88.759415     5499         3417         2082 3.4814895e-12 1.9504198e-13          0.1 0.0090597553    198.60501  0.029800337 
number of iterations: 2303 
   33100    89.026405     5561         3458         2103 3.5276256e-12 1.9746378e-13          0.1 0.0090605144    201.25535  0.029799071 
number of iterations: 2310 
   33200    89.298717     5622         3505         2117 3.5743732e-12 1.9991629e-13          0.1 0.0090613267    203.94085  0.029797717 
number of iterations: 2299 
   33300    89.580922     5699         3555         2144 3.6217402e-12 2.0239988e-13          0.1  0.009062087    206.66199  0.029796449 
number of iterations: 2294 
   33400    89.863977     5778         3607         2171 3.6697349e-12 2.0491494e-13          0.1 0.0090628651    209.41921  0.029795151 
number of iterations: 2330 
   33500    90.142447     5861         3662         2199 3.7183656e-12 2.0746189e-13          0.1 0.0090637234    212.21302   0.02979372 
number of iterations: 2306 
   33600     90.44464     5930         3713         2217 3.7676407e-12 2.1004111e-13          0.1 0.0090644758     215.0439  0.029792465 
number of iterations: 2288 
   33700    90.735292     6024         3769         2255 3.8162033e-12 2.1265303e-13          0.1 0.0090652151    217.91129  0.029791231 
number of iterations: 2322 
   33800    91.006334     6125         3835         2290 3.8659583e-12 2.1529805e-13          0.1 0.0090660257    220.81609  0.029789879 
number of iterations: 2325 
   33900    91.293761     6198         3890         2308 3.9171892e-12 2.179766e-13          0.1 0.0090668633    223.75943  0.029788483 
number of iterations: 2337 
   34000    91.624175     6269         3936         2333 3.9690991e-12 2.2068909e-13          0.1  0.009067676    226.74181  0.029787127 
number of iterations: 2337 
   34100    91.915684     6350         3984         2366 4.0216968e-12 2.2343598e-13          0.1 0.0090685452    229.76375  0.029785677 
number of iterations: 2343 
   34200    92.203289     6444         4045         2399 4.0749916e-12 2.2621768e-13          0.1 0.0090693968    232.82578  0.029784257 
number of iterations: 2305 
   34300    92.509796     6529         4102         2427 4.1251097e-12 2.2903464e-13          0.1 0.0090701799    235.92546   0.02978295 
number of iterations: 2356 
   34400    92.799109     6601         4153         2448 4.1797748e-12 2.3188731e-13          0.1 0.0090711291    239.06624  0.029781367 
number of iterations: 2332 
   34500    93.086795     6672         4194         2478 4.2340442e-12 2.3477613e-13          0.1 0.0090720152    242.24784   0.02977989 
number of iterations: 2327 
   34600    93.371672     6759         4246         2513 4.2893215e-12 2.3770158e-13          0.1 0.0090728969    245.47101  0.029778419 
number of iterations: 2345 
   34700    93.672498     6852         4302         2550 4.3447352e-12 2.406641e-13          0.1 0.0090738181    248.73585  0.029776883 
number of iterations: 2336 
   34800    93.955386     6935         4348         2587 4.4005691e-12 2.4366418e-13          0.1 0.0090747767    252.04265  0.029775284 
number of iterations: 2352 
   34900    94.233204     7003         4387         2616 4.4566526e-12 2.4670228e-13          0.1 0.0090756872    255.39161  0.029773765 
number of iterations: 2348 
   35000    94.517721     7109         4454         2655 4.5157112e-12 2.4977888e-13          0.1 0.0090766087    258.78499  0.029772229 
Loop time of 94.5178 on 32 procs for 35000 steps with 7109 atoms

Performance: 319939844.197 tau/day, 370.301 timesteps/s
91.8% CPU use with 32 MPI tasks x no OpenMP threads

MPI task timing breakdown:
Section |  min time  |  avg time  |  max time  |%varavg| %total
---------------------------------------------------------------
Pair    | 0.013506   | 0.099049   | 0.27787    |  20.6 |  0.10
Neigh   | 0.0056192  | 0.032212   | 0.085003   |  11.0 |  0.03
Comm    | 0.07756    | 0.18268    | 0.2782     |  13.8 |  0.19
Output  | 23.004     | 23.005     | 23.013     |   0.0 | 24.34
Modify  | 70.598     | 70.662     | 70.761     |   0.4 | 74.76
Other   |            | 0.5377     |            |       |  0.57

Nlocal:    222.156 ave 536 max 35 min
Histogram: 3 6 5 5 4 3 2 3 0 1
Nghost:    110.875 ave 206 max 28 min
Histogram: 5 2 4 3 5 2 2 3 3 3
Neighs:    899.125 ave 2377 max 131 min
Histogram: 5 7 2 7 3 3 1 2 1 1

Total # of neighbors = 28772
Ave neighs/atom = 4.04726
Neighbor list builds = 679
Dangerous builds = 0
Total wall time: 0:01:34
