LAMMPS (20 Nov 2019)
Reading data file ...
  orthogonal box = (0 0 0) to (0.0001 0.0001 0.0001)
  2 by 4 by 4 MPI processor grid
  reading atoms ...
  100 atoms
  4 nutrients
Lattice spacing in x,y,z = 100 100 100
100 atoms in group CYANO
0 atoms in group ECW
Model is defined as a closed system. 
Neighbor list info ...
  update every 1 steps, delay 0 steps, check yes
  max neighbors/atom: 5000, page size: 100000
  master list distance cutoff = 2.42e-06
  ghost atom cutoff = 2.42e-06
  binsize = 1.21e-06, bins = 83 83 83
  1 neighbor lists, perpetual/occasional/extra = 1 0 0
  (1) pair gran/hooke/history, perpetual
      attributes: half, newton off, size, history
      pair build: half/size/bin/newtoff
      stencil: half/bin/3d/newtoff
      bin: standard
Setting up Verlet run ...
  Unit style    : lj
  Current step  : 0
  Time step     : 10
Per MPI rank memory allocation (min/avg/max) = 5.859 | 9.893 | 10.91 Mbytes
Step CPU Atoms c_myNtypes[1] c_myNtypes[2] c_myMass[1] c_myMass[2] c_myCon[1] c_myCon[2] c_myCon[3] c_myCon[4] 
       0            0      100          100            0 8.9071518e-14            0          0.1        0.009     3.42e-20       0.0299 
number of iterations: 120381 
     100    1.2652119      100          100            0 9.0791395e-14            0          0.1 0.0090003187 1.2983714e-06  0.029899469 
number of iterations: 105141 
     200     2.324769      100          100            0 9.2544481e-14            0          0.1 0.0090003249  3.39856e-06  0.029899459 
number of iterations: 93309 
     300    3.2777854      100          100            0 9.4331418e-14            0          0.1 0.0090003312 6.6881941e-06  0.029899449 
number of iterations: 82641 
     400     4.124913      100          100            0 9.6152858e-14            0          0.1 0.0090003375 1.182579e-05  0.029899438 
number of iterations: 73017 
     500    4.8889044      103          103            0 9.8009468e-14            0          0.1 0.0090003439 1.969825e-05  0.029899427 
number of iterations: 63667 
     600    5.5964334      105          105            0 9.9901928e-14            0          0.1 0.0090003505 3.1798913e-05  0.029899416 
number of iterations: 54595 
     700    6.1851188      107          107            0 1.0183093e-13            0          0.1 0.0090003562 5.0494287e-05  0.029899407 
number of iterations: 45295 
     800    6.6818967      109          109            0 1.0379718e-13            0          0.1 0.0090003631 7.9710251e-05  0.029899395 
number of iterations: 35759 
     900    7.0890556      110          110            0 1.0580139e-13            0          0.1 0.0090003701 0.00012629239  0.029899384 
number of iterations: 25846 
    1000    7.4038948      110          110            0 1.078443e-13            0          0.1 0.0090003773 0.00020305426  0.029899372 
number of iterations: 16861 
    1100    7.6631892      114          114            0 1.0992666e-13            0          0.1 0.0090003841 0.00032755638   0.02989936 
number of iterations: 12849 
    1200     7.857723      115          115            0 1.1204923e-13            0          0.1 0.0090003915 0.00048786966  0.029899348 
number of iterations: 12623 
    1300    8.0444378      119          119            0 1.1421278e-13            0          0.1 0.0090003991 0.00068617745  0.029899336 
number of iterations: 12675 
    1400    8.2249233      122          122            0 1.1641811e-13            0          0.1 0.0090004068 0.00092332398  0.029899323 
number of iterations: 12398 
    1500    8.4009999      125          125            0 1.1866602e-13            0          0.1 0.0090004131 0.0011889397  0.029899312 
number of iterations: 10480 
    1600    8.5486516      127          127            0 1.2095734e-13            0          0.1 0.0090004172 0.0014807889  0.029899305 
number of iterations: 12709 
    1700    8.7211536      131          131            0 1.232929e-13            0          0.1 0.0090004252 0.0018004205  0.029899292 
number of iterations: 12801 
    1800    8.8953606      132          132            0 1.2567356e-13            0          0.1 0.0090004334 0.0021482492  0.029899278 
number of iterations: 12852 
    1900    9.0685391      136          136            0 1.2810018e-13            0          0.1 0.0090004418 0.0025248573  0.029899265 
number of iterations: 12903 
    2000    9.2404604      137          137            0 1.3057366e-13            0          0.1 0.0090004503  0.002930921   0.02989925 
number of iterations: 12954 
    2100    9.4115375      140          140            0 1.330949e-13            0          0.1  0.009000459 0.0033673011  0.029899236 
number of iterations: 13006 
    2200    9.5851218      141          141            0 1.3566482e-13            0          0.1 0.0090004678 0.0038348924  0.029899221 
number of iterations: 13057 
    2300    9.7556623      143          143            0 1.3828437e-13            0          0.1 0.0090004769 0.0043333865  0.029899206 
number of iterations: 13337 
    2400    9.9301223      145          145            0 1.4095449e-13            0          0.1 0.0090004871 0.0048549228  0.029899189 
number of iterations: 13164 
    2500    10.103335      146          146            0 1.4367617e-13            0          0.1 0.0090004965 0.0053992104  0.029899173 
number of iterations: 13215 
    2600    10.274247      147          147            0 1.4645041e-13            0          0.1 0.0090005061 0.0059664046  0.029899157 
number of iterations: 13266 
    2700    10.446854      148          148            0 1.4927821e-13            0          0.1 0.0090005159 0.0065566372  0.029899141 
number of iterations: 13317 
    2800    10.621611      148          148            0 1.5216062e-13            0          0.1 0.0090005259 0.0071701329  0.029899124 
number of iterations: 13368 
    2900    10.796977      154          154            0 1.5509868e-13            0          0.1  0.009000536 0.0078072451  0.029899108 
number of iterations: 13419 
    3000    10.968648      156          156            0 1.5809347e-13            0          0.1 0.0090005464 0.0084681517   0.02989909 
number of iterations: 13470 
    3100    11.162895      157          157            0 1.6114609e-13            0          0.1 0.0090005569 0.0091531871  0.029899073 
number of iterations: 13521 
    3200    11.337403      158          158            0 1.6425765e-13            0          0.1 0.0090005677 0.0098626311  0.029899055 
number of iterations: 13574 
    3300    11.513908      161          161            0 1.6742929e-13            0          0.1 0.0090005786  0.010624067  0.029899037 
number of iterations: 13636 
    3400    11.689898      165          165            0 1.7066217e-13            0          0.1 0.0090005898  0.011412401  0.029899018 
number of iterations: 13861 
    3500    11.866898      168          168            0 1.7395748e-13            0          0.1  0.009000602  0.012227671  0.029898998 
number of iterations: 13763 
    3600    12.043661      172          172            0 1.7731642e-13            0          0.1 0.0090006136  0.013070616  0.029898978 
number of iterations: 13825 
    3700    12.239901      175          175            0 1.8074021e-13            0          0.1 0.0090006254  0.013941795  0.029898959 
number of iterations: 13887 
    3800    12.417512      176          176            0 1.8423011e-13            0          0.1 0.0090006375  0.014841574  0.029898939 
number of iterations: 14359 
    3900    12.600413      181          181            0 1.877874e-13            0          0.1 0.0090006523  0.015770571  0.029898914 
number of iterations: 14020 
    4000    12.776858      183          183            0 1.9141338e-13            0          0.1 0.0090006649  0.016729161  0.029898893 
number of iterations: 14081 
    4100    12.954986      187          187            0 1.9510937e-13            0          0.1 0.0090006777  0.017717991  0.029898872 
number of iterations: 14143 
    4200     13.13389      191          191            0 1.9887672e-13            0          0.1 0.0090006908  0.018737497   0.02989885 
number of iterations: 14205 
    4300    13.312722      195          195            0 2.0271682e-13            0          0.1 0.0090007042  0.019788294  0.029898828 
number of iterations: 14384 
    4400    13.494127      198          198            0 2.0663107e-13            0          0.1  0.009000718  0.020871003  0.029898804 
number of iterations: 14331 
    4500     13.67324      204          204            0 2.106209e-13            0          0.1 0.0090007319  0.021986199  0.029898781 
number of iterations: 14393 
    4600    13.855181      207          207            0 2.1468777e-13            0          0.1  0.009000746  0.023134463  0.029898758 
number of iterations: 16819 
    4700    14.064277      213          213            0 2.1883316e-13            0          0.1 0.0090007649  0.024316554  0.029898727 
number of iterations: 14582 
    4800    14.247897      213          213            0 2.230586e-13            0          0.1 0.0090007796   0.02553281  0.029898702 
number of iterations: 14645 
    4900    14.431497      221          221            0 2.2736562e-13            0          0.1 0.0090007947  0.026784024  0.029898677 
number of iterations: 14707 
    5000    14.618555      225          225            0 2.3175581e-13            0          0.1   0.00900081  0.028070997  0.029898651 
number of iterations: 14769 
    5100     14.80859      232          232            0 2.3623077e-13            0          0.1 0.0090008257  0.029394255  0.029898625 
number of iterations: 14831 
    5200    15.036179      237          237            0 2.4079214e-13            0          0.1 0.0090008416  0.030754595  0.029898599 
number of iterations: 14721 
    5300    15.224756      246          246            0 2.4544158e-13            0          0.1 0.0090008566  0.032152552  0.029898574 
number of iterations: 14952 
    5400    15.411695      253          253            0 2.501808e-13            0          0.1 0.0090008731   0.03358887  0.029898546 
number of iterations: 15013 
    5500    15.599814      257          257            0 2.5501153e-13            0          0.1   0.00900089  0.035064659  0.029898518 
number of iterations: 15075 
    5600    15.786348      259          259            0 2.5993553e-13            0          0.1 0.0090009072  0.036580402   0.02989849 
number of iterations: 15173 
    5700     15.97505      266          266            0 2.6495461e-13            0          0.1 0.0090009249  0.038136893   0.02989846 
number of iterations: 15200 
    5800    16.164687      269          269            0 2.700706e-13            0          0.1 0.0090009428  0.039733881   0.02989843 
number of iterations: 15262 
    5900    16.352863      275          275            0 2.7528538e-13            0          0.1  0.009000961  0.041361704    0.0298984 
number of iterations: 15324 
    6000    16.544848      283          283            0 2.8060085e-13            0          0.1 0.0090009795  0.043020959  0.029898369 
number of iterations: 15385 
    6100    16.734559      288          288            0 2.8601896e-13            0          0.1 0.0090009985  0.044712253  0.029898338 
number of iterations: 15454 
    6200    16.926147      293          293            0 2.9154168e-13            0          0.1 0.0090010163  0.046436201  0.029898308 
number of iterations: 15509 
    6300    17.120119      297          297            0 2.9717104e-13            0          0.1  0.009001036  0.048193438  0.029898275 
number of iterations: 15571 
    6400    17.313897      306          306            0 3.029091e-13            0          0.1  0.009001056  0.049984604  0.029898242 
number of iterations: 15633 
    6500    17.506829      310          310            0 3.0875795e-13            0          0.1 0.0090010765  0.051810357  0.029898208 
number of iterations: 15695 
    6600    17.738849      311          311            0 3.1471974e-13            0          0.1 0.0090010973  0.053671362  0.029898173 
number of iterations: 15757 
    6700     17.93816      319          319            0 3.2079665e-13            0          0.1 0.0090011185  0.055568302  0.029898138 
number of iterations: 15819 
    6800    18.138172      325          325            0 3.2699089e-13            0          0.1 0.0090011401  0.057501869  0.029898102 
number of iterations: 15498 
    6900    18.333593      328          328            0 3.3330474e-13            0          0.1 0.0090011624  0.059472773  0.029898065 
number of iterations: 15936 
    7000    18.533533      332          332            0 3.397405e-13            0          0.1 0.0090011846  0.061482172  0.029898028 
number of iterations: 15934 
    7100    18.747762      341          341            0 3.4630053e-13            0          0.1 0.0090012078  0.063530371  0.029897989 
number of iterations: 16059 
    7200    18.946444      344          344            0 3.5298723e-13            0          0.1 0.0090012312  0.065618118   0.02989795 
number of iterations: 16120 
    7300    19.147049      350          350            0 3.5980304e-13            0          0.1 0.0090012549  0.067746177   0.02989791 
number of iterations: 16904 
    7400    19.355638      357          357            0 3.6675046e-13            0          0.1 0.0090012803  0.069915327  0.029897868 
number of iterations: 16259 
    7500    19.579914      368          368            0 3.7383202e-13            0          0.1  0.009001305  0.072126361  0.029897827 
number of iterations: 16321 
    7600    19.781748      371          371            0 3.8105032e-13            0          0.1 0.0090013302  0.074380088  0.029897785 
number of iterations: 16383 
    7700    19.985146      377          377            0  3.88408e-13            0          0.1 0.0090013561  0.076677332  0.029897742 
number of iterations: 16445 
    7800    20.188422      387          387            0 3.9590774e-13            0          0.1 0.0090013823  0.079018934  0.029897698 
number of iterations: 16507 
    7900    20.390979      392          392            0 4.035523e-13            0          0.1  0.009001409   0.08140575  0.029897654 
number of iterations: 16569 
    8000    20.598658      400          400            0 4.1134447e-13            0          0.1 0.0090014362  0.083838652  0.029897609 
number of iterations: 15892 
    8100    20.796619      410          410            0 4.192871e-13            0          0.1 0.0090014601  0.086318531  0.029897569 
number of iterations: 16680 
    8200    21.003008      416          416            0 4.2738309e-13            0          0.1 0.0090014883  0.088846294  0.029897522 
number of iterations: 16742 
    8300     21.21147      423          423            0 4.356354e-13            0          0.1  0.009001517  0.091422865  0.029897474 
number of iterations: 16804 
    8400    21.419503      432          432            0 4.4404706e-13            0          0.1 0.0090015463  0.094049188  0.029897425 
number of iterations: 16806 
    8500    21.629719      443          443            0 4.5262113e-13            0          0.1 0.0090015759  0.096726221  0.029897376 
number of iterations: 16926 
    8600     21.83873      455          455            0 4.6136077e-13            0          0.1 0.0090016063  0.099454946  0.029897325 
number of iterations: 17033 
    8700    22.051247      466          466            0 4.7026916e-13            0          0.1 0.0090016377   0.10223636  0.029897273 
Loop time of 22.0513 on 32 procs for 8700 steps with 466 atoms

Performance: 340878381.200 tau/day, 394.535 timesteps/s
98.3% CPU use with 32 MPI tasks x no OpenMP threads

MPI task timing breakdown:
Section |  min time  |  avg time  |  max time  |%varavg| %total
---------------------------------------------------------------
Pair    | 0.00082515 | 0.0024291  | 0.0052102  |   2.0 |  0.01
Neigh   | 0.0011627  | 0.0020222  | 0.0050377  |   1.7 |  0.01
Comm    | 0.012858   | 0.030051   | 0.043585   |   4.6 |  0.14
Output  | 0.90366    | 0.90386    | 0.90417    |   0.0 |  4.10
Modify  | 21.068     | 21.072     | 21.075     |   0.0 | 95.56
Other   |            | 0.04119    |            |       |  0.19

Nlocal:    14.5625 ave 43 max 1 min
Histogram: 5 5 4 6 7 4 0 0 0 1
Nghost:    5.71875 ave 17 max 0 min
Histogram: 3 8 5 2 9 1 2 1 0 1
Neighs:    15.625 ave 44 max 2 min
Histogram: 4 5 7 3 8 3 1 0 0 1

Total # of neighbors = 500
Ave neighs/atom = 1.07296
Neighbor list builds = 102
Dangerous builds = 0
Total wall time: 0:00:22
