ITEM: TIMESTEP
0
ITEM: NUMBER OF ATOMS
50
ITEM: BOX BOUNDS ff ff ff
0.0000000000000000e+00 1.0000000000000000e-04
0.0000000000000000e+00 1.0000000000000000e-04
0.0000000000000000e+00 5.0000000000000002e-05
ITEM: ATOMS id type diameter x y z 
46 1 1.82e-06 1.01e-05 3.73e-05 5.76e-06 
41 1 1.93e-06 9.24e-06 2.88e-05 8e-06 
47 1 1.54e-06 4.49e-05 3.07e-05 8.33e-06 
5 1 1.42e-06 4.85e-05 1.18e-05 1.43e-05 
15 1 1.89e-06 3.52e-05 1.9e-05 1.51e-05 
4 1 1.57e-06 4.03e-06 7.34e-06 1.95e-05 
48 1 1.45e-06 3.89e-05 1.32e-05 2.06e-05 
45 1 1.71e-06 1.35e-05 8.68e-06 2.42e-05 
31 1 1.56e-06 2.84e-06 4.24e-05 2.44e-05 
19 1 1.77e-06 1.87e-05 9.31e-06 2.86e-05 
30 1 1.55e-06 4.21e-05 9.36e-06 3.34e-05 
3 1 1.91e-06 6.4e-06 6e-05 4.81e-06 
16 1 1.58e-06 3.15e-06 8.93e-05 6.53e-06 
29 1 1.59e-06 3.26e-05 5.74e-05 1.02e-05 
32 1 1.91e-06 2.43e-05 8.5e-05 1.06e-05 
14 1 1.49e-06 2.89e-05 7.82e-05 2.82e-05 
21 1 1.64e-06 2.14e-05 9.76e-05 3.32e-05 
7 1 1.66e-06 4.17e-05 8.87e-05 3.38e-05 
9 1 1.69e-06 1.43e-05 9e-05 3.51e-05 
23 1 1.94e-06 4.55e-05 8.1e-05 4.41e-05 
49 1 1.66e-06 8.54e-05 4.04e-05 3.42e-06 
20 1 1.9e-06 5.01e-05 4.2e-05 4.13e-06 
37 1 1.58e-06 7.16e-05 3.6e-05 5.56e-06 
18 1 1.52e-06 8.32e-05 3.95e-05 7.93e-06 
33 1 1.55e-06 5.68e-05 4.44e-05 9.19e-06 
28 1 1.38e-06 6.02e-05 6.89e-06 2.1e-05 
11 1 1.88e-06 9.42e-05 4.86e-05 2.26e-05 
6 1 1.79e-06 8.35e-05 3.84e-05 2.57e-05 
50 1 1.72e-06 7.82e-05 4.09e-05 2.61e-05 
12 1 1.53e-06 5.71e-05 1.18e-05 2.71e-05 
40 1 1.5e-06 9.75e-05 1e-05 4.2e-05 
36 1 1.44e-06 7.89e-05 2.6e-05 4.2e-05 
44 1 1.93e-06 6.51e-05 9.44e-06 4.4e-05 
35 1 1.64e-06 9.68e-05 3.52e-05 4.4e-05 
43 1 1.38e-06 8.38e-05 2.8e-05 4.48e-05 
42 1 1.65e-06 8.81e-05 3.34e-05 4.77e-05 
39 1 1.38e-06 8.03e-05 4.96e-05 4.75e-05 
22 1 1.52e-06 6.72e-05 5.55e-05 2.62e-06 
24 1 1.46e-06 8.58e-05 5.41e-05 6.91e-06 
34 1 1.86e-06 5.76e-05 6.67e-05 1.27e-05 
2 1 1.83e-06 5.91e-05 8.01e-05 1.35e-05 
17 1 1.53e-06 5.04e-05 8.48e-05 1.67e-05 
1 1 1.75e-06 6.49e-05 6.13e-05 1.85e-05 
8 1 1.61e-06 5.93e-05 9e-05 2.3e-05 
10 1 1.63e-06 9.51e-05 7.61e-05 2.91e-05 
27 1 1.45e-06 9.83e-05 8.65e-05 3.03e-05 
25 1 1.84e-06 9.17e-05 5.39e-05 3.57e-05 
38 1 1.47e-06 7.89e-05 5.33e-05 4.14e-05 
26 1 1.79e-06 5.89e-05 5.26e-05 4.46e-05 
13 1 1.74e-06 7.16e-05 8.16e-05 4.63e-05 
ITEM: TIMESTEP
100
ITEM: NUMBER OF ATOMS
50
ITEM: BOX BOUNDS ff ff ff
0.0000000000000000e+00 1.0000000000000000e-04
0.0000000000000000e+00 1.0000000000000000e-04
0.0000000000000000e+00 5.0000000000000002e-05
ITEM: ATOMS id type diameter x y z 
46 1 1.8298e-06 1.01e-05 3.73e-05 5.76e-06 
41 1 1.94039e-06 9.24e-06 2.88e-05 8e-06 
47 1 1.54829e-06 4.49e-05 3.07e-05 8.33e-06 
5 1 1.42765e-06 4.85e-05 1.18e-05 1.43e-05 
15 1 1.90018e-06 3.52e-05 1.9e-05 1.51e-05 
4 1 1.57846e-06 4.03e-06 7.34e-06 1.95e-05 
48 1 1.45781e-06 3.89e-05 1.32e-05 2.06e-05 
45 1 1.71921e-06 1.35e-05 8.68e-06 2.42e-05 
31 1 1.5684e-06 2.84e-06 4.24e-05 2.44e-05 
19 1 1.77953e-06 1.87e-05 9.31e-06 2.86e-05 
30 1 1.55835e-06 4.21e-05 9.36e-06 3.34e-05 
3 1 1.92029e-06 6.4e-06 6e-05 4.81e-06 
16 1 1.58851e-06 3.15e-06 8.93e-05 6.53e-06 
29 1 1.59856e-06 3.26e-05 5.74e-05 1.02e-05 
32 1 1.92029e-06 2.43e-05 8.5e-05 1.06e-05 
14 1 1.49802e-06 2.89e-05 7.82e-05 2.82e-05 
21 1 1.64883e-06 2.14e-05 9.76e-05 3.32e-05 
7 1 1.66894e-06 4.17e-05 8.87e-05 3.38e-05 
9 1 1.6991e-06 1.43e-05 9e-05 3.51e-05 
23 1 1.95045e-06 4.55e-05 8.1e-05 4.41e-05 
49 1 1.66894e-06 8.54e-05 4.04e-05 3.42e-06 
20 1 1.91023e-06 5.01e-05 4.2e-05 4.13e-06 
37 1 1.58851e-06 7.16e-05 3.6e-05 5.56e-06 
18 1 1.52819e-06 8.32e-05 3.95e-05 7.93e-06 
33 1 1.55835e-06 5.68e-05 4.44e-05 9.19e-06 
28 1 1.38743e-06 6.02e-05 6.89e-06 2.1e-05 
11 1 1.89012e-06 9.42e-05 4.86e-05 2.26e-05 
6 1 1.79964e-06 8.35e-05 3.84e-05 2.57e-05 
50 1 1.72926e-06 7.82e-05 4.09e-05 2.61e-05 
12 1 1.53824e-06 5.71e-05 1.18e-05 2.71e-05 
40 1 1.50808e-06 9.75e-05 1e-05 4.2e-05 
36 1 1.44776e-06 7.89e-05 2.6e-05 4.2e-05 
44 1 1.94039e-06 6.51e-05 9.44e-06 4.4e-05 
35 1 1.64883e-06 9.68e-05 3.52e-05 4.4e-05 
43 1 1.38743e-06 8.38e-05 2.8e-05 4.48e-05 
42 1 1.65889e-06 8.81e-05 3.34e-05 4.77e-05 
39 1 1.38743e-06 8.03e-05 4.96e-05 4.75e-05 
22 1 1.52819e-06 6.72e-05 5.55e-05 2.62e-06 
24 1 1.46786e-06 8.58e-05 5.41e-05 6.91e-06 
34 1 1.87002e-06 5.76e-05 6.67e-05 1.27e-05 
2 1 1.83986e-06 5.91e-05 8.01e-05 1.35e-05 
17 1 1.53824e-06 5.04e-05 8.48e-05 1.67e-05 
1 1 1.75942e-06 6.49e-05 6.13e-05 1.85e-05 
8 1 1.61867e-06 5.93e-05 9e-05 2.3e-05 
10 1 1.63878e-06 9.51e-05 7.61e-05 2.91e-05 
27 1 1.45781e-06 9.83e-05 8.65e-05 3.03e-05 
25 1 1.84991e-06 9.17e-05 5.39e-05 3.57e-05 
38 1 1.47792e-06 7.89e-05 5.33e-05 4.14e-05 
26 1 1.79964e-06 5.89e-05 5.26e-05 4.46e-05 
13 1 1.74937e-06 7.16e-05 8.16e-05 4.63e-05 
ITEM: TIMESTEP
200
ITEM: NUMBER OF ATOMS
50
ITEM: BOX BOUNDS ff ff ff
0.0000000000000000e+00 1.0000000000000000e-04
0.0000000000000000e+00 1.0000000000000000e-04
0.0000000000000000e+00 5.0000000000000002e-05
ITEM: ATOMS id type diameter x y z 
46 1 1.83966e-06 1.01e-05 3.73e-05 5.76e-06 
41 1 1.95084e-06 9.24e-06 2.88e-05 8e-06 
47 1 1.55663e-06 4.49e-05 3.07e-05 8.33e-06 
5 1 1.43534e-06 4.85e-05 1.18e-05 1.43e-05 
15 1 1.91041e-06 3.52e-05 1.9e-05 1.51e-05 
4 1 1.58696e-06 4.03e-06 7.34e-06 1.95e-05 
48 1 1.46566e-06 3.89e-05 1.32e-05 2.06e-05 
45 1 1.72847e-06 1.35e-05 8.68e-06 2.42e-05 
31 1 1.57685e-06 2.84e-06 4.24e-05 2.44e-05 
19 1 1.78912e-06 1.87e-05 9.31e-06 2.86e-05 
30 1 1.56674e-06 4.21e-05 9.36e-06 3.34e-05 
3 1 1.93063e-06 6.4e-06 6e-05 4.81e-06 
16 1 1.59706e-06 3.15e-06 8.93e-05 6.53e-06 
29 1 1.60717e-06 3.26e-05 5.74e-05 1.02e-05 
32 1 1.93063e-06 2.43e-05 8.5e-05 1.06e-05 
14 1 1.50609e-06 2.89e-05 7.82e-05 2.82e-05 
21 1 1.65771e-06 2.14e-05 9.76e-05 3.32e-05 
7 1 1.67793e-06 4.17e-05 8.87e-05 3.38e-05 
9 1 1.70825e-06 1.43e-05 9e-05 3.51e-05 
23 1 1.96095e-06 4.55e-05 8.1e-05 4.41e-05 
49 1 1.67793e-06 8.54e-05 4.04e-05 3.42e-06 
20 1 1.92052e-06 5.01e-05 4.2e-05 4.13e-06 
37 1 1.59706e-06 7.16e-05 3.6e-05 5.56e-06 
18 1 1.53642e-06 8.32e-05 3.95e-05 7.93e-06 
33 1 1.56674e-06 5.68e-05 4.44e-05 9.19e-06 
28 1 1.3949e-06 6.02e-05 6.89e-06 2.1e-05 
11 1 1.9003e-06 9.42e-05 4.86e-05 2.26e-05 
6 1 1.80933e-06 8.35e-05 3.84e-05 2.57e-05 
50 1 1.73858e-06 7.82e-05 4.09e-05 2.61e-05 
12 1 1.54652e-06 5.71e-05 1.18e-05 2.71e-05 
40 1 1.5162e-06 9.75e-05 1e-05 4.2e-05 
36 1 1.45555e-06 7.89e-05 2.6e-05 4.2e-05 
44 1 1.95084e-06 6.51e-05 9.44e-06 4.4e-05 
35 1 1.65771e-06 9.68e-05 3.52e-05 4.4e-05 
43 1 1.3949e-06 8.38e-05 2.8e-05 4.48e-05 
42 1 1.66782e-06 8.81e-05 3.34e-05 4.77e-05 
39 1 1.3949e-06 8.03e-05 4.96e-05 4.75e-05 
22 1 1.53642e-06 6.72e-05 5.55e-05 2.62e-06 
24 1 1.47577e-06 8.58e-05 5.41e-05 6.91e-06 
34 1 1.88009e-06 5.76e-05 6.67e-05 1.27e-05 
2 1 1.84976e-06 5.91e-05 8.01e-05 1.35e-05 
17 1 1.54652e-06 5.04e-05 8.48e-05 1.67e-05 
1 1 1.7689e-06 6.49e-05 6.13e-05 1.85e-05 
8 1 1.62739e-06 5.93e-05 9e-05 2.3e-05 
10 1 1.6476e-06 9.51e-05 7.61e-05 2.91e-05 
27 1 1.46566e-06 9.83e-05 8.65e-05 3.03e-05 
25 1 1.85987e-06 9.17e-05 5.39e-05 3.57e-05 
38 1 1.48588e-06 7.89e-05 5.33e-05 4.14e-05 
26 1 1.80933e-06 5.89e-05 5.26e-05 4.46e-05 
13 1 1.75879e-06 7.16e-05 8.16e-05 4.63e-05 
ITEM: TIMESTEP
300
ITEM: NUMBER OF ATOMS
51
ITEM: BOX BOUNDS ff ff ff
0.0000000000000000e+00 1.0000000000000000e-04
0.0000000000000000e+00 1.0000000000000000e-04
0.0000000000000000e+00 5.0000000000000002e-05
ITEM: ATOMS id type diameter x y z 
46 1 1.84956e-06 1.01e-05 3.73e-05 5.76e-06 
41 1 1.96135e-06 9.24e-06 2.88e-05 8e-06 
47 1 1.56502e-06 4.49e-05 3.07e-05 8.33e-06 
5 1 1.44307e-06 4.85e-05 1.18e-05 1.43e-05 
15 1 1.9207e-06 3.52e-05 1.9e-05 1.51e-05 
4 1 1.5955e-06 4.03e-06 7.34e-06 1.95e-05 
48 1 1.47355e-06 3.89e-05 1.32e-05 2.06e-05 
45 1 1.73778e-06 1.35e-05 8.68e-06 2.42e-05 
31 1 1.58534e-06 2.84e-06 4.24e-05 2.44e-05 
19 1 1.79875e-06 1.87e-05 9.31e-06 2.86e-05 
30 1 1.57518e-06 4.21e-05 9.36e-06 3.34e-05 
3 1 1.94103e-06 6.4e-06 6e-05 4.81e-06 
16 1 1.60567e-06 3.15e-06 8.93e-05 6.53e-06 
29 1 1.61583e-06 3.26e-05 5.74e-05 1.02e-05 
32 1 1.94103e-06 2.43e-05 8.5e-05 1.06e-05 
14 1 1.5142e-06 2.89e-05 7.82e-05 2.82e-05 
21 1 1.66664e-06 2.14e-05 9.76e-05 3.32e-05 
7 1 1.68696e-06 4.17e-05 8.87e-05 3.38e-05 
9 1 1.71745e-06 1.43e-05 9e-05 3.51e-05 
23 1 1.60281e-06 4.47864e-05 8.08134e-05 4.37875e-05 
51 1 1.52482e-06 4.61789e-05 8.11775e-05 4.43973e-05 
49 1 1.68696e-06 8.54e-05 4.04e-05 3.42e-06 
20 1 1.93086e-06 5.01e-05 4.2e-05 4.13e-06 
37 1 1.60567e-06 7.16e-05 3.6e-05 5.56e-06 
18 1 1.54469e-06 8.32e-05 3.95e-05 7.93e-06 
33 1 1.57518e-06 5.68e-05 4.44e-05 9.19e-06 
28 1 1.40242e-06 6.02e-05 6.89e-06 2.1e-05 
11 1 1.91054e-06 9.42e-05 4.86e-05 2.26e-05 
6 1 1.81908e-06 8.35e-05 3.84e-05 2.57e-05 
50 1 1.74794e-06 7.82e-05 4.09e-05 2.61e-05 
12 1 1.55485e-06 5.71e-05 1.18e-05 2.71e-05 
40 1 1.52437e-06 9.75e-05 1e-05 4.2e-05 
36 1 1.46339e-06 7.89e-05 2.6e-05 4.2e-05 
44 1 1.96135e-06 6.51e-05 9.44e-06 4.4e-05 
35 1 1.66664e-06 9.68e-05 3.52e-05 4.4e-05 
43 1 1.40242e-06 8.38e-05 2.8e-05 4.48e-05 
42 1 1.6768e-06 8.81e-05 3.34e-05 4.77e-05 
39 1 1.40242e-06 8.03e-05 4.96e-05 4.75e-05 
22 1 1.54469e-06 6.72e-05 5.55e-05 2.62e-06 
24 1 1.48372e-06 8.58e-05 5.41e-05 6.91e-06 
34 1 1.89021e-06 5.76e-05 6.67e-05 1.27e-05 
2 1 1.85973e-06 5.91e-05 8.01e-05 1.35e-05 
17 1 1.55485e-06 5.04e-05 8.48e-05 1.67e-05 
1 1 1.77843e-06 6.49e-05 6.13e-05 1.85e-05 
8 1 1.63615e-06 5.93e-05 9e-05 2.3e-05 
10 1 1.65648e-06 9.51e-05 7.61e-05 2.91e-05 
27 1 1.47355e-06 9.83e-05 8.65e-05 3.03e-05 
25 1 1.86989e-06 9.17e-05 5.39e-05 3.57e-05 
38 1 1.49388e-06 7.89e-05 5.33e-05 4.14e-05 
26 1 1.81908e-06 5.89e-05 5.26e-05 4.46e-05 
13 1 1.76826e-06 7.16e-05 8.16e-05 4.63e-05 
ITEM: TIMESTEP
400
ITEM: NUMBER OF ATOMS
53
ITEM: BOX BOUNDS ff ff ff
0.0000000000000000e+00 1.0000000000000000e-04
0.0000000000000000e+00 1.0000000000000000e-04
0.0000000000000000e+00 5.0000000000000002e-05
ITEM: ATOMS id type diameter x y z 
46 1 1.85952e-06 1.01e-05 3.73e-05 5.76e-06 
41 1 1.60314e-06 8.52621e-06 2.86134e-05 7.68744e-06 
47 1 1.57344e-06 4.49e-05 3.07e-05 8.33e-06 
5 1 1.45084e-06 4.85e-05 1.18e-05 1.43e-05 
15 1 1.93104e-06 3.52e-05 1.9e-05 1.51e-05 
4 1 1.6041e-06 4.03e-06 7.34e-06 1.95e-05 
52 1 1.52513e-06 9.91905e-06 2.89776e-05 8.29735e-06 
48 1 1.48149e-06 3.89e-05 1.32e-05 2.06e-05 
45 1 1.74714e-06 1.35e-05 8.68e-06 2.42e-05 
31 1 1.59388e-06 2.84e-06 4.24e-05 2.44e-05 
19 1 1.80844e-06 1.87e-05 9.31e-06 2.86e-05 
30 1 1.58366e-06 4.21e-05 9.36e-06 3.34e-05 
3 1 1.95148e-06 6.4e-06 6e-05 4.81e-06 
16 1 1.61431e-06 3.15e-06 8.93e-05 6.53e-06 
29 1 1.62453e-06 3.26e-05 5.74e-05 1.02e-05 
32 1 1.95148e-06 2.43e-05 8.5e-05 1.06e-05 
14 1 1.52236e-06 2.89e-05 7.82e-05 2.82e-05 
21 1 1.67562e-06 2.14e-05 9.76e-05 3.32e-05 
7 1 1.69605e-06 4.17e-05 8.87e-05 3.38e-05 
9 1 1.7267e-06 1.43e-05 9e-05 3.51e-05 
23 1 1.61145e-06 4.47864e-05 8.08134e-05 4.37875e-05 
51 1 1.53304e-06 4.61789e-05 8.11775e-05 4.43973e-05 
49 1 1.69605e-06 8.54e-05 4.04e-05 3.42e-06 
20 1 1.94126e-06 5.01e-05 4.2e-05 4.13e-06 
37 1 1.61431e-06 7.16e-05 3.6e-05 5.56e-06 
18 1 1.55301e-06 8.32e-05 3.95e-05 7.93e-06 
33 1 1.58366e-06 5.68e-05 4.44e-05 9.19e-06 
28 1 1.40997e-06 6.02e-05 6.89e-06 2.1e-05 
11 1 1.92083e-06 9.42e-05 4.86e-05 2.26e-05 
6 1 1.82887e-06 8.35e-05 3.84e-05 2.57e-05 
50 1 1.75735e-06 7.82e-05 4.09e-05 2.61e-05 
12 1 1.56323e-06 5.71e-05 1.18e-05 2.71e-05 
40 1 1.53258e-06 9.75e-05 1e-05 4.2e-05 
36 1 1.47127e-06 7.89e-05 2.6e-05 4.2e-05 
44 1 1.60314e-06 6.43862e-05 9.25336e-06 4.36874e-05 
35 1 1.67562e-06 9.68e-05 3.52e-05 4.4e-05 
43 1 1.40997e-06 8.38e-05 2.8e-05 4.48e-05 
42 1 1.68583e-06 8.81e-05 3.34e-05 4.77e-05 
39 1 1.40997e-06 8.03e-05 4.96e-05 4.75e-05 
53 1 1.52513e-06 6.57791e-05 9.61756e-06 4.42974e-05 
22 1 1.55301e-06 6.72e-05 5.55e-05 2.62e-06 
24 1 1.49171e-06 8.58e-05 5.41e-05 6.91e-06 
34 1 1.90039e-06 5.76e-05 6.67e-05 1.27e-05 
2 1 1.86974e-06 5.91e-05 8.01e-05 1.35e-05 
17 1 1.56323e-06 5.04e-05 8.48e-05 1.67e-05 
1 1 1.788e-06 6.49e-05 6.13e-05 1.85e-05 
8 1 1.64496e-06 5.93e-05 9e-05 2.3e-05 
10 1 1.6654e-06 9.51e-05 7.61e-05 2.91e-05 
27 1 1.48149e-06 9.83e-05 8.65e-05 3.03e-05 
25 1 1.87996e-06 9.17e-05 5.39e-05 3.57e-05 
38 1 1.50192e-06 7.89e-05 5.33e-05 4.14e-05 
26 1 1.82887e-06 5.89e-05 5.26e-05 4.46e-05 
13 1 1.77779e-06 7.16e-05 8.16e-05 4.63e-05 
ITEM: TIMESTEP
500
ITEM: NUMBER OF ATOMS
53
ITEM: BOX BOUNDS ff ff ff
0.0000000000000000e+00 1.0000000000000000e-04
0.0000000000000000e+00 1.0000000000000000e-04
0.0000000000000000e+00 5.0000000000000002e-05
ITEM: ATOMS id type diameter x y z 
46 1 1.86954e-06 1.01e-05 3.73e-05 5.76e-06 
41 1 1.61177e-06 8.52621e-06 2.86134e-05 7.68744e-06 
47 1 1.58192e-06 4.49e-05 3.07e-05 8.33e-06 
5 1 1.45865e-06 4.85e-05 1.18e-05 1.43e-05 
15 1 1.94144e-06 3.52e-05 1.9e-05 1.51e-05 
4 1 1.61273e-06 4.03e-06 7.34e-06 1.95e-05 
52 1 1.53335e-06 9.91905e-06 2.89776e-05 8.29735e-06 
48 1 1.48947e-06 3.89e-05 1.32e-05 2.06e-05 
45 1 1.75655e-06 1.35e-05 8.68e-06 2.42e-05 
31 1 1.60246e-06 2.84e-06 4.24e-05 2.44e-05 
19 1 1.81818e-06 1.87e-05 9.31e-06 2.86e-05 
30 1 1.59219e-06 4.21e-05 9.36e-06 3.34e-05 
3 1 1.96199e-06 6.4e-06 6e-05 4.81e-06 
16 1 1.62301e-06 3.15e-06 8.93e-05 6.53e-06 
29 1 1.63328e-06 3.26e-05 5.74e-05 1.02e-05 
32 1 1.96199e-06 2.43e-05 8.5e-05 1.06e-05 
14 1 1.53056e-06 2.89e-05 7.82e-05 2.82e-05 
21 1 1.68464e-06 2.14e-05 9.76e-05 3.32e-05 
7 1 1.70518e-06 4.17e-05 8.87e-05 3.38e-05 
9 1 1.736e-06 1.43e-05 9e-05 3.51e-05 
23 1 1.62013e-06 4.47864e-05 8.08134e-05 4.37875e-05 
51 1 1.54129e-06 4.61789e-05 8.11775e-05 4.43973e-05 
49 1 1.70518e-06 8.54e-05 4.04e-05 3.42e-06 
20 1 1.95172e-06 5.01e-05 4.2e-05 4.13e-06 
37 1 1.62301e-06 7.16e-05 3.6e-05 5.56e-06 
18 1 1.56137e-06 8.32e-05 3.95e-05 7.93e-06 
33 1 1.59219e-06 5.68e-05 4.44e-05 9.19e-06 
28 1 1.41756e-06 6.02e-05 6.89e-06 2.1e-05 
11 1 1.93117e-06 9.42e-05 4.86e-05 2.26e-05 
6 1 1.83872e-06 8.35e-05 3.84e-05 2.57e-05 
50 1 1.76682e-06 7.82e-05 4.09e-05 2.61e-05 
12 1 1.57165e-06 5.71e-05 1.18e-05 2.71e-05 
40 1 1.54083e-06 9.75e-05 1e-05 4.2e-05 
36 1 1.4792e-06 7.89e-05 2.6e-05 4.2e-05 
44 1 1.61177e-06 6.43862e-05 9.25336e-06 4.36874e-05 
35 1 1.68464e-06 9.68e-05 3.52e-05 4.4e-05 
43 1 1.41756e-06 8.38e-05 2.8e-05 4.48e-05 
42 1 1.69491e-06 8.81e-05 3.34e-05 4.77e-05 
39 1 1.41756e-06 8.03e-05 4.96e-05 4.75e-05 
53 1 1.53335e-06 6.57791e-05 9.61756e-06 4.42974e-05 
22 1 1.56137e-06 6.72e-05 5.55e-05 2.62e-06 
24 1 1.49974e-06 8.58e-05 5.41e-05 6.91e-06 
34 1 1.91063e-06 5.76e-05 6.67e-05 1.27e-05 
2 1 1.87981e-06 5.91e-05 8.01e-05 1.35e-05 
17 1 1.57165e-06 5.04e-05 8.48e-05 1.67e-05 
1 1 1.79763e-06 6.49e-05 6.13e-05 1.85e-05 
8 1 1.65382e-06 5.93e-05 9e-05 2.3e-05 
10 1 1.67437e-06 9.51e-05 7.61e-05 2.91e-05 
27 1 1.48947e-06 9.83e-05 8.65e-05 3.03e-05 
25 1 1.89008e-06 9.17e-05 5.39e-05 3.57e-05 
38 1 1.51001e-06 7.89e-05 5.33e-05 4.14e-05 
26 1 1.83872e-06 5.89e-05 5.26e-05 4.46e-05 
13 1 1.78736e-06 7.16e-05 8.16e-05 4.63e-05 
ITEM: TIMESTEP
600
ITEM: NUMBER OF ATOMS
55
ITEM: BOX BOUNDS ff ff ff
0.0000000000000000e+00 1.0000000000000000e-04
0.0000000000000000e+00 1.0000000000000000e-04
0.0000000000000000e+00 5.0000000000000002e-05
ITEM: ATOMS id type diameter x y z 
46 1 1.87961e-06 1.01e-05 3.73e-05 5.76e-06 
41 1 1.62045e-06 8.52621e-06 2.86134e-05 7.68744e-06 
47 1 1.59044e-06 4.49e-05 3.07e-05 8.33e-06 
5 1 1.46651e-06 4.85e-05 1.18e-05 1.43e-05 
15 1 1.9519e-06 3.52e-05 1.9e-05 1.51e-05 
4 1 1.62142e-06 4.03e-06 7.34e-06 1.95e-05 
52 1 1.54161e-06 9.91905e-06 2.89776e-05 8.29735e-06 
48 1 1.49749e-06 3.89e-05 1.32e-05 2.06e-05 
45 1 1.76601e-06 1.35e-05 8.68e-06 2.42e-05 
31 1 1.61109e-06 2.84e-06 4.24e-05 2.44e-05 
19 1 1.82797e-06 1.87e-05 9.31e-06 2.86e-05 
30 1 1.60077e-06 4.21e-05 9.36e-06 3.34e-05 
3 1 1.60366e-06 5.68598e-06 5.98133e-05 4.49734e-06 
16 1 1.63175e-06 3.15e-06 8.93e-05 6.53e-06 
29 1 1.64208e-06 3.26e-05 5.74e-05 1.02e-05 
32 1 1.52572e-06 2.37163e-05 8.51128e-05 1.01224e-05 
54 1 1.52563e-06 7.07928e-06 6.01776e-05 5.10745e-06 
55 1 1.60358e-06 2.49135e-05 8.48814e-05 1.11019e-05 
14 1 1.5388e-06 2.89e-05 7.82e-05 2.82e-05 
21 1 1.69371e-06 2.14e-05 9.76e-05 3.32e-05 
7 1 1.71437e-06 4.17e-05 8.87e-05 3.38e-05 
9 1 1.74535e-06 1.43e-05 9e-05 3.51e-05 
23 1 1.62885e-06 4.47864e-05 8.08134e-05 4.37875e-05 
51 1 1.54959e-06 4.61789e-05 8.11775e-05 4.43973e-05 
49 1 1.71437e-06 8.54e-05 4.04e-05 3.42e-06 
20 1 1.96223e-06 5.01e-05 4.2e-05 4.13e-06 
37 1 1.63175e-06 7.16e-05 3.6e-05 5.56e-06 
18 1 1.56978e-06 8.32e-05 3.95e-05 7.93e-06 
33 1 1.60076e-06 5.68e-05 4.44e-05 9.19e-06 
28 1 1.4252e-06 6.02e-05 6.89e-06 2.1e-05 
11 1 1.94157e-06 9.42e-05 4.86e-05 2.26e-05 
6 1 1.84863e-06 8.35e-05 3.84e-05 2.57e-05 
50 1 1.77633e-06 7.82e-05 4.09e-05 2.61e-05 
12 1 1.58011e-06 5.71e-05 1.18e-05 2.71e-05 
40 1 1.54913e-06 9.75e-05 1e-05 4.2e-05 
36 1 1.48716e-06 7.89e-05 2.6e-05 4.2e-05 
44 1 1.62045e-06 6.43862e-05 9.25336e-06 4.36874e-05 
35 1 1.69371e-06 9.68e-05 3.52e-05 4.4e-05 
43 1 1.4252e-06 8.38e-05 2.8e-05 4.48e-05 
42 1 1.70404e-06 8.81e-05 3.34e-05 4.77e-05 
39 1 1.4252e-06 8.03e-05 4.96e-05 4.75e-05 
53 1 1.54161e-06 6.57791e-05 9.61756e-06 4.42974e-05 
22 1 1.56978e-06 6.72e-05 5.55e-05 2.62e-06 
24 1 1.50782e-06 8.58e-05 5.41e-05 6.91e-06 
34 1 1.92092e-06 5.76e-05 6.67e-05 1.27e-05 
2 1 1.88994e-06 5.91e-05 8.01e-05 1.35e-05 
17 1 1.58011e-06 5.04e-05 8.48e-05 1.67e-05 
1 1 1.80732e-06 6.49e-05 6.13e-05 1.85e-05 
8 1 1.66273e-06 5.93e-05 9e-05 2.3e-05 
10 1 1.68339e-06 9.51e-05 7.61e-05 2.91e-05 
27 1 1.49749e-06 9.83e-05 8.65e-05 3.03e-05 
25 1 1.90026e-06 9.17e-05 5.39e-05 3.57e-05 
38 1 1.51814e-06 7.89e-05 5.33e-05 4.14e-05 
26 1 1.84863e-06 5.89e-05 5.26e-05 4.46e-05 
13 1 1.79699e-06 7.16e-05 8.16e-05 4.63e-05 
ITEM: TIMESTEP
700
ITEM: NUMBER OF ATOMS
56
ITEM: BOX BOUNDS ff ff ff
0.0000000000000000e+00 1.0000000000000000e-04
0.0000000000000000e+00 1.0000000000000000e-04
0.0000000000000000e+00 5.0000000000000002e-05
ITEM: ATOMS id type diameter x y z 
46 1 1.88973e-06 1.01e-05 3.73e-05 5.76e-06 
41 1 1.62918e-06 8.52621e-06 2.86134e-05 7.68744e-06 
47 1 1.599e-06 4.49e-05 3.07e-05 8.33e-06 
5 1 1.47441e-06 4.85e-05 1.18e-05 1.43e-05 
15 1 1.96241e-06 3.52e-05 1.9e-05 1.51e-05 
4 1 1.63015e-06 4.03e-06 7.34e-06 1.95e-05 
52 1 1.54991e-06 9.91905e-06 2.89776e-05 8.29735e-06 
20 1 1.60386e-06 4.93859e-05 4.18133e-05 3.8173e-06 
48 1 1.50555e-06 3.89e-05 1.32e-05 2.06e-05 
45 1 1.77552e-06 1.35e-05 8.68e-06 2.42e-05 
31 1 1.61977e-06 2.84e-06 4.24e-05 2.44e-05 
19 1 1.83782e-06 1.87e-05 9.31e-06 2.86e-05 
30 1 1.60939e-06 4.21e-05 9.36e-06 3.34e-05 
3 1 1.6123e-06 5.68598e-06 5.98133e-05 4.49734e-06 
16 1 1.64054e-06 3.15e-06 8.93e-05 6.53e-06 
29 1 1.65092e-06 3.26e-05 5.74e-05 1.02e-05 
32 1 1.53394e-06 2.37163e-05 8.51128e-05 1.01224e-05 
54 1 1.53385e-06 7.07928e-06 6.01776e-05 5.10745e-06 
55 1 1.61222e-06 2.49135e-05 8.48814e-05 1.11019e-05 
14 1 1.54709e-06 2.89e-05 7.82e-05 2.82e-05 
21 1 1.70283e-06 2.14e-05 9.76e-05 3.32e-05 
7 1 1.7236e-06 4.17e-05 8.87e-05 3.38e-05 
9 1 1.75475e-06 1.43e-05 9e-05 3.51e-05 
23 1 1.63762e-06 4.47685e-05 8.08087e-05 4.37797e-05 
51 1 1.55794e-06 4.61967e-05 8.11822e-05 4.44051e-05 
49 1 1.7236e-06 8.54e-05 4.04e-05 3.42e-06 
56 1 1.52582e-06 5.07794e-05 4.21776e-05 4.42749e-06 
37 1 1.64054e-06 7.16e-05 3.6e-05 5.56e-06 
18 1 1.57824e-06 8.32e-05 3.95e-05 7.93e-06 
33 1 1.60939e-06 5.68e-05 4.44e-05 9.19e-06 
28 1 1.43287e-06 6.02e-05 6.89e-06 2.1e-05 
11 1 1.95203e-06 9.42e-05 4.86e-05 2.26e-05 
6 1 1.85858e-06 8.35e-05 3.84e-05 2.57e-05 
50 1 1.7859e-06 7.82e-05 4.09e-05 2.61e-05 
12 1 1.58862e-06 5.71e-05 1.18e-05 2.71e-05 
40 1 1.55747e-06 9.75e-05 1e-05 4.2e-05 
36 1 1.49517e-06 7.89e-05 2.6e-05 4.2e-05 
44 1 1.62918e-06 6.43862e-05 9.25336e-06 4.36874e-05 
35 1 1.70283e-06 9.68e-05 3.52e-05 4.4e-05 
43 1 1.43287e-06 8.38e-05 2.8e-05 4.48e-05 
42 1 1.71322e-06 8.81e-05 3.34e-05 4.77e-05 
39 1 1.43287e-06 8.03e-05 4.96e-05 4.75e-05 
53 1 1.54991e-06 6.57791e-05 9.61756e-06 4.42974e-05 
22 1 1.57824e-06 6.72e-05 5.55e-05 2.62e-06 
24 1 1.51594e-06 8.58e-05 5.41e-05 6.91e-06 
34 1 1.93126e-06 5.76e-05 6.67e-05 1.27e-05 
2 1 1.90011e-06 5.91e-05 8.01e-05 1.35e-05 
17 1 1.58862e-06 5.04e-05 8.48e-05 1.67e-05 
1 1 1.81705e-06 6.49e-05 6.13e-05 1.85e-05 
8 1 1.67168e-06 5.93e-05 9e-05 2.3e-05 
10 1 1.69245e-06 9.51e-05 7.61e-05 2.91e-05 
27 1 1.50555e-06 9.83e-05 8.65e-05 3.03e-05 
25 1 1.9105e-06 9.17e-05 5.39e-05 3.57e-05 
38 1 1.52632e-06 7.89e-05 5.33e-05 4.14e-05 
26 1 1.85858e-06 5.89e-05 5.26e-05 4.46e-05 
13 1 1.80667e-06 7.16e-05 8.16e-05 4.63e-05 
ITEM: TIMESTEP
800
ITEM: NUMBER OF ATOMS
57
ITEM: BOX BOUNDS ff ff ff
0.0000000000000000e+00 1.0000000000000000e-04
0.0000000000000000e+00 1.0000000000000000e-04
0.0000000000000000e+00 5.0000000000000002e-05
ITEM: ATOMS id type diameter x y z 
46 1 1.89991e-06 1.01e-05 3.73e-05 5.76e-06 
41 1 1.63796e-06 8.5084e-06 2.86087e-05 7.67964e-06 
47 1 1.60761e-06 4.49e-05 3.07e-05 8.33e-06 
5 1 1.48235e-06 4.85e-05 1.18e-05 1.43e-05 
15 1 1.52605e-06 3.46162e-05 1.91129e-05 1.46223e-05 
4 1 1.63893e-06 4.03e-06 7.34e-06 1.95e-05 
52 1 1.55825e-06 9.93687e-06 2.89822e-05 8.30515e-06 
20 1 1.6125e-06 4.9377e-05 4.18109e-05 3.8134e-06 
57 1 1.60393e-06 3.58136e-05 1.88814e-05 1.56021e-05 
48 1 1.51366e-06 3.89e-05 1.32e-05 2.06e-05 
45 1 1.78508e-06 1.35e-05 8.68e-06 2.42e-05 
31 1 1.62849e-06 2.84e-06 4.24e-05 2.44e-05 
19 1 1.84771e-06 1.87e-05 9.31e-06 2.86e-05 
30 1 1.61805e-06 4.21e-05 9.36e-06 3.34e-05 
3 1 1.62098e-06 5.68598e-06 5.98133e-05 4.49734e-06 
16 1 1.64937e-06 3.15e-06 8.93e-05 6.53e-06 
29 1 1.65981e-06 3.26e-05 5.74e-05 1.02e-05 
32 1 1.5422e-06 2.37163e-05 8.51128e-05 1.01224e-05 
54 1 1.54211e-06 7.07928e-06 6.01776e-05 5.10745e-06 
55 1 1.6209e-06 2.49135e-05 8.48814e-05 1.11019e-05 
14 1 1.55542e-06 2.89e-05 7.82e-05 2.82e-05 
21 1 1.71201e-06 2.14e-05 9.76e-05 3.32e-05 
7 1 1.73288e-06 4.17e-05 8.87e-05 3.38e-05 
9 1 1.7642e-06 1.43e-05 9e-05 3.51e-05 
23 1 1.64644e-06 4.47685e-05 8.08087e-05 4.37797e-05 
51 1 1.56633e-06 4.61967e-05 8.11822e-05 4.44051e-05 
49 1 1.73288e-06 8.54e-05 4.04e-05 3.42e-06 
56 1 1.53403e-06 5.07883e-05 4.218e-05 4.43139e-06 
37 1 1.64937e-06 7.16e-05 3.6e-05 5.56e-06 
18 1 1.58674e-06 8.32e-05 3.95e-05 7.93e-06 
33 1 1.61805e-06 5.68e-05 4.44e-05 9.19e-06 
28 1 1.44059e-06 6.02e-05 6.89e-06 2.1e-05 
11 1 1.96254e-06 9.42e-05 4.86e-05 2.26e-05 
6 1 1.86859e-06 8.35e-05 3.84e-05 2.57e-05 
50 1 1.79552e-06 7.82e-05 4.09e-05 2.61e-05 
12 1 1.59718e-06 5.71e-05 1.18e-05 2.71e-05 
40 1 1.56586e-06 9.75e-05 1e-05 4.2e-05 
36 1 1.50322e-06 7.89e-05 2.6e-05 4.2e-05 
44 1 1.63796e-06 6.43684e-05 9.2487e-06 4.36796e-05 
35 1 1.71201e-06 9.68e-05 3.52e-05 4.4e-05 
43 1 1.44059e-06 8.38e-05 2.8e-05 4.48e-05 
42 1 1.72244e-06 8.81e-05 3.34e-05 4.77e-05 
39 1 1.44059e-06 8.03e-05 4.96e-05 4.75e-05 
53 1 1.55825e-06 6.57969e-05 9.62222e-06 4.43052e-05 
22 1 1.58674e-06 6.72e-05 5.55e-05 2.62e-06 
24 1 1.5241e-06 8.58e-05 5.41e-05 6.91e-06 
34 1 1.94166e-06 5.76e-05 6.67e-05 1.27e-05 
2 1 1.91035e-06 5.91e-05 8.01e-05 1.35e-05 
17 1 1.59718e-06 5.04e-05 8.48e-05 1.67e-05 
1 1 1.82683e-06 6.49e-05 6.13e-05 1.85e-05 
8 1 1.68069e-06 5.93e-05 9e-05 2.3e-05 
10 1 1.70157e-06 9.51e-05 7.61e-05 2.91e-05 
27 1 1.51366e-06 9.83e-05 8.65e-05 3.03e-05 
25 1 1.92079e-06 9.17e-05 5.39e-05 3.57e-05 
38 1 1.53454e-06 7.89e-05 5.33e-05 4.14e-05 
26 1 1.86859e-06 5.89e-05 5.26e-05 4.46e-05 
13 1 1.8164e-06 7.16e-05 8.16e-05 4.63e-05 
ITEM: TIMESTEP
900
ITEM: NUMBER OF ATOMS
58
ITEM: BOX BOUNDS ff ff ff
0.0000000000000000e+00 1.0000000000000000e-04
0.0000000000000000e+00 1.0000000000000000e-04
0.0000000000000000e+00 5.0000000000000002e-05
ITEM: ATOMS id type diameter x y z 
46 1 1.91014e-06 1.01e-05 3.73e-05 5.76e-06 
41 1 1.64678e-06 8.5084e-06 2.86087e-05 7.67964e-06 
47 1 1.61627e-06 4.49e-05 3.07e-05 8.33e-06 
5 1 1.49033e-06 4.85e-05 1.18e-05 1.43e-05 
15 1 1.53427e-06 3.46162e-05 1.91129e-05 1.46223e-05 
4 1 1.64776e-06 4.03e-06 7.34e-06 1.95e-05 
52 1 1.56665e-06 9.93687e-06 2.89822e-05 8.30515e-06 
20 1 1.62118e-06 4.9377e-05 4.18109e-05 3.8134e-06 
57 1 1.61256e-06 3.58136e-05 1.88814e-05 1.56021e-05 
48 1 1.52181e-06 3.89e-05 1.32e-05 2.06e-05 
45 1 1.79469e-06 1.35e-05 8.68e-06 2.42e-05 
31 1 1.63726e-06 2.84e-06 4.24e-05 2.44e-05 
19 1 1.85766e-06 1.87e-05 9.31e-06 2.86e-05 
30 1 1.62677e-06 4.21e-05 9.36e-06 3.34e-05 
3 1 1.62971e-06 5.68598e-06 5.98133e-05 4.49734e-06 
16 1 1.65825e-06 3.15e-06 8.93e-05 6.53e-06 
29 1 1.66875e-06 3.26e-05 5.74e-05 1.02e-05 
32 1 1.55051e-06 2.37163e-05 8.51128e-05 1.01224e-05 
54 1 1.55041e-06 7.07928e-06 6.01776e-05 5.10745e-06 
55 1 1.62963e-06 2.49135e-05 8.48814e-05 1.11019e-05 
14 1 1.5638e-06 2.89e-05 7.82e-05 2.82e-05 
21 1 1.72123e-06 2.14e-05 9.76e-05 3.32e-05 
7 1 1.74222e-06 4.17e-05 8.87e-05 3.38e-05 
9 1 1.7737e-06 1.43e-05 9e-05 3.51e-05 
23 1 1.65531e-06 4.47685e-05 8.08087e-05 4.37797e-05 
51 1 1.57476e-06 4.61967e-05 8.11822e-05 4.44051e-05 
49 1 1.74222e-06 8.54e-05 4.04e-05 3.42e-06 
56 1 1.54229e-06 5.07883e-05 4.218e-05 4.43139e-06 
37 1 1.65825e-06 7.16e-05 3.6e-05 5.56e-06 
18 1 1.59528e-06 8.32e-05 3.95e-05 7.93e-06 
33 1 1.62677e-06 5.68e-05 4.44e-05 9.19e-06 
28 1 1.44835e-06 6.02e-05 6.89e-06 2.1e-05 
11 1 1.52615e-06 9.36161e-05 4.87129e-05 2.21223e-05 
6 1 1.87865e-06 8.35e-05 3.84e-05 2.57e-05 
50 1 1.80519e-06 7.82e-05 4.09e-05 2.61e-05 
12 1 1.60578e-06 5.71e-05 1.18e-05 2.71e-05 
40 1 1.57429e-06 9.75e-05 1e-05 4.2e-05 
36 1 1.51132e-06 7.89e-05 2.6e-05 4.2e-05 
44 1 1.64678e-06 6.43684e-05 9.2487e-06 4.36796e-05 
35 1 1.72123e-06 9.68e-05 3.52e-05 4.4e-05 
43 1 1.44835e-06 8.38e-05 2.8e-05 4.48e-05 
42 1 1.73172e-06 8.81e-05 3.34e-05 4.77e-05 
39 1 1.44835e-06 8.03e-05 4.96e-05 4.75e-05 
53 1 1.56665e-06 6.57969e-05 9.62222e-06 4.43052e-05 
58 1 1.60403e-06 9.48137e-05 4.84814e-05 2.31021e-05 
22 1 1.59528e-06 6.72e-05 5.55e-05 2.62e-06 
24 1 1.53231e-06 8.58e-05 5.41e-05 6.91e-06 
34 1 1.95212e-06 5.76e-05 6.67e-05 1.27e-05 
2 1 1.92064e-06 5.91e-05 8.01e-05 1.35e-05 
17 1 1.60578e-06 5.04e-05 8.48e-05 1.67e-05 
1 1 1.83667e-06 6.49e-05 6.13e-05 1.85e-05 
8 1 1.68974e-06 5.93e-05 9e-05 2.3e-05 
10 1 1.71073e-06 9.51e-05 7.61e-05 2.91e-05 
27 1 1.52181e-06 9.83e-05 8.65e-05 3.03e-05 
25 1 1.93113e-06 9.17e-05 5.39e-05 3.57e-05 
38 1 1.54281e-06 7.89e-05 5.33e-05 4.14e-05 
26 1 1.87865e-06 5.89e-05 5.26e-05 4.46e-05 
13 1 1.82618e-06 7.16e-05 8.16e-05 4.63e-05 
ITEM: TIMESTEP
1000
ITEM: NUMBER OF ATOMS
58
ITEM: BOX BOUNDS ff ff ff
0.0000000000000000e+00 1.0000000000000000e-04
0.0000000000000000e+00 1.0000000000000000e-04
0.0000000000000000e+00 5.0000000000000002e-05
ITEM: ATOMS id type diameter x y z 
20 1 1.62991e-06 4.9377e-05 4.18109e-05 3.8134e-06 
46 1 1.92043e-06 1.01e-05 3.73e-05 5.76e-06 
41 1 1.65565e-06 8.5084e-06 2.86087e-05 7.67964e-06 
52 1 1.57508e-06 9.93687e-06 2.89822e-05 8.30515e-06 
47 1 1.62498e-06 4.49e-05 3.07e-05 8.33e-06 
5 1 1.49836e-06 4.85e-05 1.18e-05 1.43e-05 
15 1 1.54253e-06 3.46162e-05 1.91129e-05 1.46223e-05 
57 1 1.62125e-06 3.58136e-05 1.88814e-05 1.56021e-05 
4 1 1.65663e-06 4.03e-06 7.34e-06 1.95e-05 
48 1 1.53001e-06 3.89e-05 1.32e-05 2.06e-05 
45 1 1.80436e-06 1.35e-05 8.68e-06 2.42e-05 
31 1 1.64608e-06 2.84e-06 4.24e-05 2.44e-05 
19 1 1.86767e-06 1.87e-05 9.31e-06 2.86e-05 
30 1 1.63553e-06 4.21e-05 9.36e-06 3.34e-05 
3 1 1.63849e-06 5.66816e-06 5.98086e-05 4.48953e-06 
54 1 1.55876e-06 7.09709e-06 6.01823e-05 5.11525e-06 
16 1 1.66718e-06 3.15e-06 8.93e-05 6.53e-06 
29 1 1.67774e-06 3.26e-05 5.74e-05 1.02e-05 
32 1 1.55886e-06 2.3701e-05 8.51158e-05 1.01099e-05 
55 1 1.6384e-06 2.49288e-05 8.48784e-05 1.11145e-05 
14 1 1.57222e-06 2.89e-05 7.82e-05 2.82e-05 
21 1 1.73049e-06 2.14e-05 9.76e-05 3.32e-05 
7 1 1.7516e-06 4.17e-05 8.87e-05 3.38e-05 
9 1 1.78325e-06 1.43e-05 9e-05 3.51e-05 
23 1 1.66422e-06 4.47685e-05 8.08087e-05 4.37797e-05 
51 1 1.58325e-06 4.61967e-05 8.11822e-05 4.44051e-05 
49 1 1.7516e-06 8.54e-05 4.04e-05 3.42e-06 
56 1 1.5506e-06 5.07883e-05 4.218e-05 4.43139e-06 
37 1 1.66718e-06 7.16e-05 3.6e-05 5.56e-06 
18 1 1.60387e-06 8.32e-05 3.95e-05 7.93e-06 
33 1 1.63553e-06 5.68e-05 4.44e-05 9.19e-06 
28 1 1.45615e-06 6.02e-05 6.89e-06 2.1e-05 
11 1 1.53437e-06 9.36161e-05 4.87129e-05 2.21223e-05 
58 1 1.61267e-06 9.48137e-05 4.84814e-05 2.31021e-05 
6 1 1.88877e-06 8.35e-05 3.84e-05 2.57e-05 
50 1 1.81491e-06 7.82e-05 4.09e-05 2.61e-05 
12 1 1.61443e-06 5.71e-05 1.18e-05 2.71e-05 
40 1 1.58277e-06 9.75e-05 1e-05 4.2e-05 
36 1 1.51946e-06 7.89e-05 2.6e-05 4.2e-05 
44 1 1.65565e-06 6.43684e-05 9.2487e-06 4.36796e-05 
35 1 1.7305e-06 9.68e-05 3.52e-05 4.4e-05 
53 1 1.57508e-06 6.57969e-05 9.62222e-06 4.43052e-05 
43 1 1.45615e-06 8.38e-05 2.8e-05 4.48e-05 
42 1 1.74105e-06 8.81e-05 3.34e-05 4.77e-05 
39 1 1.45615e-06 8.03e-05 4.96e-05 4.75e-05 
22 1 1.60387e-06 6.72e-05 5.55e-05 2.62e-06 
24 1 1.54056e-06 8.58e-05 5.41e-05 6.91e-06 
34 1 1.96263e-06 5.76e-05 6.67e-05 1.27e-05 
2 1 1.93098e-06 5.91e-05 8.01e-05 1.35e-05 
17 1 1.61443e-06 5.04e-05 8.48e-05 1.67e-05 
1 1 1.84656e-06 6.49e-05 6.13e-05 1.85e-05 
8 1 1.69884e-06 5.93e-05 9e-05 2.3e-05 
10 1 1.71994e-06 9.51e-05 7.61e-05 2.91e-05 
27 1 1.53001e-06 9.83e-05 8.65e-05 3.03e-05 
25 1 1.94153e-06 9.17e-05 5.39e-05 3.57e-05 
38 1 1.55111e-06 7.89e-05 5.33e-05 4.14e-05 
26 1 1.88877e-06 5.89e-05 5.26e-05 4.46e-05 
13 1 1.83601e-06 7.16e-05 8.16e-05 4.63e-05 
ITEM: TIMESTEP
1100
ITEM: NUMBER OF ATOMS
59
ITEM: BOX BOUNDS ff ff ff
0.0000000000000000e+00 1.0000000000000000e-04
0.0000000000000000e+00 1.0000000000000000e-04
0.0000000000000000e+00 5.0000000000000002e-05
ITEM: ATOMS id type diameter x y z 
20 1 1.63869e-06 4.9377e-05 4.18109e-05 3.8134e-06 
46 1 1.93077e-06 1.01e-05 3.73e-05 5.76e-06 
41 1 1.66456e-06 8.5084e-06 2.86087e-05 7.67964e-06 
52 1 1.58357e-06 9.93687e-06 2.89822e-05 8.30515e-06 
47 1 1.63373e-06 4.49e-05 3.07e-05 8.33e-06 
5 1 1.50642e-06 4.85e-05 1.18e-05 1.43e-05 