ITEM: TIMESTEP
0
ITEM: NUMBER OF ATOMS
50
ITEM: BOX BOUNDS ff ff ff
0.0000000000000000e+00 1.0000000000000000e-04
0.0000000000000000e+00 1.0000000000000000e-04
0.0000000000000000e+00 5.0000000000000002e-05
ITEM: ATOMS id type diameter x y z 
17 1 1.77e-06 2.8e-05 2.89e-05 4.33e-06 
47 1 1.9e-06 4.66e-05 1.13e-05 6.79e-06 
50 1 1.58e-06 2.14e-05 2.78e-05 1.04e-05 
36 1 1.61e-06 2.87e-05 4.17e-05 1.39e-05 
45 1 1.38e-06 1.66e-05 1.58e-05 2.04e-05 
5 1 1.77e-06 7.28e-06 4.09e-06 2.32e-05 
9 1 1.57e-06 4.33e-05 2.89e-05 2.6e-05 
37 1 1.66e-06 1.05e-05 1.05e-05 2.79e-05 
18 1 1.76e-06 4.84e-05 1.14e-05 3.15e-05 
43 1 1.83e-06 9.18e-06 4.65e-05 3.19e-05 
29 1 1.48e-06 2.81e-05 3.14e-05 3.77e-05 
41 1 1.69e-06 4.01e-05 3.61e-05 3.79e-05 
4 1 1.85e-06 4.48e-05 3.95e-05 3.9e-05 
21 1 1.38e-06 3.04e-05 3.63e-05 4.42e-05 
27 1 1.88e-06 1.76e-05 4.03e-05 4.45e-05 
39 1 1.79e-06 3.06e-05 5.68e-05 2.45e-06 
30 1 1.8e-06 3.49e-05 7.45e-05 1.86e-05 
22 1 1.81e-06 4.21e-05 7.55e-05 2.24e-05 
24 1 1.8e-06 2.45e-05 6.51e-05 2.73e-05 
12 1 1.7e-06 1.99e-05 8.21e-05 2.93e-05 
11 1 1.77e-06 3.23e-05 7.14e-05 3.05e-05 
16 1 1.9e-06 4.92e-05 7.31e-05 3.73e-05 
46 1 1.69e-06 3.83e-05 7.84e-05 4.06e-05 
40 1 1.48e-06 1.77e-05 9.58e-05 4.44e-05 
28 1 1.87e-06 2.01e-05 5.16e-05 4.56e-05 
20 1 1.6e-06 2.21e-05 6.98e-05 4.65e-05 
7 1 1.39e-06 2.13e-05 6.78e-05 4.81e-05 
8 1 1.67e-06 7.52e-05 3.24e-05 3.21e-06 
42 1 1.39e-06 5.24e-05 3.75e-05 1.09e-05 
32 1 1.5e-06 6.45e-05 2.14e-06 1.19e-05 
35 1 1.48e-06 7.52e-05 3.66e-05 1.79e-05 
25 1 1.68e-06 7.86e-05 3.1e-05 2.09e-05 
31 1 1.86e-06 5.11e-05 1.49e-05 2.7e-05 
48 1 1.84e-06 8.94e-05 1.06e-05 2.78e-05 
2 1 1.47e-06 6.25e-05 9.24e-06 3.24e-05 
6 1 1.37e-06 6.85e-05 4.68e-05 3.82e-05 
14 1 1.54e-06 5.03e-05 2.77e-06 4.15e-05 
3 1 1.66e-06 8.55e-05 4.8e-05 4.49e-05 
33 1 1.7e-06 5.55e-05 3.1e-05 4.7e-05 
38 1 1.84e-06 8.13e-05 5.69e-05 4.46e-06 
19 1 1.44e-06 7.02e-05 6.34e-05 5.4e-06 
15 1 1.84e-06 7.6e-05 7.72e-05 7.28e-06 
1 1 1.84e-06 8.02e-05 6.71e-05 8.16e-06 
23 1 1.89e-06 7.27e-05 8.37e-05 1.39e-05 
44 1 1.62e-06 6.99e-05 5.34e-05 1.68e-05 
49 1 1.81e-06 6.12e-05 6.9e-05 2.43e-05 
34 1 1.52e-06 8.29e-05 7.59e-05 2.59e-05 
13 1 1.71e-06 6.96e-05 9.76e-05 2.8e-05 
10 1 1.86e-06 5.21e-05 7.4e-05 3.75e-05 
26 1 1.71e-06 8.68e-05 8.45e-05 3.84e-05 
ITEM: TIMESTEP
100
ITEM: NUMBER OF ATOMS
50
ITEM: BOX BOUNDS ff ff ff
0.0000000000000000e+00 1.0000000000000000e-04
0.0000000000000000e+00 1.0000000000000000e-04
0.0000000000000000e+00 5.0000000000000002e-05
ITEM: ATOMS id type diameter x y z 
17 1 1.78119e-06 2.8e-05 2.89e-05 4.33e-06 
47 1 1.91201e-06 4.66e-05 1.13e-05 6.79e-06 
50 1 1.58999e-06 2.14e-05 2.78e-05 1.04e-05 
36 1 1.62018e-06 2.87e-05 4.17e-05 1.39e-05 
45 1 1.38872e-06 1.66e-05 1.58e-05 2.04e-05 
5 1 1.78119e-06 7.28e-06 4.09e-06 2.32e-05 
9 1 1.57993e-06 4.33e-05 2.89e-05 2.6e-05 
37 1 1.67049e-06 1.05e-05 1.05e-05 2.79e-05 
18 1 1.77113e-06 4.84e-05 1.14e-05 3.15e-05 
43 1 1.84157e-06 9.18e-06 4.65e-05 3.19e-05 
29 1 1.48936e-06 2.81e-05 3.14e-05 3.77e-05 
41 1 1.70068e-06 4.01e-05 3.61e-05 3.79e-05 
4 1 1.8617e-06 4.48e-05 3.95e-05 3.9e-05 
21 1 1.38872e-06 3.04e-05 3.63e-05 4.42e-05 
27 1 1.89189e-06 1.76e-05 4.03e-05 4.45e-05 
39 1 1.80132e-06 3.06e-05 5.68e-05 2.45e-06 
30 1 1.81138e-06 3.49e-05 7.45e-05 1.86e-05 
22 1 1.82144e-06 4.21e-05 7.55e-05 2.24e-05 
24 1 1.81138e-06 2.45e-05 6.51e-05 2.73e-05 
12 1 1.71075e-06 1.99e-05 8.21e-05 2.93e-05 
11 1 1.78119e-06 3.23e-05 7.14e-05 3.05e-05 
16 1 1.91201e-06 4.92e-05 7.31e-05 3.73e-05 
46 1 1.70068e-06 3.83e-05 7.84e-05 4.06e-05 
40 1 1.48936e-06 1.77e-05 9.58e-05 4.44e-05 
28 1 1.88182e-06 2.01e-05 5.16e-05 4.56e-05 
20 1 1.61012e-06 2.21e-05 6.98e-05 4.65e-05 
7 1 1.39879e-06 2.13e-05 6.78e-05 4.81e-05 
8 1 1.68056e-06 7.52e-05 3.24e-05 3.21e-06 
42 1 1.39879e-06 5.24e-05 3.75e-05 1.09e-05 
32 1 1.50948e-06 6.45e-05 2.14e-06 1.19e-05 
35 1 1.48936e-06 7.52e-05 3.66e-05 1.79e-05 
25 1 1.69062e-06 7.86e-05 3.1e-05 2.09e-05 
31 1 1.87176e-06 5.11e-05 1.49e-05 2.7e-05 
48 1 1.85163e-06 8.94e-05 1.06e-05 2.78e-05 
2 1 1.47929e-06 6.25e-05 9.24e-06 3.24e-05 
6 1 1.37866e-06 6.85e-05 4.68e-05 3.82e-05 
14 1 1.54974e-06 5.03e-05 2.77e-06 4.15e-05 
3 1 1.67049e-06 8.55e-05 4.8e-05 4.49e-05 
33 1 1.71075e-06 5.55e-05 3.1e-05 4.7e-05 
38 1 1.85163e-06 8.13e-05 5.69e-05 4.46e-06 
19 1 1.4491e-06 7.02e-05 6.34e-05 5.4e-06 
15 1 1.85163e-06 7.6e-05 7.72e-05 7.28e-06 
1 1 1.85163e-06 8.02e-05 6.71e-05 8.16e-06 
23 1 1.90195e-06 7.27e-05 8.37e-05 1.39e-05 
44 1 1.63024e-06 6.99e-05 5.34e-05 1.68e-05 
49 1 1.82144e-06 6.12e-05 6.9e-05 2.43e-05 
34 1 1.52961e-06 8.29e-05 7.59e-05 2.59e-05 
13 1 1.72081e-06 6.96e-05 9.76e-05 2.8e-05 
10 1 1.87176e-06 5.21e-05 7.4e-05 3.75e-05 
26 1 1.72081e-06 8.68e-05 8.45e-05 3.84e-05 
ITEM: TIMESTEP
200
ITEM: NUMBER OF ATOMS
50
ITEM: BOX BOUNDS ff ff ff
0.0000000000000000e+00 1.0000000000000000e-04
0.0000000000000000e+00 1.0000000000000000e-04
0.0000000000000000e+00 5.0000000000000002e-05
ITEM: ATOMS id type diameter x y z 
17 1 1.79245e-06 2.8e-05 2.89e-05 4.33e-06 
47 1 1.9241e-06 4.66e-05 1.13e-05 6.79e-06 
50 1 1.60004e-06 2.14e-05 2.78e-05 1.04e-05 
36 1 1.63042e-06 2.87e-05 4.17e-05 1.39e-05 
45 1 1.3975e-06 1.66e-05 1.58e-05 2.04e-05 
5 1 1.79245e-06 7.28e-06 4.09e-06 2.32e-05 
9 1 1.58991e-06 4.33e-05 2.89e-05 2.6e-05 
37 1 1.68106e-06 1.05e-05 1.05e-05 2.79e-05 
18 1 1.78232e-06 4.84e-05 1.14e-05 3.15e-05 
43 1 1.85321e-06 9.18e-06 4.65e-05 3.19e-05 
29 1 1.49877e-06 2.81e-05 3.14e-05 3.77e-05 
41 1 1.71144e-06 4.01e-05 3.61e-05 3.79e-05 
4 1 1.87347e-06 4.48e-05 3.95e-05 3.9e-05 
21 1 1.3975e-06 3.04e-05 3.63e-05 4.42e-05 
27 1 1.90385e-06 1.76e-05 4.03e-05 4.45e-05 
39 1 1.8127e-06 3.06e-05 5.68e-05 2.45e-06 
30 1 1.82283e-06 3.49e-05 7.45e-05 1.86e-05 
22 1 1.83296e-06 4.21e-05 7.55e-05 2.24e-05 
24 1 1.82283e-06 2.45e-05 6.51e-05 2.73e-05 
12 1 1.72156e-06 1.99e-05 8.21e-05 2.93e-05 
11 1 1.79245e-06 3.23e-05 7.14e-05 3.05e-05 
16 1 1.9241e-06 4.92e-05 7.31e-05 3.73e-05 
46 1 1.71144e-06 3.83e-05 7.84e-05 4.06e-05 
40 1 1.49877e-06 1.77e-05 9.58e-05 4.44e-05 
28 1 1.89372e-06 2.01e-05 5.16e-05 4.56e-05 
20 1 1.62029e-06 2.21e-05 6.98e-05 4.65e-05 
7 1 1.40763e-06 2.13e-05 6.78e-05 4.81e-05 
8 1 1.69118e-06 7.52e-05 3.24e-05 3.21e-06 
42 1 1.40763e-06 5.24e-05 3.75e-05 1.09e-05 
32 1 1.51903e-06 6.45e-05 2.14e-06 1.19e-05 
35 1 1.49877e-06 7.52e-05 3.66e-05 1.79e-05 
25 1 1.70131e-06 7.86e-05 3.1e-05 2.09e-05 
31 1 1.88359e-06 5.11e-05 1.49e-05 2.7e-05 
48 1 1.86334e-06 8.94e-05 1.06e-05 2.78e-05 
2 1 1.48865e-06 6.25e-05 9.24e-06 3.24e-05 
6 1 1.38738e-06 6.85e-05 4.68e-05 3.82e-05 
14 1 1.55953e-06 5.03e-05 2.77e-06 4.15e-05 
3 1 1.68106e-06 8.55e-05 4.8e-05 4.49e-05 
33 1 1.72156e-06 5.55e-05 3.1e-05 4.7e-05 
38 1 1.86334e-06 8.13e-05 5.69e-05 4.46e-06 
19 1 1.45827e-06 7.02e-05 6.34e-05 5.4e-06 
15 1 1.86334e-06 7.6e-05 7.72e-05 7.28e-06 
1 1 1.86334e-06 8.02e-05 6.71e-05 8.16e-06 
23 1 1.91397e-06 7.27e-05 8.37e-05 1.39e-05 
44 1 1.64055e-06 6.99e-05 5.34e-05 1.68e-05 
49 1 1.83296e-06 6.12e-05 6.9e-05 2.43e-05 
34 1 1.53928e-06 8.29e-05 7.59e-05 2.59e-05 
13 1 1.73169e-06 6.96e-05 9.76e-05 2.8e-05 
10 1 1.88359e-06 5.21e-05 7.4e-05 3.75e-05 
26 1 1.73169e-06 8.68e-05 8.45e-05 3.84e-05 
ITEM: TIMESTEP
300
ITEM: NUMBER OF ATOMS
50
ITEM: BOX BOUNDS ff ff ff
0.0000000000000000e+00 1.0000000000000000e-04
0.0000000000000000e+00 1.0000000000000000e-04
0.0000000000000000e+00 5.0000000000000002e-05
ITEM: ATOMS id type diameter x y z 
17 1 1.80378e-06 2.8e-05 2.89e-05 4.33e-06 
47 1 1.93626e-06 4.66e-05 1.13e-05 6.79e-06 
50 1 1.61016e-06 2.14e-05 2.78e-05 1.04e-05 
36 1 1.64073e-06 2.87e-05 4.17e-05 1.39e-05 
45 1 1.40634e-06 1.66e-05 1.58e-05 2.04e-05 
5 1 1.80378e-06 7.28e-06 4.09e-06 2.32e-05 
9 1 1.59997e-06 4.33e-05 2.89e-05 2.6e-05 
37 1 1.69168e-06 1.05e-05 1.05e-05 2.79e-05 
18 1 1.79359e-06 4.84e-05 1.14e-05 3.15e-05 
43 1 1.86493e-06 9.18e-06 4.65e-05 3.19e-05 
29 1 1.50825e-06 2.81e-05 3.14e-05 3.77e-05 
41 1 1.72226e-06 4.01e-05 3.61e-05 3.79e-05 
4 1 1.88531e-06 4.48e-05 3.95e-05 3.9e-05 
21 1 1.40634e-06 3.04e-05 3.63e-05 4.42e-05 
27 1 1.91588e-06 1.76e-05 4.03e-05 4.45e-05 
39 1 1.82416e-06 3.06e-05 5.68e-05 2.45e-06 
30 1 1.83436e-06 3.49e-05 7.45e-05 1.86e-05 
22 1 1.84455e-06 4.21e-05 7.55e-05 2.24e-05 
24 1 1.83436e-06 2.45e-05 6.51e-05 2.73e-05 
12 1 1.73245e-06 1.99e-05 8.21e-05 2.93e-05 
11 1 1.80378e-06 3.23e-05 7.14e-05 3.05e-05 
16 1 1.93626e-06 4.92e-05 7.31e-05 3.73e-05 
46 1 1.72226e-06 3.83e-05 7.84e-05 4.06e-05 
40 1 1.50825e-06 1.77e-05 9.58e-05 4.44e-05 
28 1 1.90569e-06 2.01e-05 5.16e-05 4.56e-05 
20 1 1.63054e-06 2.21e-05 6.98e-05 4.65e-05 
7 1 1.41653e-06 2.13e-05 6.78e-05 4.81e-05 
8 1 1.70187e-06 7.52e-05 3.24e-05 3.21e-06 
42 1 1.41653e-06 5.24e-05 3.75e-05 1.09e-05 
32 1 1.52863e-06 6.45e-05 2.14e-06 1.19e-05 
35 1 1.50825e-06 7.52e-05 3.66e-05 1.79e-05 
25 1 1.71207e-06 7.86e-05 3.1e-05 2.09e-05 
31 1 1.8955e-06 5.11e-05 1.49e-05 2.7e-05 
48 1 1.87512e-06 8.94e-05 1.06e-05 2.78e-05 
2 1 1.49806e-06 6.25e-05 9.24e-06 3.24e-05 
6 1 1.39615e-06 6.85e-05 4.68e-05 3.82e-05 
14 1 1.56939e-06 5.03e-05 2.77e-06 4.15e-05 
3 1 1.69168e-06 8.55e-05 4.8e-05 4.49e-05 
33 1 1.73245e-06 5.55e-05 3.1e-05 4.7e-05 
38 1 1.87512e-06 8.13e-05 5.69e-05 4.46e-06 
19 1 1.46748e-06 7.02e-05 6.34e-05 5.4e-06 
15 1 1.87512e-06 7.6e-05 7.72e-05 7.28e-06 
1 1 1.87512e-06 8.02e-05 6.71e-05 8.16e-06 
23 1 1.92607e-06 7.27e-05 8.37e-05 1.39e-05 
44 1 1.65092e-06 6.99e-05 5.34e-05 1.68e-05 
49 1 1.84455e-06 6.12e-05 6.9e-05 2.43e-05 
34 1 1.54901e-06 8.29e-05 7.59e-05 2.59e-05 
13 1 1.74264e-06 6.96e-05 9.76e-05 2.8e-05 
10 1 1.8955e-06 5.21e-05 7.4e-05 3.75e-05 
26 1 1.74264e-06 8.68e-05 8.45e-05 3.84e-05 
ITEM: TIMESTEP
400
ITEM: NUMBER OF ATOMS
50
ITEM: BOX BOUNDS ff ff ff
0.0000000000000000e+00 1.0000000000000000e-04
0.0000000000000000e+00 1.0000000000000000e-04
0.0000000000000000e+00 5.0000000000000002e-05
ITEM: ATOMS id type diameter x y z 
17 1 1.81519e-06 2.8e-05 2.89e-05 4.33e-06 
47 1 1.94851e-06 4.66e-05 1.13e-05 6.79e-06 
50 1 1.62034e-06 2.14e-05 2.78e-05 1.04e-05 
36 1 1.6511e-06 2.87e-05 4.17e-05 1.39e-05 
45 1 1.41523e-06 1.66e-05 1.58e-05 2.04e-05 
5 1 1.81519e-06 7.28e-06 4.09e-06 2.32e-05 
9 1 1.61008e-06 4.33e-05 2.89e-05 2.6e-05 
37 1 1.70238e-06 1.05e-05 1.05e-05 2.79e-05 
18 1 1.80493e-06 4.84e-05 1.14e-05 3.15e-05 
43 1 1.87672e-06 9.18e-06 4.65e-05 3.19e-05 
29 1 1.51778e-06 2.81e-05 3.14e-05 3.77e-05 
41 1 1.73314e-06 4.01e-05 3.61e-05 3.79e-05 
4 1 1.89723e-06 4.48e-05 3.95e-05 3.9e-05 
21 1 1.41523e-06 3.04e-05 3.63e-05 4.42e-05 
27 1 1.928e-06 1.76e-05 4.03e-05 4.45e-05 
39 1 1.8357e-06 3.06e-05 5.68e-05 2.45e-06 
30 1 1.84595e-06 3.49e-05 7.45e-05 1.86e-05 
22 1 1.85621e-06 4.21e-05 7.55e-05 2.24e-05 
24 1 1.84595e-06 2.45e-05 6.51e-05 2.73e-05 
12 1 1.7434e-06 1.99e-05 8.21e-05 2.93e-05 
11 1 1.81519e-06 3.23e-05 7.14e-05 3.05e-05 
16 1 1.94851e-06 4.92e-05 7.31e-05 3.73e-05 
46 1 1.73314e-06 3.83e-05 7.84e-05 4.06e-05 
40 1 1.51778e-06 1.77e-05 9.58e-05 4.44e-05 
28 1 1.91774e-06 2.01e-05 5.16e-05 4.56e-05 
20 1 1.64085e-06 2.21e-05 6.98e-05 4.65e-05 
7 1 1.42549e-06 2.13e-05 6.78e-05 4.81e-05 
8 1 1.71263e-06 7.52e-05 3.24e-05 3.21e-06 
42 1 1.42549e-06 5.24e-05 3.75e-05 1.09e-05 
32 1 1.53829e-06 6.45e-05 2.14e-06 1.19e-05 
35 1 1.51778e-06 7.52e-05 3.66e-05 1.79e-05 
25 1 1.72289e-06 7.86e-05 3.1e-05 2.09e-05 
31 1 1.90748e-06 5.11e-05 1.49e-05 2.7e-05 
48 1 1.88697e-06 8.94e-05 1.06e-05 2.78e-05 
2 1 1.50753e-06 6.25e-05 9.24e-06 3.24e-05 
6 1 1.40498e-06 6.85e-05 4.68e-05 3.82e-05 
14 1 1.57932e-06 5.03e-05 2.77e-06 4.15e-05 
3 1 1.70238e-06 8.55e-05 4.8e-05 4.49e-05 
33 1 1.7434e-06 5.55e-05 3.1e-05 4.7e-05 
38 1 1.88697e-06 8.13e-05 5.69e-05 4.46e-06 
19 1 1.47676e-06 7.02e-05 6.34e-05 5.4e-06 
15 1 1.88697e-06 7.6e-05 7.72e-05 7.28e-06 
1 1 1.88697e-06 8.02e-05 6.71e-05 8.16e-06 
23 1 1.93825e-06 7.27e-05 8.37e-05 1.39e-05 
44 1 1.66136e-06 6.99e-05 5.34e-05 1.68e-05 
49 1 1.85621e-06 6.12e-05 6.9e-05 2.43e-05 
34 1 1.5588e-06 8.29e-05 7.59e-05 2.59e-05 
13 1 1.75366e-06 6.96e-05 9.76e-05 2.8e-05 
10 1 1.90748e-06 5.21e-05 7.4e-05 3.75e-05 
26 1 1.75366e-06 8.68e-05 8.45e-05 3.84e-05 
ITEM: TIMESTEP
500
ITEM: NUMBER OF ATOMS
50
ITEM: BOX BOUNDS ff ff ff
0.0000000000000000e+00 1.0000000000000000e-04
0.0000000000000000e+00 1.0000000000000000e-04
0.0000000000000000e+00 5.0000000000000002e-05
ITEM: ATOMS id type diameter x y z 
17 1 1.82666e-06 2.8e-05 2.89e-05 4.33e-06 
47 1 1.96082e-06 4.66e-05 1.13e-05 6.79e-06 
50 1 1.63058e-06 2.14e-05 2.78e-05 1.04e-05 
36 1 1.66154e-06 2.87e-05 4.17e-05 1.39e-05 
45 1 1.42418e-06 1.66e-05 1.58e-05 2.04e-05 
5 1 1.82666e-06 7.28e-06 4.09e-06 2.32e-05 
9 1 1.62026e-06 4.33e-05 2.89e-05 2.6e-05 
37 1 1.71314e-06 1.05e-05 1.05e-05 2.79e-05 
18 1 1.81634e-06 4.84e-05 1.14e-05 3.15e-05 
43 1 1.88858e-06 9.18e-06 4.65e-05 3.19e-05 
29 1 1.52738e-06 2.81e-05 3.14e-05 3.77e-05 
41 1 1.7441e-06 4.01e-05 3.61e-05 3.79e-05 
4 1 1.90922e-06 4.48e-05 3.95e-05 3.9e-05 
21 1 1.42418e-06 3.04e-05 3.63e-05 4.42e-05 
27 1 1.94018e-06 1.76e-05 4.03e-05 4.45e-05 
39 1 1.8473e-06 3.06e-05 5.68e-05 2.45e-06 
30 1 1.85762e-06 3.49e-05 7.45e-05 1.86e-05 
22 1 1.86794e-06 4.21e-05 7.55e-05 2.24e-05 
24 1 1.85762e-06 2.45e-05 6.51e-05 2.73e-05 
12 1 1.75442e-06 1.99e-05 8.21e-05 2.93e-05 
11 1 1.82666e-06 3.23e-05 7.14e-05 3.05e-05 
16 1 1.96082e-06 4.92e-05 7.31e-05 3.73e-05 
46 1 1.7441e-06 3.83e-05 7.84e-05 4.06e-05 
40 1 1.52738e-06 1.77e-05 9.58e-05 4.44e-05 
28 1 1.92986e-06 2.01e-05 5.16e-05 4.56e-05 
20 1 1.65122e-06 2.21e-05 6.98e-05 4.65e-05 
7 1 1.4345e-06 2.13e-05 6.78e-05 4.81e-05 
8 1 1.72346e-06 7.52e-05 3.24e-05 3.21e-06 
42 1 1.4345e-06 5.24e-05 3.75e-05 1.09e-05 
32 1 1.54802e-06 6.45e-05 2.14e-06 1.19e-05 
35 1 1.52738e-06 7.52e-05 3.66e-05 1.79e-05 
25 1 1.73378e-06 7.86e-05 3.1e-05 2.09e-05 
31 1 1.91954e-06 5.11e-05 1.49e-05 2.7e-05 
48 1 1.8989e-06 8.94e-05 1.06e-05 2.78e-05 
2 1 1.51706e-06 6.25e-05 9.24e-06 3.24e-05 
6 1 1.41386e-06 6.85e-05 4.68e-05 3.82e-05 
14 1 1.5893e-06 5.03e-05 2.77e-06 4.15e-05 
3 1 1.71314e-06 8.55e-05 4.8e-05 4.49e-05 
33 1 1.75442e-06 5.55e-05 3.1e-05 4.7e-05 
38 1 1.8989e-06 8.13e-05 5.69e-05 4.46e-06 
19 1 1.4861e-06 7.02e-05 6.34e-05 5.4e-06 
15 1 1.8989e-06 7.6e-05 7.72e-05 7.28e-06 
1 1 1.8989e-06 8.02e-05 6.71e-05 8.16e-06 
23 1 1.9505e-06 7.27e-05 8.37e-05 1.39e-05 
44 1 1.67186e-06 6.99e-05 5.34e-05 1.68e-05 
49 1 1.86794e-06 6.12e-05 6.9e-05 2.43e-05 
34 1 1.56866e-06 8.29e-05 7.59e-05 2.59e-05 
13 1 1.76474e-06 6.96e-05 9.76e-05 2.8e-05 
10 1 1.91954e-06 5.21e-05 7.4e-05 3.75e-05 
26 1 1.76474e-06 8.68e-05 8.45e-05 3.84e-05 
ITEM: TIMESTEP
600
ITEM: NUMBER OF ATOMS
52
ITEM: BOX BOUNDS ff ff ff
0.0000000000000000e+00 1.0000000000000000e-04
0.0000000000000000e+00 1.0000000000000000e-04
0.0000000000000000e+00 5.0000000000000002e-05
ITEM: ATOMS id type diameter x y z 
17 1 1.83821e-06 2.8e-05 2.89e-05 4.33e-06 
47 1 1.5012e-06 4.6298e-05 1.19428e-05 6.55013e-06 
50 1 1.64089e-06 2.14e-05 2.78e-05 1.04e-05 
36 1 1.67205e-06 2.87e-05 4.17e-05 1.39e-05 
51 1 1.62611e-06 4.69271e-05 1.06037e-05 7.04982e-06 
45 1 1.43318e-06 1.66e-05 1.58e-05 2.04e-05 
5 1 1.83821e-06 7.28e-06 4.09e-06 2.32e-05 
9 1 1.6305e-06 4.33e-05 2.89e-05 2.6e-05 
37 1 1.72397e-06 1.05e-05 1.05e-05 2.79e-05 
18 1 1.82783e-06 4.84e-05 1.14e-05 3.15e-05 
43 1 1.90052e-06 9.18e-06 4.65e-05 3.19e-05 
29 1 1.53704e-06 2.81e-05 3.14e-05 3.77e-05 
41 1 1.75513e-06 4.01e-05 3.61e-05 3.79e-05 
4 1 1.92129e-06 4.48e-05 3.95e-05 3.9e-05 
21 1 1.43318e-06 3.04e-05 3.63e-05 4.42e-05 
27 1 1.95245e-06 1.76e-05 4.03e-05 4.45e-05 
39 1 1.85898e-06 3.06e-05 5.68e-05 2.45e-06 
30 1 1.86937e-06 3.49e-05 7.45e-05 1.86e-05 
22 1 1.87975e-06 4.21e-05 7.55e-05 2.24e-05 
24 1 1.86937e-06 2.45e-05 6.51e-05 2.73e-05 
12 1 1.76551e-06 1.99e-05 8.21e-05 2.93e-05 
11 1 1.83821e-06 3.23e-05 7.14e-05 3.05e-05 
16 1 1.5012e-06 4.8898e-05 7.37428e-05 3.70601e-05 
46 1 1.75513e-06 3.83e-05 7.84e-05 4.06e-05 
40 1 1.53704e-06 1.77e-05 9.58e-05 4.44e-05 
28 1 1.94207e-06 2.01e-05 5.16e-05 4.56e-05 
20 1 1.66166e-06 2.21e-05 6.98e-05 4.65e-05 
7 1 1.44357e-06 2.13e-05 6.78e-05 4.81e-05 
52 1 1.62611e-06 4.95271e-05 7.24037e-05 3.75598e-05 
8 1 1.73436e-06 7.52e-05 3.24e-05 3.21e-06 
42 1 1.44357e-06 5.24e-05 3.75e-05 1.09e-05 
32 1 1.55781e-06 6.45e-05 2.14e-06 1.19e-05 
35 1 1.53704e-06 7.52e-05 3.66e-05 1.79e-05 
25 1 1.74474e-06 7.86e-05 3.1e-05 2.09e-05 
31 1 1.93168e-06 5.11e-05 1.49e-05 2.7e-05 
48 1 1.91091e-06 8.94e-05 1.06e-05 2.78e-05 
2 1 1.52665e-06 6.25e-05 9.24e-06 3.24e-05 
6 1 1.4228e-06 6.85e-05 4.68e-05 3.82e-05 
14 1 1.59935e-06 5.03e-05 2.77e-06 4.15e-05 
3 1 1.72397e-06 8.55e-05 4.8e-05 4.49e-05 
33 1 1.76551e-06 5.55e-05 3.1e-05 4.7e-05 
38 1 1.91091e-06 8.13e-05 5.69e-05 4.46e-06 
19 1 1.49549e-06 7.02e-05 6.34e-05 5.4e-06 
15 1 1.91091e-06 7.6e-05 7.72e-05 7.28e-06 
1 1 1.91091e-06 8.02e-05 6.71e-05 8.16e-06 
23 1 1.96284e-06 7.27e-05 8.37e-05 1.39e-05 
44 1 1.68243e-06 6.99e-05 5.34e-05 1.68e-05 
49 1 1.87975e-06 6.12e-05 6.9e-05 2.43e-05 
34 1 1.57858e-06 8.29e-05 7.59e-05 2.59e-05 
13 1 1.7759e-06 6.96e-05 9.76e-05 2.8e-05 
10 1 1.93168e-06 5.21e-05 7.4e-05 3.75e-05 
26 1 1.7759e-06 8.68e-05 8.45e-05 3.84e-05 
ITEM: TIMESTEP
700
ITEM: NUMBER OF ATOMS
53
ITEM: BOX BOUNDS ff ff ff
0.0000000000000000e+00 1.0000000000000000e-04
0.0000000000000000e+00 1.0000000000000000e-04
0.0000000000000000e+00 5.0000000000000002e-05
ITEM: ATOMS id type diameter x y z 
17 1 1.84983e-06 2.8e-05 2.89e-05 4.33e-06 
47 1 1.5107e-06 4.6298e-05 1.19428e-05 6.55013e-06 
50 1 1.65126e-06 2.14e-05 2.78e-05 1.04e-05 
36 1 1.68262e-06 2.87e-05 4.17e-05 1.39e-05 
51 1 1.63639e-06 4.69271e-05 1.06037e-05 7.04982e-06 
45 1 1.44224e-06 1.66e-05 1.58e-05 2.04e-05 
5 1 1.84983e-06 7.28e-06 4.09e-06 2.32e-05 
9 1 1.64081e-06 4.33e-05 2.89e-05 2.6e-05 
37 1 1.73487e-06 1.05e-05 1.05e-05 2.79e-05 
18 1 1.83938e-06 4.84e-05 1.14e-05 3.15e-05 
43 1 1.91254e-06 9.18e-06 4.65e-05 3.19e-05 
29 1 1.54675e-06 2.81e-05 3.14e-05 3.77e-05 
41 1 1.76622e-06 4.01e-05 3.61e-05 3.79e-05 
4 1 1.93344e-06 4.48e-05 3.95e-05 3.9e-05 
21 1 1.44224e-06 3.04e-05 3.63e-05 4.42e-05 
27 1 1.96479e-06 1.76e-05 4.03e-05 4.45e-05 
39 1 1.87073e-06 3.06e-05 5.68e-05 2.45e-06 
30 1 1.88119e-06 3.49e-05 7.45e-05 1.86e-05 
22 1 1.89164e-06 4.21e-05 7.55e-05 2.24e-05 
24 1 1.88119e-06 2.45e-05 6.51e-05 2.73e-05 
12 1 1.77668e-06 1.99e-05 8.21e-05 2.93e-05 
11 1 1.84983e-06 3.23e-05 7.14e-05 3.05e-05 
16 1 1.5107e-06 4.8898e-05 7.37428e-05 3.70601e-05 
46 1 1.76622e-06 3.83e-05 7.84e-05 4.06e-05 
40 1 1.54675e-06 1.77e-05 9.58e-05 4.44e-05 
28 1 1.95434e-06 2.01e-05 5.16e-05 4.56e-05 
20 1 1.67217e-06 2.21e-05 6.98e-05 4.65e-05 
7 1 1.45269e-06 2.13e-05 6.78e-05 4.81e-05 
52 1 1.63639e-06 4.95271e-05 7.24037e-05 3.75598e-05 
8 1 1.74532e-06 7.52e-05 3.24e-05 3.21e-06 
42 1 1.45269e-06 5.24e-05 3.75e-05 1.09e-05 
32 1 1.56765e-06 6.45e-05 2.14e-06 1.19e-05 
35 1 1.54675e-06 7.52e-05 3.66e-05 1.79e-05 
25 1 1.75577e-06 7.86e-05 3.1e-05 2.09e-05 
31 1 1.94389e-06 5.11e-05 1.49e-05 2.7e-05 
48 1 1.92299e-06 8.94e-05 1.06e-05 2.78e-05 
2 1 1.5363e-06 6.25e-05 9.24e-06 3.24e-05 
6 1 1.43179e-06 6.85e-05 4.68e-05 3.82e-05 
14 1 1.60946e-06 5.03e-05 2.77e-06 4.15e-05 
3 1 1.73487e-06 8.55e-05 4.8e-05 4.49e-05 
33 1 1.77668e-06 5.55e-05 3.1e-05 4.7e-05 
38 1 1.92299e-06 8.13e-05 5.69e-05 4.46e-06 
19 1 1.50495e-06 7.02e-05 6.34e-05 5.4e-06 
15 1 1.92299e-06 7.6e-05 7.72e-05 7.28e-06 
1 1 1.92299e-06 8.02e-05 6.71e-05 8.16e-06 
23 1 1.50274e-06 7.23977e-05 8.43435e-05 1.36599e-05 
44 1 1.69307e-06 6.99e-05 5.34e-05 1.68e-05 
53 1 1.62778e-06 7.30275e-05 8.3003e-05 1.41601e-05 
49 1 1.89164e-06 6.12e-05 6.9e-05 2.43e-05 
34 1 1.58856e-06 8.29e-05 7.59e-05 2.59e-05 
13 1 1.78713e-06 6.96e-05 9.76e-05 2.8e-05 
10 1 1.94389e-06 5.21e-05 7.4e-05 3.75e-05 
26 1 1.78713e-06 8.68e-05 8.45e-05 3.84e-05 
ITEM: TIMESTEP
800
ITEM: NUMBER OF ATOMS
54
ITEM: BOX BOUNDS ff ff ff
0.0000000000000000e+00 1.0000000000000000e-04
0.0000000000000000e+00 1.0000000000000000e-04
0.0000000000000000e+00 5.0000000000000002e-05
ITEM: ATOMS id type diameter x y z 
17 1 1.86153e-06 2.8e-05 2.89e-05 4.33e-06 
47 1 1.52025e-06 4.6298e-05 1.19428e-05 6.55013e-06 
50 1 1.6617e-06 2.14e-05 2.78e-05 1.04e-05 
36 1 1.69325e-06 2.87e-05 4.17e-05 1.39e-05 
51 1 1.64673e-06 4.69271e-05 1.06037e-05 7.04982e-06 
45 1 1.45136e-06 1.66e-05 1.58e-05 2.04e-05 
5 1 1.86153e-06 7.28e-06 4.09e-06 2.32e-05 
9 1 1.65119e-06 4.33e-05 2.89e-05 2.6e-05 
37 1 1.74584e-06 1.05e-05 1.05e-05 2.79e-05 
18 1 1.85101e-06 4.84e-05 1.14e-05 3.15e-05 
43 1 1.92463e-06 9.18e-06 4.65e-05 3.19e-05 
29 1 1.55653e-06 2.81e-05 3.14e-05 3.77e-05 
41 1 1.77739e-06 4.01e-05 3.61e-05 3.79e-05 
4 1 1.94566e-06 4.48e-05 3.95e-05 3.9e-05 
21 1 1.45136e-06 3.04e-05 3.63e-05 4.42e-05 
27 1 1.50424e-06 1.72974e-05 4.09441e-05 4.42596e-05 
54 1 1.6294e-06 1.79278e-05 3.96023e-05 4.47603e-05 
39 1 1.88256e-06 3.06e-05 5.68e-05 2.45e-06 
30 1 1.89308e-06 3.49e-05 7.45e-05 1.86e-05 
22 1 1.9036e-06 4.21e-05 7.55e-05 2.24e-05 
24 1 1.89308e-06 2.45e-05 6.51e-05 2.73e-05 
12 1 1.78791e-06 1.99e-05 8.21e-05 2.93e-05 
11 1 1.86153e-06 3.23e-05 7.14e-05 3.05e-05 
16 1 1.52025e-06 4.8898e-05 7.37428e-05 3.70601e-05 
46 1 1.77739e-06 3.83e-05 7.84e-05 4.06e-05 
40 1 1.55653e-06 1.77e-05 9.58e-05 4.44e-05 
28 1 1.9667e-06 2.01e-05 5.16e-05 4.56e-05 
20 1 1.68274e-06 2.21e-05 6.98e-05 4.65e-05 
7 1 1.46188e-06 2.13e-05 6.78e-05 4.81e-05 
52 1 1.64673e-06 4.95271e-05 7.24037e-05 3.75598e-05 
8 1 1.75636e-06 7.52e-05 3.24e-05 3.21e-06 
42 1 1.46188e-06 5.24e-05 3.75e-05 1.09e-05 
32 1 1.57757e-06 6.45e-05 2.14e-06 1.19e-05 
35 1 1.55653e-06 7.52e-05 3.66e-05 1.79e-05 
25 1 1.76687e-06 7.86e-05 3.1e-05 2.09e-05 
31 1 1.95618e-06 5.11e-05 1.49e-05 2.7e-05 
48 1 1.93515e-06 8.94e-05 1.06e-05 2.78e-05 
2 1 1.54601e-06 6.25e-05 9.24e-06 3.24e-05 
6 1 1.44084e-06 6.85e-05 4.68e-05 3.82e-05 
14 1 1.61963e-06 5.03e-05 2.77e-06 4.15e-05 
3 1 1.74584e-06 8.55e-05 4.8e-05 4.49e-05 
33 1 1.78791e-06 5.55e-05 3.1e-05 4.7e-05 
38 1 1.93515e-06 8.13e-05 5.69e-05 4.46e-06 
19 1 1.51446e-06 7.02e-05 6.34e-05 5.4e-06 
15 1 1.93515e-06 7.6e-05 7.72e-05 7.28e-06 
1 1 1.93515e-06 8.02e-05 6.71e-05 8.16e-06 
23 1 1.51224e-06 7.23977e-05 8.43435e-05 1.36599e-05 
44 1 1.70377e-06 6.99e-05 5.34e-05 1.68e-05 
53 1 1.63807e-06 7.30275e-05 8.3003e-05 1.41601e-05 
49 1 1.9036e-06 6.12e-05 6.9e-05 2.43e-05 
34 1 1.5986e-06 8.29e-05 7.59e-05 2.59e-05 
13 1 1.79843e-06 6.96e-05 9.76e-05 2.8e-05 
10 1 1.95618e-06 5.21e-05 7.4e-05 3.75e-05 
26 1 1.79843e-06 8.68e-05 8.45e-05 3.84e-05 
ITEM: TIMESTEP
900
ITEM: NUMBER OF ATOMS
55
ITEM: BOX BOUNDS ff ff ff
0.0000000000000000e+00 1.0000000000000000e-04
0.0000000000000000e+00 1.0000000000000000e-04
0.0000000000000000e+00 5.0000000000000002e-05
ITEM: ATOMS id type diameter x y z 
17 1 1.8733e-06 2.8e-05 2.89e-05 4.33e-06 
47 1 1.52986e-06 4.62899e-05 1.19599e-05 6.54373e-06 
50 1 1.67221e-06 2.14e-05 2.78e-05 1.04e-05 
36 1 1.70396e-06 2.87e-05 4.17e-05 1.39e-05 
51 1 1.65715e-06 4.69352e-05 1.05866e-05 7.05622e-06 
45 1 1.46054e-06 1.66e-05 1.58e-05 2.04e-05 
5 1 1.8733e-06 7.28e-06 4.09e-06 2.32e-05 
9 1 1.66162e-06 4.33e-05 2.89e-05 2.6e-05 
37 1 1.75688e-06 1.05e-05 1.05e-05 2.79e-05 
18 1 1.86271e-06 4.84e-05 1.14e-05 3.15e-05 
43 1 1.9368e-06 9.18e-06 4.65e-05 3.19e-05 
29 1 1.56637e-06 2.81e-05 3.14e-05 3.77e-05 
41 1 1.78863e-06 4.01e-05 3.61e-05 3.79e-05 
4 1 1.95797e-06 4.48e-05 3.95e-05 3.9e-05 
21 1 1.46054e-06 3.04e-05 3.63e-05 4.42e-05 
27 1 1.51375e-06 1.72974e-05 4.09441e-05 4.42596e-05 
54 1 1.6397e-06 1.79278e-05 3.96023e-05 4.47603e-05 
39 1 1.89446e-06 3.06e-05 5.68e-05 2.45e-06 
30 1 1.90505e-06 3.49e-05 7.45e-05 1.86e-05 
22 1 1.91563e-06 4.21e-05 7.55e-05 2.24e-05 
24 1 1.90505e-06 2.45e-05 6.51e-05 2.73e-05 
12 1 1.79921e-06 1.99e-05 8.21e-05 2.93e-05 
11 1 1.8733e-06 3.23e-05 7.14e-05 3.05e-05 
16 1 1.52986e-06 4.88899e-05 7.37599e-05 3.70537e-05 
46 1 1.78863e-06 3.83e-05 7.84e-05 4.06e-05 
40 1 1.56637e-06 1.77e-05 9.58e-05 4.44e-05 
28 1 1.46237e-06 2.02815e-05 5.143e-05 4.49134e-05 
20 1 1.69338e-06 2.21e-05 6.98e-05 4.65e-05 
7 1 1.47112e-06 2.13e-05 6.78e-05 4.81e-05 
52 1 1.65715e-06 4.95352e-05 7.23866e-05 3.75662e-05 
55 1 1.66609e-06 1.98932e-05 5.17937e-05 4.63822e-05 
8 1 1.76746e-06 7.52e-05 3.24e-05 3.21e-06 
42 1 1.47112e-06 5.24e-05 3.75e-05 1.09e-05 
32 1 1.58754e-06 6.45e-05 2.14e-06 1.19e-05 
35 1 1.56637e-06 7.52e-05 3.66e-05 1.79e-05 
25 1 1.77804e-06 7.86e-05 3.1e-05 2.09e-05 
31 1 1.96855e-06 5.11e-05 1.49e-05 2.7e-05 
48 1 1.94738e-06 8.94e-05 1.06e-05 2.78e-05 
2 1 1.55579e-06 6.25e-05 9.24e-06 3.24e-05 
6 1 1.44995e-06 6.85e-05 4.68e-05 3.82e-05 
14 1 1.62987e-06 5.03e-05 2.77e-06 4.15e-05 
3 1 1.75688e-06 8.55e-05 4.8e-05 4.49e-05 
33 1 1.79921e-06 5.55e-05 3.1e-05 4.7e-05 
38 1 1.94738e-06 8.13e-05 5.69e-05 4.46e-06 
19 1 1.52404e-06 7.02e-05 6.34e-05 5.4e-06 
15 1 1.94738e-06 7.6e-05 7.72e-05 7.28e-06 
1 1 1.94738e-06 8.02e-05 6.71e-05 8.16e-06 
23 1 1.52181e-06 7.23977e-05 8.43435e-05 1.36599e-05 
44 1 1.71454e-06 6.99e-05 5.34e-05 1.68e-05 
53 1 1.64842e-06 7.30275e-05 8.3003e-05 1.41601e-05 
49 1 1.91563e-06 6.12e-05 6.9e-05 2.43e-05 
34 1 1.60871e-06 8.29e-05 7.59e-05 2.59e-05 
13 1 1.80979e-06 6.96e-05 9.76e-05 2.8e-05 
10 1 1.96855e-06 5.21e-05 7.4e-05 3.75e-05 
26 1 1.80979e-06 8.68e-05 8.45e-05 3.84e-05 
ITEM: TIMESTEP
1000
ITEM: NUMBER OF ATOMS
57
ITEM: BOX BOUNDS ff ff ff
0.0000000000000000e+00 1.0000000000000000e-04
0.0000000000000000e+00 1.0000000000000000e-04
0.0000000000000000e+00 5.0000000000000002e-05
ITEM: ATOMS id type diameter x y z 
17 1 1.88514e-06 2.8e-05 2.89e-05 4.33e-06 
47 1 1.53953e-06 4.62899e-05 1.19599e-05 6.54373e-06 
51 1 1.66762e-06 4.69352e-05 1.05866e-05 7.05622e-06 
50 1 1.68278e-06 2.14e-05 2.78e-05 1.04e-05 
36 1 1.71473e-06 2.87e-05 4.17e-05 1.39e-05 
45 1 1.46977e-06 1.66e-05 1.58e-05 2.04e-05 
5 1 1.88514e-06 7.28e-06 4.09e-06 2.32e-05 
9 1 1.67213e-06 4.33e-05 2.89e-05 2.6e-05 
37 1 1.76798e-06 1.05e-05 1.05e-05 2.79e-05 
18 1 1.87449e-06 4.84e-05 1.14e-05 3.15e-05 
43 1 1.94904e-06 9.18e-06 4.65e-05 3.19e-05 
29 1 1.57628e-06 2.81e-05 3.14e-05 3.77e-05 
41 1 1.79994e-06 4.01e-05 3.61e-05 3.79e-05 
4 1 1.97034e-06 4.48e-05 3.95e-05 3.9e-05 
21 1 1.46977e-06 3.04e-05 3.63e-05 4.42e-05 
27 1 1.52332e-06 1.72974e-05 4.09441e-05 4.42596e-05 
54 1 1.65007e-06 1.79278e-05 3.96023e-05 4.47603e-05 
39 1 1.90644e-06 3.06e-05 5.68e-05 2.45e-06 
30 1 1.91709e-06 3.49e-05 7.45e-05 1.86e-05 
22 1 1.92774e-06 4.21e-05 7.55e-05 2.24e-05 
24 1 1.91709e-06 2.45e-05 6.51e-05 2.73e-05 
12 1 1.81059e-06 1.99e-05 8.21e-05 2.93e-05 
11 1 1.88514e-06 3.23e-05 7.14e-05 3.05e-05 
16 1 1.53953e-06 4.88899e-05 7.37599e-05 3.70537e-05 
52 1 1.66762e-06 4.95352e-05 7.23866e-05 3.75662e-05 
46 1 1.79994e-06 3.83e-05 7.84e-05 4.06e-05 
40 1 1.57628e-06 1.77e-05 9.58e-05 4.44e-05 
28 1 1.47162e-06 2.02815e-05 5.143e-05 4.49134e-05 
55 1 1.67663e-06 1.98932e-05 5.17937e-05 4.63822e-05 
20 1 1.70408e-06 2.21e-05 6.98e-05 4.65e-05 
7 1 1.48042e-06 2.13e-05 6.78e-05 4.81e-05 
8 1 1.77863e-06 7.52e-05 3.24e-05 3.21e-06 
42 1 1.48042e-06 5.24e-05 3.75e-05 1.09e-05 
32 1 1.59758e-06 6.45e-05 2.14e-06 1.19e-05 
35 1 1.57628e-06 7.52e-05 3.66e-05 1.79e-05 
25 1 1.78929e-06 7.86e-05 3.1e-05 2.09e-05 
31 1 1.50712e-06 5.07968e-05 1.55453e-05 2.67592e-05 
56 1 1.63251e-06 5.14284e-05 1.4201e-05 2.72608e-05 
48 1 1.95969e-06 8.94e-05 1.06e-05 2.78e-05 
2 1 1.56562e-06 6.25e-05 9.24e-06 3.24e-05 
6 1 1.45912e-06 6.85e-05 4.68e-05 3.82e-05 
14 1 1.64018e-06 5.03e-05 2.77e-06 4.15e-05 
3 1 1.76798e-06 8.55e-05 4.8e-05 4.49e-05 
33 1 1.81059e-06 5.55e-05 3.1e-05 4.7e-05 
38 1 1.95969e-06 8.13e-05 5.69e-05 4.46e-06 
19 1 1.53367e-06 7.02e-05 6.34e-05 5.4e-06 
15 1 1.95969e-06 7.6e-05 7.72e-05 7.28e-06 
1 1 1.95969e-06 8.02e-05 6.71e-05 8.16e-06 
23 1 1.53143e-06 7.23896e-05 8.43606e-05 1.36535e-05 
53 1 1.65884e-06 7.30355e-05 8.29859e-05 1.41665e-05 
44 1 1.72538e-06 6.99e-05 5.34e-05 1.68e-05 
49 1 1.92774e-06 6.12e-05 6.9e-05 2.43e-05 
34 1 1.61888e-06 8.29e-05 7.59e-05 2.59e-05 
13 1 1.82124e-06 6.96e-05 9.76e-05 2.8e-05 
10 1 1.50712e-06 5.17968e-05 7.46453e-05 3.72592e-05 
57 1 1.63251e-06 5.24284e-05 7.3301e-05 3.77608e-05 
26 1 1.82124e-06 8.68e-05 8.45e-05 3.84e-05 
ITEM: TIMESTEP
1100
ITEM: NUMBER OF ATOMS
58
ITEM: BOX BOUNDS ff ff ff
0.0000000000000000e+00 1.0000000000000000e-04
0.0000000000000000e+00 1.0000000000000000e-04
0.0000000000000000e+00 5.0000000000000002e-05
ITEM: ATOMS id type diameter x y z 
17 1 1.89706e-06 2.8e-05 2.89e-05 4.33e-06 
47 1 1.54926e-06 4.62899e-05 1.19599e-05 6.54373e-06 
51 1 1.67816e-06 4.69352e-05 1.05866e-05 7.05622e-06 
50 1 1.69342e-06 2.14e-05 2.78e-05 1.04e-05 
36 1 1.72557e-06 2.87e-05 4.17e-05 1.39e-05 
45 1 1.47906e-06 1.66e-05 1.58e-05 2.04e-05 
5 1 1.89706e-06 7.28e-06 4.09e-06 2.32e-05 
9 1 1.6827e-06 4.33e-05 2.89e-05 2.6e-05 
37 1 1.77916e-06 1.05e-05 1.05e-05 2.79e-05 
18 1 1.88634e-06 4.84e-05 1.14e-05 3.15e-05 
43 1 1.96136e-06 9.18e-06 4.65e-05 3.19e-05 
29 1 1.58624e-06 2.81e-05 3.14e-05 3.77e-05 
41 1 1.81132e-06 4.01e-05 3.61e-05 3.79e-05 
4 1 1.46508e-06 4.49819e-05 3.93297e-05 3.83122e-05 
21 1 1.47906e-06 3.04e-05 3.63e-05 4.42e-05 
27 1 1.53295e-06 1.72893e-05 4.09612e-05 4.42532e-05 
54 1 1.6605e-06 1.79358e-05 3.95852e-05 4.47667e-05 
58 1 1.66918e-06 4.45928e-05 3.9694e-05 3.97837e-05 
39 1 1.91849e-06 3.06e-05 5.68e-05 2.45e-06 
30 1 1.92921e-06 3.49e-05 7.45e-05 1.86e-05 
22 1 1.93993e-06 4.21e-05 7.55e-05 2.24e-05 
24 1 1.92921e-06 2.45e-05 6.51e-05 2.73e-05 
12 1 1.82203e-06 1.99e-05 8.21e-05 2.93e-05 
11 1 1.89706e-06 3.23e-05 7.14e-05 3.05e-05 
16 1 1.54926e-06 4.88899e-05 7.37599e-05 3.70537e-05 
52 1 1.67816e-06 4.95352e-05 7.23866e-05 3.75662e-05 
46 1 1.81132e-06 3.83e-05 7.84e-05 4.06e-05 
40 1 1.58624e-06 1.77e-05 9.58e-05 4.44e-05 
28 1 1.48092e-06 2.02815e-05 5.143e-05 4.49134e-05 
55 1 1.68723e-06 1.98932e-05 5.17937e-05 4.63822e-05 