ITEM: TIMESTEP
0
ITEM: NUMBER OF ATOMS
50
ITEM: BOX BOUNDS ff ff ff
0.0000000000000000e+00 1.0000000000000000e-04
0.0000000000000000e+00 1.0000000000000000e-04
0.0000000000000000e+00 5.0000000000000002e-05
ITEM: ATOMS id type diameter x y z 
14 1 1.55e-06 7.45e-06 9.76e-06 7.89e-06 
44 1 1.38e-06 3.28e-06 1.76e-05 1.55e-05 
46 1 1.83e-06 4.21e-05 7.61e-06 2.2e-05 
16 1 1.43e-06 4.08e-06 1.25e-05 2.3e-05 
49 1 1.38e-06 3.64e-05 5.98e-06 2.56e-05 
12 1 1.78e-06 1.98e-05 3.34e-05 3.07e-05 
2 1 1.7e-06 2.12e-05 2.25e-05 3.64e-05 
5 1 1.42e-06 7.44e-06 1.82e-05 3.95e-05 
7 1 1.72e-06 2.03e-05 4.06e-06 4.26e-05 
23 1 1.48e-06 3.68e-05 1.66e-05 4.35e-05 
25 1 1.49e-06 7.8e-06 6.73e-05 4.34e-06 
20 1 1.69e-06 3.83e-05 8.65e-05 5.3e-06 
28 1 1.53e-06 4.88e-05 8.37e-05 6.08e-06 
8 1 1.72e-06 2.68e-05 5.7e-05 7.57e-06 
9 1 1.64e-06 1.82e-05 9.05e-05 1.62e-05 
18 1 1.84e-06 1.75e-05 6.92e-05 2.2e-05 
41 1 1.38e-06 1.52e-06 8.82e-05 2.22e-05 
36 1 1.5e-06 2.33e-05 7.45e-05 2.27e-05 
42 1 1.8e-06 8.4e-06 7.82e-05 2.39e-05 
30 1 1.75e-06 1.06e-05 8.36e-05 2.82e-05 
34 1 1.74e-06 4.43e-05 9.75e-05 2.97e-05 
47 1 1.85e-06 1.94e-05 5.61e-05 3.2e-05 
33 1 1.6e-06 1.99e-05 5.98e-05 3.19e-05 
17 1 1.6e-06 2.3e-05 7.43e-05 3.23e-05 
50 1 1.57e-06 2.78e-05 9.42e-05 3.22e-05 
40 1 1.62e-06 2.64e-05 5.06e-05 3.61e-05 
43 1 1.44e-06 2.31e-05 7.97e-05 4.76e-05 
39 1 1.52e-06 7.12e-05 4.56e-06 2.56e-06 
13 1 1.6e-06 6.71e-05 9.45e-06 5.08e-06 
26 1 1.65e-06 9.5e-05 4.29e-05 6.87e-06 
48 1 1.38e-06 8.19e-05 2.01e-05 1.09e-05 
27 1 1.53e-06 9.68e-05 8.29e-06 1.14e-05 
1 1 1.63e-06 7.46e-05 3.94e-05 2.41e-05 
31 1 1.68e-06 8.98e-05 4.84e-06 2.65e-05 
10 1 1.86e-06 7.73e-05 4.94e-05 2.77e-05 
22 1 1.53e-06 6.54e-05 4.89e-05 3.14e-05 
11 1 1.73e-06 7.25e-05 1.36e-05 3.22e-05 
4 1 1.53e-06 7.21e-05 4.2e-05 3.55e-05 
15 1 1.68e-06 5.42e-05 3.69e-05 4.22e-05 
38 1 1.92e-06 8.3e-05 2.09e-05 4.68e-05 
45 1 1.49e-06 6.4e-05 8.43e-05 3.72e-06 
6 1 1.56e-06 6.66e-05 6.97e-05 1.01e-05 
3 1 1.57e-06 8.21e-05 7.09e-05 1.02e-05 
29 1 1.81e-06 7.09e-05 5.96e-05 1.14e-05 
24 1 1.87e-06 7.13e-05 9.16e-05 1.43e-05 
32 1 1.52e-06 8.6e-05 7.54e-05 1.78e-05 
37 1 1.39e-06 8.13e-05 7.16e-05 2.48e-05 
35 1 1.66e-06 9.69e-05 9.06e-05 2.47e-05 
21 1 1.89e-06 8.3e-05 5.28e-05 2.62e-05 
19 1 1.49e-06 7.16e-05 8.44e-05 3.14e-05 
ITEM: TIMESTEP
100
ITEM: NUMBER OF ATOMS
50
ITEM: BOX BOUNDS ff ff ff
0.0000000000000000e+00 1.0000000000000000e-04
0.0000000000000000e+00 1.0000000000000000e-04
0.0000000000000000e+00 5.0000000000000002e-05
ITEM: ATOMS id type diameter x y z 
14 1 1.56021e-06 7.45e-06 9.76e-06 7.89e-06 
44 1 1.38909e-06 3.28e-06 1.76e-05 1.55e-05 
46 1 1.84206e-06 4.21e-05 7.61e-06 2.2e-05 
16 1 1.43942e-06 4.08e-06 1.25e-05 2.3e-05 
49 1 1.38909e-06 3.64e-05 5.98e-06 2.56e-05 
12 1 1.79173e-06 1.98e-05 3.34e-05 3.07e-05 
2 1 1.7112e-06 2.12e-05 2.25e-05 3.64e-05 
5 1 1.42936e-06 7.44e-06 1.82e-05 3.95e-05 
7 1 1.73133e-06 2.03e-05 4.06e-06 4.26e-05 
23 1 1.48975e-06 3.68e-05 1.66e-05 4.35e-05 
25 1 1.49982e-06 7.8e-06 6.73e-05 4.34e-06 
20 1 1.70114e-06 3.83e-05 8.65e-05 5.3e-06 
28 1 1.54008e-06 4.88e-05 8.37e-05 6.08e-06 
8 1 1.73133e-06 2.68e-05 5.7e-05 7.57e-06 
9 1 1.65081e-06 1.82e-05 9.05e-05 1.62e-05 
18 1 1.85212e-06 1.75e-05 6.92e-05 2.2e-05 
41 1 1.38909e-06 1.52e-06 8.82e-05 2.22e-05 
36 1 1.50988e-06 2.33e-05 7.45e-05 2.27e-05 
42 1 1.81186e-06 8.4e-06 7.82e-05 2.39e-05 
30 1 1.76153e-06 1.06e-05 8.36e-05 2.82e-05 
34 1 1.75147e-06 4.43e-05 9.75e-05 2.97e-05 
47 1 1.86219e-06 1.94e-05 5.61e-05 3.2e-05 
33 1 1.61054e-06 1.99e-05 5.98e-05 3.19e-05 
17 1 1.61054e-06 2.3e-05 7.43e-05 3.23e-05 
50 1 1.58035e-06 2.78e-05 9.42e-05 3.22e-05 
40 1 1.63067e-06 2.64e-05 5.06e-05 3.61e-05 
43 1 1.44949e-06 2.31e-05 7.97e-05 4.76e-05 
39 1 1.53002e-06 7.12e-05 4.56e-06 2.56e-06 
13 1 1.61054e-06 6.71e-05 9.45e-06 5.08e-06 
26 1 1.66087e-06 9.5e-05 4.29e-05 6.87e-06 
48 1 1.38909e-06 8.19e-05 2.01e-05 1.09e-05 
27 1 1.54008e-06 9.68e-05 8.29e-06 1.14e-05 
1 1 1.64074e-06 7.46e-05 3.94e-05 2.41e-05 
31 1 1.69107e-06 8.98e-05 4.84e-06 2.65e-05 
10 1 1.87226e-06 7.73e-05 4.94e-05 2.77e-05 
22 1 1.54008e-06 6.54e-05 4.89e-05 3.14e-05 
11 1 1.7414e-06 7.25e-05 1.36e-05 3.22e-05 
4 1 1.54008e-06 7.21e-05 4.2e-05 3.55e-05 
15 1 1.69107e-06 5.42e-05 3.69e-05 4.22e-05 
38 1 1.93265e-06 8.3e-05 2.09e-05 4.68e-05 
45 1 1.49982e-06 6.4e-05 8.43e-05 3.72e-06 
6 1 1.57028e-06 6.66e-05 6.97e-05 1.01e-05 
3 1 1.58035e-06 8.21e-05 7.09e-05 1.02e-05 
29 1 1.82193e-06 7.09e-05 5.96e-05 1.14e-05 
24 1 1.88232e-06 7.13e-05 9.16e-05 1.43e-05 
32 1 1.53002e-06 8.6e-05 7.54e-05 1.78e-05 
37 1 1.39916e-06 8.13e-05 7.16e-05 2.48e-05 
35 1 1.67094e-06 9.69e-05 9.06e-05 2.47e-05 
21 1 1.90245e-06 8.3e-05 5.28e-05 2.62e-05 
19 1 1.49982e-06 7.16e-05 8.44e-05 3.14e-05 
ITEM: TIMESTEP
200
ITEM: NUMBER OF ATOMS
50
ITEM: BOX BOUNDS ff ff ff
0.0000000000000000e+00 1.0000000000000000e-04
0.0000000000000000e+00 1.0000000000000000e-04
0.0000000000000000e+00 5.0000000000000002e-05
ITEM: ATOMS id type diameter x y z 
14 1 1.57049e-06 7.45e-06 9.76e-06 7.89e-06 
44 1 1.39825e-06 3.28e-06 1.76e-05 1.55e-05 
46 1 1.8542e-06 4.21e-05 7.61e-06 2.2e-05 
16 1 1.44891e-06 4.08e-06 1.25e-05 2.3e-05 
49 1 1.39825e-06 3.64e-05 5.98e-06 2.56e-05 
12 1 1.80354e-06 1.98e-05 3.34e-05 3.07e-05 
2 1 1.72248e-06 2.12e-05 2.25e-05 3.64e-05 
5 1 1.43878e-06 7.44e-06 1.82e-05 3.95e-05 
7 1 1.74274e-06 2.03e-05 4.06e-06 4.26e-05 
23 1 1.49957e-06 3.68e-05 1.66e-05 4.35e-05 
25 1 1.5097e-06 7.8e-06 6.73e-05 4.34e-06 
20 1 1.71235e-06 3.83e-05 8.65e-05 5.3e-06 
28 1 1.55023e-06 4.88e-05 8.37e-05 6.08e-06 
8 1 1.74274e-06 2.68e-05 5.7e-05 7.57e-06 
9 1 1.66168e-06 1.82e-05 9.05e-05 1.62e-05 
18 1 1.86433e-06 1.75e-05 6.92e-05 2.2e-05 
41 1 1.39825e-06 1.52e-06 8.82e-05 2.22e-05 
36 1 1.51983e-06 2.33e-05 7.45e-05 2.27e-05 
42 1 1.8238e-06 8.4e-06 7.82e-05 2.39e-05 
30 1 1.77314e-06 1.06e-05 8.36e-05 2.82e-05 
34 1 1.76301e-06 4.43e-05 9.75e-05 2.97e-05 
47 1 1.87446e-06 1.94e-05 5.61e-05 3.2e-05 
33 1 1.62116e-06 1.99e-05 5.98e-05 3.19e-05 
17 1 1.62116e-06 2.3e-05 7.43e-05 3.23e-05 
50 1 1.59076e-06 2.78e-05 9.42e-05 3.22e-05 
40 1 1.64142e-06 2.64e-05 5.06e-05 3.61e-05 
43 1 1.45904e-06 2.31e-05 7.97e-05 4.76e-05 
39 1 1.5401e-06 7.12e-05 4.56e-06 2.56e-06 
13 1 1.62116e-06 6.71e-05 9.45e-06 5.08e-06 
26 1 1.67182e-06 9.5e-05 4.29e-05 6.87e-06 
48 1 1.39825e-06 8.19e-05 2.01e-05 1.09e-05 
27 1 1.55023e-06 9.68e-05 8.29e-06 1.14e-05 
1 1 1.65155e-06 7.46e-05 3.94e-05 2.41e-05 
31 1 1.70221e-06 8.98e-05 4.84e-06 2.65e-05 
10 1 1.88459e-06 7.73e-05 4.94e-05 2.77e-05 
22 1 1.55023e-06 6.54e-05 4.89e-05 3.14e-05 
11 1 1.75287e-06 7.25e-05 1.36e-05 3.22e-05 
4 1 1.55023e-06 7.21e-05 4.2e-05 3.55e-05 
15 1 1.70221e-06 5.42e-05 3.69e-05 4.22e-05 
38 1 1.94539e-06 8.3e-05 2.09e-05 4.68e-05 
45 1 1.5097e-06 6.4e-05 8.43e-05 3.72e-06 
6 1 1.58063e-06 6.66e-05 6.97e-05 1.01e-05 
3 1 1.59076e-06 8.21e-05 7.09e-05 1.02e-05 
29 1 1.83393e-06 7.09e-05 5.96e-05 1.14e-05 
24 1 1.89473e-06 7.13e-05 9.16e-05 1.43e-05 
32 1 1.5401e-06 8.6e-05 7.54e-05 1.78e-05 
37 1 1.40838e-06 8.13e-05 7.16e-05 2.48e-05 
35 1 1.68195e-06 9.69e-05 9.06e-05 2.47e-05 
21 1 1.91499e-06 8.3e-05 5.28e-05 2.62e-05 
19 1 1.5097e-06 7.16e-05 8.44e-05 3.14e-05 
ITEM: TIMESTEP
300
ITEM: NUMBER OF ATOMS
50
ITEM: BOX BOUNDS ff ff ff
0.0000000000000000e+00 1.0000000000000000e-04
0.0000000000000000e+00 1.0000000000000000e-04
0.0000000000000000e+00 5.0000000000000002e-05
ITEM: ATOMS id type diameter x y z 
14 1 1.58084e-06 7.45e-06 9.76e-06 7.89e-06 
44 1 1.40746e-06 3.28e-06 1.76e-05 1.55e-05 
46 1 1.86641e-06 4.21e-05 7.61e-06 2.2e-05 
16 1 1.45846e-06 4.08e-06 1.25e-05 2.3e-05 
49 1 1.40746e-06 3.64e-05 5.98e-06 2.56e-05 
12 1 1.81542e-06 1.98e-05 3.34e-05 3.07e-05 
2 1 1.73383e-06 2.12e-05 2.25e-05 3.64e-05 
5 1 1.44826e-06 7.44e-06 1.82e-05 3.95e-05 
7 1 1.75423e-06 2.03e-05 4.06e-06 4.26e-05 
23 1 1.50945e-06 3.68e-05 1.66e-05 4.35e-05 
25 1 1.51965e-06 7.8e-06 6.73e-05 4.34e-06 
20 1 1.72363e-06 3.83e-05 8.65e-05 5.3e-06 
28 1 1.56045e-06 4.88e-05 8.37e-05 6.08e-06 
8 1 1.75423e-06 2.68e-05 5.7e-05 7.57e-06 
9 1 1.67263e-06 1.82e-05 9.05e-05 1.62e-05 
18 1 1.87661e-06 1.75e-05 6.92e-05 2.2e-05 
41 1 1.40746e-06 1.52e-06 8.82e-05 2.22e-05 
36 1 1.52985e-06 2.33e-05 7.45e-05 2.27e-05 
42 1 1.83582e-06 8.4e-06 7.82e-05 2.39e-05 
30 1 1.78482e-06 1.06e-05 8.36e-05 2.82e-05 
34 1 1.77462e-06 4.43e-05 9.75e-05 2.97e-05 
47 1 1.88681e-06 1.94e-05 5.61e-05 3.2e-05 
33 1 1.63184e-06 1.99e-05 5.98e-05 3.19e-05 
17 1 1.63184e-06 2.3e-05 7.43e-05 3.23e-05 
50 1 1.60124e-06 2.78e-05 9.42e-05 3.22e-05 
40 1 1.65224e-06 2.64e-05 5.06e-05 3.61e-05 
43 1 1.46865e-06 2.31e-05 7.97e-05 4.76e-05 
39 1 1.55025e-06 7.12e-05 4.56e-06 2.56e-06 
13 1 1.63184e-06 6.71e-05 9.45e-06 5.08e-06 
26 1 1.68283e-06 9.5e-05 4.29e-05 6.87e-06 
48 1 1.40746e-06 8.19e-05 2.01e-05 1.09e-05 
27 1 1.56045e-06 9.68e-05 8.29e-06 1.14e-05 
1 1 1.66244e-06 7.46e-05 3.94e-05 2.41e-05 
31 1 1.71343e-06 8.98e-05 4.84e-06 2.65e-05 
10 1 1.89701e-06 7.73e-05 4.94e-05 2.77e-05 
22 1 1.56045e-06 6.54e-05 4.89e-05 3.14e-05 
11 1 1.76442e-06 7.25e-05 1.36e-05 3.22e-05 
4 1 1.56045e-06 7.21e-05 4.2e-05 3.55e-05 
15 1 1.71343e-06 5.42e-05 3.69e-05 4.22e-05 
38 1 1.95821e-06 8.3e-05 2.09e-05 4.68e-05 
45 1 1.51965e-06 6.4e-05 8.43e-05 3.72e-06 
6 1 1.59104e-06 6.66e-05 6.97e-05 1.01e-05 
3 1 1.60124e-06 8.21e-05 7.09e-05 1.02e-05 
29 1 1.84602e-06 7.09e-05 5.96e-05 1.14e-05 
24 1 1.90721e-06 7.13e-05 9.16e-05 1.43e-05 
32 1 1.55025e-06 8.6e-05 7.54e-05 1.78e-05 
37 1 1.41766e-06 8.13e-05 7.16e-05 2.48e-05 
35 1 1.69303e-06 9.69e-05 9.06e-05 2.47e-05 
21 1 1.92761e-06 8.3e-05 5.28e-05 2.62e-05 
19 1 1.51965e-06 7.16e-05 8.44e-05 3.14e-05 
ITEM: TIMESTEP
400
ITEM: NUMBER OF ATOMS
50
ITEM: BOX BOUNDS ff ff ff
0.0000000000000000e+00 1.0000000000000000e-04
0.0000000000000000e+00 1.0000000000000000e-04
0.0000000000000000e+00 5.0000000000000002e-05
ITEM: ATOMS id type diameter x y z 
14 1 1.59126e-06 7.45e-06 9.76e-06 7.89e-06 
44 1 1.41673e-06 3.28e-06 1.76e-05 1.55e-05 
46 1 1.87871e-06 4.21e-05 7.61e-06 2.2e-05 
16 1 1.46807e-06 4.08e-06 1.25e-05 2.3e-05 
49 1 1.41673e-06 3.64e-05 5.98e-06 2.56e-05 
12 1 1.82738e-06 1.98e-05 3.34e-05 3.07e-05 
2 1 1.74525e-06 2.12e-05 2.25e-05 3.64e-05 
5 1 1.4578e-06 7.44e-06 1.82e-05 3.95e-05 
7 1 1.76579e-06 2.03e-05 4.06e-06 4.26e-05 
23 1 1.5194e-06 3.68e-05 1.66e-05 4.35e-05 
25 1 1.52966e-06 7.8e-06 6.73e-05 4.34e-06 
20 1 1.73499e-06 3.83e-05 8.65e-05 5.3e-06 
28 1 1.57073e-06 4.88e-05 8.37e-05 6.08e-06 
8 1 1.76579e-06 2.68e-05 5.7e-05 7.57e-06 
9 1 1.68366e-06 1.82e-05 9.05e-05 1.62e-05 
18 1 1.88898e-06 1.75e-05 6.92e-05 2.2e-05 
41 1 1.41673e-06 1.52e-06 8.82e-05 2.22e-05 
36 1 1.53993e-06 2.33e-05 7.45e-05 2.27e-05 
42 1 1.84791e-06 8.4e-06 7.82e-05 2.39e-05 
30 1 1.79658e-06 1.06e-05 8.36e-05 2.82e-05 
34 1 1.78632e-06 4.43e-05 9.75e-05 2.97e-05 
47 1 1.89925e-06 1.94e-05 5.61e-05 3.2e-05 
33 1 1.64259e-06 1.99e-05 5.98e-05 3.19e-05 
17 1 1.64259e-06 2.3e-05 7.43e-05 3.23e-05 
50 1 1.61179e-06 2.78e-05 9.42e-05 3.22e-05 
40 1 1.66312e-06 2.64e-05 5.06e-05 3.61e-05 
43 1 1.47833e-06 2.31e-05 7.97e-05 4.76e-05 
39 1 1.56046e-06 7.12e-05 4.56e-06 2.56e-06 
13 1 1.64259e-06 6.71e-05 9.45e-06 5.08e-06 
26 1 1.69392e-06 9.5e-05 4.29e-05 6.87e-06 
48 1 1.41673e-06 8.19e-05 2.01e-05 1.09e-05 
27 1 1.57073e-06 9.68e-05 8.29e-06 1.14e-05 
1 1 1.67339e-06 7.46e-05 3.94e-05 2.41e-05 
31 1 1.72472e-06 8.98e-05 4.84e-06 2.65e-05 
10 1 1.90951e-06 7.73e-05 4.94e-05 2.77e-05 
22 1 1.57073e-06 6.54e-05 4.89e-05 3.14e-05 
11 1 1.77605e-06 7.25e-05 1.36e-05 3.22e-05 
4 1 1.57073e-06 7.21e-05 4.2e-05 3.55e-05 
15 1 1.72472e-06 5.42e-05 3.69e-05 4.22e-05 
38 1 1.97111e-06 8.3e-05 2.09e-05 4.68e-05 
45 1 1.52966e-06 6.4e-05 8.43e-05 3.72e-06 
6 1 1.60153e-06 6.66e-05 6.97e-05 1.01e-05 
3 1 1.61179e-06 8.21e-05 7.09e-05 1.02e-05 
29 1 1.85818e-06 7.09e-05 5.96e-05 1.14e-05 
24 1 1.91978e-06 7.13e-05 9.16e-05 1.43e-05 
32 1 1.56046e-06 8.6e-05 7.54e-05 1.78e-05 
37 1 1.427e-06 8.13e-05 7.16e-05 2.48e-05 
35 1 1.70419e-06 9.69e-05 9.06e-05 2.47e-05 
21 1 1.94031e-06 8.3e-05 5.28e-05 2.62e-05 
19 1 1.52966e-06 7.16e-05 8.44e-05 3.14e-05 
ITEM: TIMESTEP
500
ITEM: NUMBER OF ATOMS
51
ITEM: BOX BOUNDS ff ff ff
0.0000000000000000e+00 1.0000000000000000e-04
0.0000000000000000e+00 1.0000000000000000e-04
0.0000000000000000e+00 5.0000000000000002e-05
ITEM: ATOMS id type diameter x y z 
14 1 1.60175e-06 7.45e-06 9.76e-06 7.89e-06 
44 1 1.42607e-06 3.28e-06 1.76e-05 1.55e-05 
46 1 1.89109e-06 4.21e-05 7.61e-06 2.2e-05 
16 1 1.47774e-06 4.08e-06 1.25e-05 2.3e-05 
49 1 1.42607e-06 3.64e-05 5.98e-06 2.56e-05 
12 1 1.83942e-06 1.98e-05 3.34e-05 3.07e-05 
2 1 1.75675e-06 2.12e-05 2.25e-05 3.64e-05 
5 1 1.46741e-06 7.44e-06 1.82e-05 3.95e-05 
7 1 1.77742e-06 2.03e-05 4.06e-06 4.26e-05 
23 1 1.52941e-06 3.68e-05 1.66e-05 4.35e-05 
25 1 1.53974e-06 7.8e-06 6.73e-05 4.34e-06 
20 1 1.74642e-06 3.83e-05 8.65e-05 5.3e-06 
28 1 1.58108e-06 4.88e-05 8.37e-05 6.08e-06 
8 1 1.77742e-06 2.68e-05 5.7e-05 7.57e-06 
9 1 1.69475e-06 1.82e-05 9.05e-05 1.62e-05 
18 1 1.90143e-06 1.75e-05 6.92e-05 2.2e-05 
41 1 1.42607e-06 1.52e-06 8.82e-05 2.22e-05 
36 1 1.55008e-06 2.33e-05 7.45e-05 2.27e-05 
42 1 1.86009e-06 8.4e-06 7.82e-05 2.39e-05 
30 1 1.80842e-06 1.06e-05 8.36e-05 2.82e-05 
34 1 1.79809e-06 4.43e-05 9.75e-05 2.97e-05 
47 1 1.91176e-06 1.94e-05 5.61e-05 3.2e-05 
33 1 1.65341e-06 1.99e-05 5.98e-05 3.19e-05 
17 1 1.65341e-06 2.3e-05 7.43e-05 3.23e-05 
50 1 1.62241e-06 2.78e-05 9.42e-05 3.22e-05 
40 1 1.67408e-06 2.64e-05 5.06e-05 3.61e-05 
43 1 1.48807e-06 2.31e-05 7.97e-05 4.76e-05 
39 1 1.57074e-06 7.12e-05 4.56e-06 2.56e-06 
13 1 1.65341e-06 6.71e-05 9.45e-06 5.08e-06 
26 1 1.70508e-06 9.5e-05 4.29e-05 6.87e-06 
48 1 1.42607e-06 8.19e-05 2.01e-05 1.09e-05 
27 1 1.58108e-06 9.68e-05 8.29e-06 1.14e-05 
1 1 1.68442e-06 7.46e-05 3.94e-05 2.41e-05 
31 1 1.73609e-06 8.98e-05 4.84e-06 2.65e-05 
10 1 1.92209e-06 7.73e-05 4.94e-05 2.77e-05 
22 1 1.58108e-06 6.54e-05 4.89e-05 3.14e-05 
11 1 1.78775e-06 7.25e-05 1.36e-05 3.22e-05 
4 1 1.58108e-06 7.21e-05 4.2e-05 3.55e-05 
15 1 1.73609e-06 5.42e-05 3.69e-05 4.22e-05 
38 1 1.66294e-06 8.22232e-05 2.11649e-05 4.66754e-05 
51 1 1.47546e-06 8.36893e-05 2.0665e-05 4.69105e-05 
45 1 1.53974e-06 6.4e-05 8.43e-05 3.72e-06 
6 1 1.61208e-06 6.66e-05 6.97e-05 1.01e-05 
3 1 1.62241e-06 8.21e-05 7.09e-05 1.02e-05 
29 1 1.87043e-06 7.09e-05 5.96e-05 1.14e-05 
24 1 1.93243e-06 7.13e-05 9.16e-05 1.43e-05 
32 1 1.57074e-06 8.6e-05 7.54e-05 1.78e-05 
37 1 1.4364e-06 8.13e-05 7.16e-05 2.48e-05 
35 1 1.71542e-06 9.69e-05 9.06e-05 2.47e-05 
21 1 1.9531e-06 8.3e-05 5.28e-05 2.62e-05 
19 1 1.53974e-06 7.16e-05 8.44e-05 3.14e-05 
ITEM: TIMESTEP
600
ITEM: NUMBER OF ATOMS
51
ITEM: BOX BOUNDS ff ff ff
0.0000000000000000e+00 1.0000000000000000e-04
0.0000000000000000e+00 1.0000000000000000e-04
0.0000000000000000e+00 5.0000000000000002e-05
ITEM: ATOMS id type diameter x y z 
14 1 1.6123e-06 7.45e-06 9.76e-06 7.89e-06 
44 1 1.43547e-06 3.28e-06 1.76e-05 1.55e-05 
46 1 1.90355e-06 4.21e-05 7.61e-06 2.2e-05 
16 1 1.48748e-06 4.08e-06 1.25e-05 2.3e-05 
49 1 1.43547e-06 3.64e-05 5.98e-06 2.56e-05 
12 1 1.85154e-06 1.98e-05 3.34e-05 3.07e-05 
2 1 1.76833e-06 2.12e-05 2.25e-05 3.64e-05 
5 1 1.47707e-06 7.44e-06 1.82e-05 3.95e-05 
7 1 1.78913e-06 2.03e-05 4.06e-06 4.26e-05 
23 1 1.53949e-06 3.68e-05 1.66e-05 4.35e-05 
25 1 1.54989e-06 7.8e-06 6.73e-05 4.34e-06 
20 1 1.75793e-06 3.83e-05 8.65e-05 5.3e-06 
28 1 1.5915e-06 4.88e-05 8.37e-05 6.08e-06 
8 1 1.78913e-06 2.68e-05 5.7e-05 7.57e-06 
9 1 1.70592e-06 1.82e-05 9.05e-05 1.62e-05 
18 1 1.91396e-06 1.75e-05 6.92e-05 2.2e-05 
41 1 1.43547e-06 1.52e-06 8.82e-05 2.22e-05 
36 1 1.56029e-06 2.33e-05 7.45e-05 2.27e-05 
42 1 1.87235e-06 8.4e-06 7.82e-05 2.39e-05 
30 1 1.82034e-06 1.06e-05 8.36e-05 2.82e-05 
34 1 1.80994e-06 4.43e-05 9.75e-05 2.97e-05 
47 1 1.92436e-06 1.94e-05 5.61e-05 3.2e-05 
33 1 1.66431e-06 1.99e-05 5.98e-05 3.19e-05 
17 1 1.66431e-06 2.3e-05 7.43e-05 3.23e-05 
50 1 1.6331e-06 2.78e-05 9.42e-05 3.22e-05 
40 1 1.68511e-06 2.64e-05 5.06e-05 3.61e-05 
43 1 1.49788e-06 2.31e-05 7.97e-05 4.76e-05 
39 1 1.58109e-06 7.12e-05 4.56e-06 2.56e-06 
13 1 1.66431e-06 6.71e-05 9.45e-06 5.08e-06 
26 1 1.71632e-06 9.5e-05 4.29e-05 6.87e-06 
48 1 1.43547e-06 8.19e-05 2.01e-05 1.09e-05 
27 1 1.5915e-06 9.68e-05 8.29e-06 1.14e-05 
1 1 1.69552e-06 7.46e-05 3.94e-05 2.41e-05 
31 1 1.74753e-06 8.98e-05 4.84e-06 2.65e-05 
10 1 1.93476e-06 7.73e-05 4.94e-05 2.77e-05 
22 1 1.5915e-06 6.54e-05 4.89e-05 3.14e-05 
11 1 1.79953e-06 7.25e-05 1.36e-05 3.22e-05 
4 1 1.5915e-06 7.21e-05 4.2e-05 3.55e-05 
15 1 1.74753e-06 5.42e-05 3.69e-05 4.22e-05 
38 1 1.67389e-06 8.22232e-05 2.11649e-05 4.66754e-05 
51 1 1.48518e-06 8.36893e-05 2.0665e-05 4.69105e-05 
45 1 1.54989e-06 6.4e-05 8.43e-05 3.72e-06 
6 1 1.6227e-06 6.66e-05 6.97e-05 1.01e-05 
3 1 1.6331e-06 8.21e-05 7.09e-05 1.02e-05 
29 1 1.88275e-06 7.09e-05 5.96e-05 1.14e-05 
24 1 1.94516e-06 7.13e-05 9.16e-05 1.43e-05 
32 1 1.58109e-06 8.6e-05 7.54e-05 1.78e-05 
37 1 1.44587e-06 8.13e-05 7.16e-05 2.48e-05 
35 1 1.72672e-06 9.69e-05 9.06e-05 2.47e-05 
21 1 1.96597e-06 8.3e-05 5.28e-05 2.62e-05 
19 1 1.54989e-06 7.16e-05 8.44e-05 3.14e-05 
ITEM: TIMESTEP
700
ITEM: NUMBER OF ATOMS
52
ITEM: BOX BOUNDS ff ff ff
0.0000000000000000e+00 1.0000000000000000e-04
0.0000000000000000e+00 1.0000000000000000e-04
0.0000000000000000e+00 5.0000000000000002e-05
ITEM: ATOMS id type diameter x y z 
14 1 1.62292e-06 7.45e-06 9.76e-06 7.89e-06 
44 1 1.44493e-06 3.28e-06 1.76e-05 1.55e-05 
46 1 1.9161e-06 4.21e-05 7.61e-06 2.2e-05 
16 1 1.49728e-06 4.08e-06 1.25e-05 2.3e-05 
49 1 1.44493e-06 3.64e-05 5.98e-06 2.56e-05 
12 1 1.86375e-06 1.98e-05 3.34e-05 3.07e-05 
2 1 1.77998e-06 2.12e-05 2.25e-05 3.64e-05 
5 1 1.48681e-06 7.44e-06 1.82e-05 3.95e-05 
7 1 1.80092e-06 2.03e-05 4.06e-06 4.26e-05 
23 1 1.54963e-06 3.68e-05 1.66e-05 4.35e-05 
25 1 1.5601e-06 7.8e-06 6.73e-05 4.34e-06 
20 1 1.76951e-06 3.83e-05 8.65e-05 5.3e-06 
28 1 1.60198e-06 4.88e-05 8.37e-05 6.08e-06 
8 1 1.80092e-06 2.68e-05 5.7e-05 7.57e-06 
9 1 1.71716e-06 1.82e-05 9.05e-05 1.62e-05 
18 1 1.92657e-06 1.75e-05 6.92e-05 2.2e-05 
41 1 1.44493e-06 1.52e-06 8.82e-05 2.22e-05 
36 1 1.57057e-06 2.33e-05 7.45e-05 2.27e-05 
42 1 1.88469e-06 8.4e-06 7.82e-05 2.39e-05 
30 1 1.83233e-06 1.06e-05 8.36e-05 2.82e-05 
34 1 1.82186e-06 4.43e-05 9.75e-05 2.97e-05 
47 1 1.93704e-06 1.94e-05 5.61e-05 3.2e-05 
33 1 1.67528e-06 1.99e-05 5.98e-05 3.19e-05 
17 1 1.67528e-06 2.3e-05 7.43e-05 3.23e-05 
50 1 1.64387e-06 2.78e-05 9.42e-05 3.22e-05 
40 1 1.69622e-06 2.64e-05 5.06e-05 3.61e-05 
43 1 1.50775e-06 2.31e-05 7.97e-05 4.76e-05 
39 1 1.59151e-06 7.12e-05 4.56e-06 2.56e-06 
13 1 1.67528e-06 6.71e-05 9.45e-06 5.08e-06 
26 1 1.72763e-06 9.5e-05 4.29e-05 6.87e-06 
48 1 1.44493e-06 8.19e-05 2.01e-05 1.09e-05 
27 1 1.60198e-06 9.68e-05 8.29e-06 1.14e-05 
1 1 1.70669e-06 7.46e-05 3.94e-05 2.41e-05 
31 1 1.75904e-06 8.98e-05 4.84e-06 2.65e-05 
10 1 1.94751e-06 7.73e-05 4.94e-05 2.77e-05 
22 1 1.60198e-06 6.54e-05 4.89e-05 3.14e-05 
11 1 1.81139e-06 7.25e-05 1.36e-05 3.22e-05 
4 1 1.60198e-06 7.21e-05 4.2e-05 3.55e-05 
15 1 1.75904e-06 5.42e-05 3.69e-05 4.22e-05 
38 1 1.68492e-06 8.22232e-05 2.11649e-05 4.66754e-05 
51 1 1.49497e-06 8.36893e-05 2.0665e-05 4.69105e-05 
45 1 1.5601e-06 6.4e-05 8.43e-05 3.72e-06 
6 1 1.63339e-06 6.66e-05 6.97e-05 1.01e-05 
3 1 1.64387e-06 8.21e-05 7.09e-05 1.02e-05 
29 1 1.89516e-06 7.09e-05 5.96e-05 1.14e-05 
24 1 1.95798e-06 7.13e-05 9.16e-05 1.43e-05 
32 1 1.59151e-06 8.6e-05 7.54e-05 1.78e-05 
37 1 1.4554e-06 8.13e-05 7.16e-05 2.48e-05 
35 1 1.7381e-06 9.69e-05 9.06e-05 2.47e-05 
21 1 1.6586e-06 8.22252e-05 5.30642e-05 2.60757e-05 
19 1 1.5601e-06 7.16e-05 8.44e-05 3.14e-05 
52 1 1.47161e-06 8.36875e-05 5.25656e-05 2.63103e-05 
ITEM: TIMESTEP
800
ITEM: NUMBER OF ATOMS
52
ITEM: BOX BOUNDS ff ff ff
0.0000000000000000e+00 1.0000000000000000e-04
0.0000000000000000e+00 1.0000000000000000e-04
0.0000000000000000e+00 5.0000000000000002e-05
ITEM: ATOMS id type diameter x y z 
14 1 1.63362e-06 7.45e-06 9.76e-06 7.89e-06 
44 1 1.45445e-06 3.28e-06 1.76e-05 1.55e-05 
46 1 1.92872e-06 4.21e-05 7.61e-06 2.2e-05 
16 1 1.50714e-06 4.08e-06 1.25e-05 2.3e-05 
49 1 1.45445e-06 3.64e-05 5.98e-06 2.56e-05 
12 1 1.87603e-06 1.98e-05 3.34e-05 3.07e-05 
2 1 1.79171e-06 2.12e-05 2.25e-05 3.64e-05 
5 1 1.49661e-06 7.44e-06 1.82e-05 3.95e-05 
7 1 1.81279e-06 2.03e-05 4.06e-06 4.26e-05 
23 1 1.55984e-06 3.68e-05 1.66e-05 4.35e-05 
25 1 1.57038e-06 7.8e-06 6.73e-05 4.34e-06 
20 1 1.78117e-06 3.83e-05 8.65e-05 5.3e-06 
28 1 1.61254e-06 4.88e-05 8.37e-05 6.08e-06 
8 1 1.81279e-06 2.68e-05 5.7e-05 7.57e-06 
9 1 1.72847e-06 1.82e-05 9.05e-05 1.62e-05 
18 1 1.93926e-06 1.75e-05 6.92e-05 2.2e-05 
41 1 1.45445e-06 1.52e-06 8.82e-05 2.22e-05 
36 1 1.58092e-06 2.33e-05 7.45e-05 2.27e-05 
42 1 1.8971e-06 8.4e-06 7.82e-05 2.39e-05 
30 1 1.84441e-06 1.06e-05 8.36e-05 2.82e-05 
34 1 1.83387e-06 4.43e-05 9.75e-05 2.97e-05 
47 1 1.9498e-06 1.94e-05 5.61e-05 3.2e-05 
33 1 1.68632e-06 1.99e-05 5.98e-05 3.19e-05 
17 1 1.68632e-06 2.3e-05 7.43e-05 3.23e-05 
50 1 1.6547e-06 2.78e-05 9.42e-05 3.22e-05 
40 1 1.70739e-06 2.64e-05 5.06e-05 3.61e-05 
43 1 1.51768e-06 2.31e-05 7.97e-05 4.76e-05 
39 1 1.602e-06 7.12e-05 4.56e-06 2.56e-06 
13 1 1.68632e-06 6.71e-05 9.45e-06 5.08e-06 
26 1 1.73901e-06 9.5e-05 4.29e-05 6.87e-06 
48 1 1.45445e-06 8.19e-05 2.01e-05 1.09e-05 
27 1 1.61254e-06 9.68e-05 8.29e-06 1.14e-05 
1 1 1.71793e-06 7.46e-05 3.94e-05 2.41e-05 
31 1 1.77063e-06 8.98e-05 4.84e-06 2.65e-05 
10 1 1.96034e-06 7.73e-05 4.94e-05 2.77e-05 
22 1 1.61254e-06 6.54e-05 4.89e-05 3.14e-05 
11 1 1.82333e-06 7.25e-05 1.36e-05 3.22e-05 
4 1 1.61254e-06 7.21e-05 4.2e-05 3.55e-05 
15 1 1.77063e-06 5.42e-05 3.69e-05 4.22e-05 
38 1 1.69603e-06 8.22044e-05 2.11712e-05 4.66724e-05 
51 1 1.50482e-06 8.3708e-05 2.06586e-05 4.69135e-05 
45 1 1.57038e-06 6.4e-05 8.43e-05 3.72e-06 
6 1 1.64416e-06 6.66e-05 6.97e-05 1.01e-05 
3 1 1.6547e-06 8.21e-05 7.09e-05 1.02e-05 
29 1 1.90764e-06 7.09e-05 5.96e-05 1.14e-05 
24 1 1.97088e-06 7.13e-05 9.16e-05 1.43e-05 
32 1 1.602e-06 8.6e-05 7.54e-05 1.78e-05 
37 1 1.46499e-06 8.13e-05 7.16e-05 2.48e-05 
35 1 1.74955e-06 9.69e-05 9.06e-05 2.47e-05 
21 1 1.66953e-06 8.22252e-05 5.30642e-05 2.60757e-05 
19 1 1.57038e-06 7.16e-05 8.44e-05 3.14e-05 
52 1 1.48131e-06 8.36875e-05 5.25656e-05 2.63103e-05 
ITEM: TIMESTEP
900
ITEM: NUMBER OF ATOMS
54
ITEM: BOX BOUNDS ff ff ff
0.0000000000000000e+00 1.0000000000000000e-04
0.0000000000000000e+00 1.0000000000000000e-04
0.0000000000000000e+00 5.0000000000000002e-05
ITEM: ATOMS id type diameter x y z 
14 1 1.64438e-06 7.45e-06 9.76e-06 7.89e-06 
44 1 1.46403e-06 3.28e-06 1.76e-05 1.55e-05 
46 1 1.94143e-06 4.21e-05 7.61e-06 2.2e-05 
16 1 1.51708e-06 4.08e-06 1.25e-05 2.3e-05 
49 1 1.46403e-06 3.64e-05 5.98e-06 2.56e-05 
12 1 1.88839e-06 1.98e-05 3.34e-05 3.07e-05 
2 1 1.80352e-06 2.12e-05 2.25e-05 3.64e-05 
5 1 1.50647e-06 7.44e-06 1.82e-05 3.95e-05 
7 1 1.82473e-06 2.03e-05 4.06e-06 4.26e-05 
23 1 1.57012e-06 3.68e-05 1.66e-05 4.35e-05 
25 1 1.58073e-06 7.8e-06 6.73e-05 4.34e-06 
20 1 1.79291e-06 3.83e-05 8.65e-05 5.3e-06 
28 1 1.62316e-06 4.88e-05 8.37e-05 6.08e-06 
8 1 1.82473e-06 2.68e-05 5.7e-05 7.57e-06 
9 1 1.73986e-06 1.82e-05 9.05e-05 1.62e-05 
18 1 1.95204e-06 1.75e-05 6.92e-05 2.2e-05 
41 1 1.46403e-06 1.52e-06 8.82e-05 2.22e-05 
36 1 1.59134e-06 2.33e-05 7.45e-05 2.27e-05 
42 1 1.90961e-06 8.4e-06 7.82e-05 2.39e-05 
30 1 1.85656e-06 1.06e-05 8.36e-05 2.82e-05 
34 1 1.84595e-06 4.43e-05 9.75e-05 2.97e-05 
47 1 1.96265e-06 1.94e-05 5.61e-05 3.2e-05 
33 1 1.69743e-06 1.99e-05 5.98e-05 3.19e-05 
17 1 1.69743e-06 2.3e-05 7.43e-05 3.23e-05 
50 1 1.6656e-06 2.78e-05 9.42e-05 3.22e-05 
40 1 1.71865e-06 2.64e-05 5.06e-05 3.61e-05 
43 1 1.52768e-06 2.31e-05 7.97e-05 4.76e-05 
39 1 1.61256e-06 7.12e-05 4.56e-06 2.56e-06 
13 1 1.69743e-06 6.71e-05 9.45e-06 5.08e-06 
26 1 1.75047e-06 9.5e-05 4.29e-05 6.87e-06 
48 1 1.46403e-06 8.19e-05 2.01e-05 1.09e-05 
27 1 1.62316e-06 9.68e-05 8.29e-06 1.14e-05 
1 1 1.72925e-06 7.46e-05 3.94e-05 2.41e-05 
31 1 1.7823e-06 8.98e-05 4.84e-06 2.65e-05 
10 1 1.54685e-06 7.77647e-05 4.96271e-05 2.82734e-05 
22 1 1.62316e-06 6.54e-05 4.89e-05 3.14e-05 
11 1 1.83534e-06 7.25e-05 1.36e-05 3.22e-05 
4 1 1.62316e-06 7.21e-05 4.2e-05 3.55e-05 
15 1 1.7823e-06 5.42e-05 3.69e-05 4.22e-05 
38 1 1.7072e-06 8.22044e-05 2.11712e-05 4.66724e-05 
51 1 1.51474e-06 8.3708e-05 2.06586e-05 4.69135e-05 
53 1 1.58504e-06 7.68239e-05 4.91672e-05 2.71124e-05 
45 1 1.58073e-06 6.4e-05 8.43e-05 3.72e-06 
6 1 1.65499e-06 6.66e-05 6.97e-05 1.01e-05 
3 1 1.6656e-06 8.21e-05 7.09e-05 1.02e-05 
29 1 1.92021e-06 7.09e-05 5.96e-05 1.14e-05 
24 1 1.66274e-06 7.05232e-05 9.18648e-05 1.41754e-05 
32 1 1.61256e-06 8.6e-05 7.54e-05 1.78e-05 
54 1 1.47529e-06 7.19892e-05 9.1365e-05 1.44105e-05 
37 1 1.47464e-06 8.13e-05 7.16e-05 2.48e-05 
35 1 1.76108e-06 9.69e-05 9.06e-05 2.47e-05 
21 1 1.68053e-06 8.22252e-05 5.30642e-05 2.60757e-05 
19 1 1.58073e-06 7.16e-05 8.44e-05 3.14e-05 
52 1 1.49107e-06 8.36875e-05 5.25656e-05 2.63103e-05 
ITEM: TIMESTEP
1000
ITEM: NUMBER OF ATOMS
55
ITEM: BOX BOUNDS ff ff ff
0.0000000000000000e+00 1.0000000000000000e-04
0.0000000000000000e+00 1.0000000000000000e-04
0.0000000000000000e+00 5.0000000000000002e-05
ITEM: ATOMS id type diameter x y z 
14 1 1.65522e-06 7.45e-06 9.76e-06 7.89e-06 
44 1 1.47368e-06 3.28e-06 1.76e-05 1.55e-05 
46 1 1.95423e-06 4.21e-05 7.61e-06 2.2e-05 
16 1 1.52707e-06 4.08e-06 1.25e-05 2.3e-05 
49 1 1.47368e-06 3.64e-05 5.98e-06 2.56e-05 
12 1 1.90083e-06 1.98e-05 3.34e-05 3.07e-05 
2 1 1.8154e-06 2.12e-05 2.25e-05 3.64e-05 
5 1 1.51639e-06 7.44e-06 1.82e-05 3.95e-05 
7 1 1.83676e-06 2.03e-05 4.06e-06 4.26e-05 
23 1 1.58047e-06 3.68e-05 1.66e-05 4.35e-05 
25 1 1.59115e-06 7.8e-06 6.73e-05 4.34e-06 
20 1 1.80472e-06 3.83e-05 8.65e-05 5.3e-06 
28 1 1.63386e-06 4.88e-05 8.37e-05 6.08e-06 
8 1 1.83676e-06 2.68e-05 5.7e-05 7.57e-06 
9 1 1.75133e-06 1.82e-05 9.05e-05 1.62e-05 
18 1 1.9649e-06 1.75e-05 6.92e-05 2.2e-05 
41 1 1.47368e-06 1.52e-06 8.82e-05 2.22e-05 
36 1 1.60182e-06 2.33e-05 7.45e-05 2.27e-05 
42 1 1.92219e-06 8.4e-06 7.82e-05 2.39e-05 
30 1 1.86879e-06 1.06e-05 8.36e-05 2.82e-05 
34 1 1.85812e-06 4.43e-05 9.75e-05 2.97e-05 
47 1 1.6558e-06 1.86265e-05 5.63637e-05 3.1876e-05 
33 1 1.70861e-06 1.99e-05 5.98e-05 3.19e-05 
55 1 1.46913e-06 2.00863e-05 5.5866e-05 3.21101e-05 
17 1 1.70861e-06 2.3e-05 7.43e-05 3.23e-05 
50 1 1.67658e-06 2.78e-05 9.42e-05 3.22e-05 
40 1 1.72997e-06 2.64e-05 5.06e-05 3.61e-05 
43 1 1.53775e-06 2.31e-05 7.97e-05 4.76e-05 
39 1 1.62318e-06 7.12e-05 4.56e-06 2.56e-06 
13 1 1.70861e-06 6.71e-05 9.45e-06 5.08e-06 
26 1 1.76201e-06 9.5e-05 4.29e-05 6.87e-06 
48 1 1.47368e-06 8.19e-05 2.01e-05 1.09e-05 
27 1 1.63386e-06 9.68e-05 8.29e-06 1.14e-05 
1 1 1.74065e-06 7.46e-05 3.94e-05 2.41e-05 
31 1 1.79404e-06 8.98e-05 4.84e-06 2.65e-05 
53 1 1.59548e-06 7.68239e-05 4.91672e-05 2.71124e-05 
10 1 1.55704e-06 7.77647e-05 4.96271e-05 2.82734e-05 
22 1 1.63386e-06 6.54e-05 4.89e-05 3.14e-05 
11 1 1.84744e-06 7.25e-05 1.36e-05 3.22e-05 
4 1 1.63386e-06 7.21e-05 4.2e-05 3.55e-05 
15 1 1.79404e-06 5.42e-05 3.69e-05 4.22e-05 
51 1 1.52472e-06 8.3708e-05 2.06586e-05 4.69135e-05 
38 1 1.71845e-06 8.22044e-05 2.11712e-05 4.66724e-05 
45 1 1.59115e-06 6.4e-05 8.43e-05 3.72e-06 
6 1 1.6659e-06 6.66e-05 6.97e-05 1.01e-05 
3 1 1.67658e-06 8.21e-05 7.09e-05 1.02e-05 
29 1 1.93287e-06 7.09e-05 5.96e-05 1.14e-05 
54 1 1.48501e-06 7.19892e-05 9.1365e-05 1.44105e-05 
24 1 1.6737e-06 7.05232e-05 9.18648e-05 1.41754e-05 
32 1 1.62318e-06 8.6e-05 7.54e-05 1.78e-05 
37 1 1.48436e-06 8.13e-05 7.16e-05 2.48e-05 
35 1 1.77269e-06 9.69e-05 9.06e-05 2.47e-05 
52 1 1.5009e-06 8.37062e-05 5.25592e-05 2.63133e-05 
21 1 1.6916e-06 8.22065e-05 5.30706e-05 2.60727e-05 
19 1 1.59115e-06 7.16e-05 8.44e-05 3.14e-05 
ITEM: TIMESTEP
1100
ITEM: NUMBER OF ATOMS
56
ITEM: BOX BOUNDS ff ff ff
0.0000000000000000e+00 1.0000000000000000e-04
0.0000000000000000e+00 1.0000000000000000e-04
0.0000000000000000e+00 5.0000000000000002e-05
ITEM: ATOMS id type diameter x y z 
14 1 1.66613e-06 7.45e-06 9.76e-06 7.89e-06 
44 1 1.48339e-06 3.28e-06 1.76e-05 1.55e-05 
46 1 1.9671e-06 4.21e-05 7.61e-06 2.2e-05 
16 1 1.53713e-06 4.08e-06 1.25e-05 2.3e-05 
49 1 1.48339e-06 3.64e-05 5.98e-06 2.56e-05 
12 1 1.91336e-06 1.98e-05 3.34e-05 3.07e-05 
2 1 1.82736e-06 2.12e-05 2.25e-05 3.64e-05 
5 1 1.52639e-06 7.44e-06 1.82e-05 3.95e-05 
7 1 1.84886e-06 2.03e-05 4.06e-06 4.26e-05 
23 1 1.59088e-06 3.68e-05 1.66e-05 4.35e-05 
25 1 1.60163e-06 7.8e-06 6.73e-05 4.34e-06 
20 1 1.81661e-06 3.83e-05 8.65e-05 5.3e-06 
28 1 1.64463e-06 4.88e-05 8.37e-05 6.08e-06 
8 1 1.84886e-06 2.68e-05 5.7e-05 7.57e-06 
9 1 1.76287e-06 1.82e-05 9.05e-05 1.62e-05 
18 1 1.55045e-06 1.79657e-05 6.94277e-05 2.25747e-05 
41 1 1.48339e-06 1.52e-06 8.82e-05 2.22e-05 
36 1 1.61238e-06 2.33e-05 7.45e-05 2.27e-05 
42 1 1.93486e-06 8.4e-06 7.82e-05 2.39e-05 
30 1 1.88111e-06 1.06e-05 8.36e-05 2.82e-05 
34 1 1.87036e-06 4.43e-05 9.75e-05 2.97e-05 
47 1 1.66671e-06 1.86265e-05 5.63637e-05 3.1876e-05 
33 1 1.71987e-06 1.99e-05 5.98e-05 3.19e-05 
55 1 1.47881e-06 2.00863e-05 5.5866e-05 3.21101e-05 
17 1 1.71987e-06 2.3e-05 7.43e-05 3.23e-05 
50 1 1.68762e-06 2.78e-05 9.42e-05 3.22e-05 
40 1 1.74137e-06 2.64e-05 5.06e-05 3.61e-05 
43 1 1.54788e-06 2.31e-05 7.97e-05 4.76e-05 
56 1 1.58873e-06 1.70228e-05 6.89667e-05 2.14111e-05 
39 1 1.63388e-06 7.12e-05 4.56e-06 2.56e-06 
13 1 1.71987e-06 6.71e-05 9.45e-06 5.08e-06 
26 1 1.77362e-06 9.5e-05 4.29e-05 6.87e-06 
48 1 1.48339e-06 8.19e-05 2.01e-05 1.09e-05 
27 1 1.64463e-06 9.68e-05 8.29e-06 1.14e-05 
1 1 1.75212e-06 7.46e-05 3.94e-05 2.41e-05 
31 1 1.80586e-06 8.98e-05 4.84e-06 2.65e-05 
53 1 1.606e-06 7.68239e-05 4.91672e-05 2.71124e-05 
10 1 1.5673e-06 7.77647e-05 4.96271e-05 2.82734e-05 
22 1 1.64463e-06 6.54e-05 4.89e-05 3.14e-05 
11 1 1.85961e-06 7.25e-05 1.36e-05 3.22e-05 