 NUFEB Simulation

     100 atoms 
     2 atom types 
     4 nutrients 

  0.0e-4   1.00e-04  xlo xhi 
  0.0e-4   1.00e-04  ylo yhi 
  0.0e-4   1.00e-05  zlo zhi 

 Atoms 

     1 1 1.43e-06  370 2.40e-05 5.82e-05 7.65e-06 1.43e-06 
     2 1 1.45e-06  370 7.79e-05 6.79e-05 5.69e-06 1.45e-06 
     3 1 1.58e-06  370 4.06e-05 9.44e-05 1.94e-06 1.58e-06 
     4 1 1.63e-06  370 4.58e-05 4.33e-05 2.38e-06 1.63e-06 
     5 1 1.85e-06  370 4.41e-05 6.81e-05 8.11e-06 1.85e-06 
     6 1 1.78e-06  370 1.59e-05 4.42e-05 5.09e-06 1.78e-06 
     7 1 1.70e-06  370 2.46e-06 6.83e-05 2.95e-06 1.70e-06 
     8 1 1.42e-06  370 6.63e-05 9.85e-05 6.39e-06 1.42e-06 
     9 1 1.72e-06  370 4.45e-05 1.22e-05 5.97e-06 1.72e-06 
     10 1 1.77e-06  370 8.53e-05 2.24e-05 2.09e-06 1.77e-06 
     11 1 1.52e-06  370 3.59e-05 5.44e-05 3.38e-06 1.52e-06 
     12 1 1.72e-06  370 8.73e-05 1.49e-05 5.38e-06 1.72e-06 
     13 1 1.78e-06  370 6.10e-05 5.22e-05 6.90e-06 1.78e-06 
     14 1 1.48e-06  370 3.19e-05 1.51e-05 3.36e-06 1.48e-06 
     15 1 1.64e-06  370 8.20e-06 1.10e-05 4.12e-06 1.64e-06 
     16 1 1.57e-06  370 1.67e-06 6.26e-05 5.39e-06 1.57e-06 
     17 1 1.77e-06  370 1.30e-05 3.48e-05 4.27e-06 1.77e-06 
     18 1 1.48e-06  370 2.36e-05 3.54e-05 4.41e-06 1.48e-06 
     19 1 1.45e-06  370 7.22e-05 9.15e-05 4.81e-06 1.45e-06 
     20 1 1.58e-06  370 2.70e-05 8.35e-05 5.27e-06 1.58e-06 
     21 1 1.84e-06  370 6.14e-05 7.50e-05 3.02e-06 1.84e-06 
     22 1 1.78e-06  370 7.13e-06 9.53e-05 6.39e-06 1.78e-06 
     23 1 1.64e-06  370 3.57e-05 4.30e-05 5.31e-06 1.64e-06 
     24 1 1.43e-06  370 7.48e-05 6.18e-05 4.95e-06 1.43e-06 
     25 1 1.58e-06  370 8.18e-05 6.12e-05 2.14e-06 1.58e-06 
     26 1 1.44e-06  370 9.19e-05 6.23e-05 1.74e-06 1.44e-06 
     27 1 1.49e-06  370 8.81e-05 7.61e-05 2.87e-06 1.49e-06 
     28 1 1.75e-06  370 8.56e-05 6.48e-06 6.68e-06 1.75e-06 
     29 1 1.58e-06  370 5.53e-05 1.41e-05 1.83e-06 1.58e-06 
     30 1 1.87e-06  370 7.63e-05 7.04e-05 7.32e-06 1.87e-06 
     31 1 1.74e-06  370 7.77e-05 9.76e-05 5.60e-06 1.74e-06 
     32 1 1.61e-06  370 5.59e-05 7.47e-05 4.94e-06 1.61e-06 
     33 1 1.58e-06  370 5.44e-05 8.25e-05 2.90e-06 1.58e-06 
     34 1 1.70e-06  370 9.31e-05 3.60e-05 6.50e-06 1.70e-06 
     35 1 1.48e-06  370 4.34e-05 1.88e-05 5.81e-06 1.48e-06 
     36 1 1.46e-06  370 5.96e-05 1.81e-05 1.87e-06 1.46e-06 
     37 1 1.91e-06  370 7.71e-05 6.51e-05 4.71e-06 1.91e-06 
     38 1 1.58e-06  370 2.20e-05 3.41e-05 6.65e-06 1.58e-06 
     39 1 1.93e-06  370 3.74e-05 4.84e-05 2.41e-06 1.93e-06 
     40 1 1.77e-06  370 2.94e-06 3.42e-05 6.04e-06 1.77e-06 
     41 1 1.87e-06  370 9.23e-06 5.72e-05 3.21e-06 1.87e-06 
     42 1 1.89e-06  370 6.28e-05 7.74e-05 3.21e-06 1.89e-06 
     43 1 1.90e-06  370 4.23e-05 6.43e-05 7.15e-06 1.90e-06 
     44 1 1.41e-06  370 2.19e-05 4.34e-05 4.44e-06 1.41e-06 
     45 1 1.93e-06  370 7.74e-05 1.15e-05 3.70e-06 1.93e-06 
     46 1 1.77e-06  370 5.40e-05 3.47e-05 8.00e-06 1.77e-06 
     47 1 1.38e-06  370 4.05e-05 2.13e-05 6.91e-06 1.38e-06 
     48 1 1.41e-06  370 2.26e-05 6.98e-05 5.24e-06 1.41e-06 
     49 1 1.56e-06  370 8.00e-05 3.54e-05 8.28e-06 1.56e-06 
     50 1 1.78e-06  370 2.79e-05 4.52e-06 6.95e-06 1.78e-06 
     51 2 1.28e-06  230 1.28e-05 4.75e-05 5.70e-06 1.28e-06 
     52 2 9.59e-07  230 1.53e-05 3.62e-06 4.67e-06 9.59e-07 
     53 2 1.27e-06  230 5.47e-05 1.92e-05 2.93e-06 1.27e-06 
     54 2 9.78e-07  230 8.60e-05 5.78e-06 3.28e-06 9.78e-07 
     55 2 1.32e-06  230 8.23e-05 9.07e-05 7.85e-06 1.32e-06 
     56 2 1.16e-06  230 2.56e-06 2.07e-06 7.23e-06 1.16e-06 
     57 2 9.44e-07  230 9.84e-05 4.66e-05 6.89e-06 9.44e-07 
     58 2 1.38e-06  230 2.67e-05 4.54e-05 4.64e-06 1.38e-06 
     59 2 1.20e-06  230 4.02e-05 7.43e-05 4.58e-06 1.20e-06 
     60 2 1.17e-06  230 9.22e-05 9.76e-06 2.18e-06 1.17e-06 
     61 2 9.31e-07  230 8.78e-05 7.38e-05 4.81e-06 9.31e-07 
     62 2 1.05e-06  230 8.97e-05 8.47e-05 1.72e-06 1.05e-06 
     63 2 1.13e-06  230 7.64e-05 6.99e-05 8.26e-06 1.13e-06 
     64 2 9.83e-07  230 2.79e-05 6.87e-05 1.29e-06 9.83e-07 
     65 2 1.38e-06  230 1.49e-05 8.77e-05 7.72e-06 1.38e-06 
     66 2 1.01e-06  230 1.32e-05 4.86e-05 7.60e-06 1.01e-06 
     67 2 1.16e-06  230 5.65e-05 9.29e-05 8.64e-06 1.16e-06 
     68 2 1.15e-06  230 2.25e-05 7.99e-05 8.50e-06 1.15e-06 
     69 2 1.20e-06  230 4.64e-05 4.20e-05 2.51e-06 1.20e-06 
     70 2 1.09e-06  230 2.06e-05 8.04e-05 7.26e-06 1.09e-06 
     71 2 9.95e-07  230 2.26e-05 9.50e-05 6.46e-06 9.95e-07 
     72 2 1.03e-06  230 5.34e-05 5.44e-05 2.27e-06 1.03e-06 
     73 2 9.74e-07  230 2.44e-05 3.63e-05 1.55e-06 9.74e-07 
     74 2 1.02e-06  230 7.40e-05 8.69e-05 7.88e-06 1.02e-06 
     75 2 9.34e-07  230 6.26e-05 6.97e-05 1.60e-06 9.34e-07 
     76 2 1.09e-06  230 5.24e-05 3.96e-05 5.54e-06 1.09e-06 
     77 2 1.19e-06  230 1.59e-05 6.94e-06 7.79e-06 1.19e-06 
     78 2 1.29e-06  230 9.51e-06 1.80e-05 7.31e-06 1.29e-06 
     79 2 1.19e-06  230 3.20e-05 8.57e-05 8.65e-06 1.19e-06 
     80 2 1.15e-06  230 1.51e-05 9.76e-05 4.14e-06 1.15e-06 
     81 2 1.05e-06  230 1.42e-06 6.36e-05 3.55e-06 1.05e-06 
     82 2 1.12e-06  230 9.41e-05 3.36e-05 8.40e-06 1.12e-06 
     83 2 1.30e-06  230 3.85e-05 9.33e-05 6.19e-06 1.30e-06 
     84 2 9.49e-07  230 3.40e-05 3.23e-05 8.21e-06 9.49e-07 
     85 2 9.00e-07  230 3.57e-05 1.11e-05 1.03e-06 9.00e-07 
     86 2 1.02e-06  230 5.00e-05 2.28e-05 4.21e-06 1.02e-06 
     87 2 1.01e-06  230 3.18e-05 1.75e-05 4.73e-06 1.01e-06 
     88 2 1.28e-06  230 3.83e-05 1.92e-05 7.21e-06 1.28e-06 
     89 2 1.38e-06  230 7.96e-05 7.53e-05 4.62e-06 1.38e-06 
     90 2 1.18e-06  230 3.90e-05 4.79e-05 3.93e-06 1.18e-06 
     91 2 1.23e-06  230 9.17e-05 5.35e-05 4.04e-06 1.23e-06 
     92 2 1.33e-06  230 1.47e-05 3.89e-05 6.95e-06 1.33e-06 
     93 2 9.35e-07  230 5.21e-05 4.87e-05 2.44e-06 9.35e-07 
     94 2 9.02e-07  230 8.82e-05 2.53e-05 1.01e-06 9.02e-07 
     95 2 1.37e-06  230 4.10e-05 3.22e-05 3.63e-06 1.37e-06 
     96 2 1.04e-06  230 3.21e-05 7.62e-05 5.64e-06 1.04e-06 
     97 2 1.03e-06  230 1.84e-05 4.69e-06 5.22e-06 1.03e-06 
     98 2 1.05e-06  230 3.65e-05 3.61e-05 6.11e-06 1.05e-06 
     99 2 1.20e-06  230 1.24e-06 2.20e-05 1.57e-06 1.20e-06 
     100 2 1.06e-06  230 9.02e-05 6.94e-05 4.42e-06 1.06e-06 

 Nutrients 

     1 sub g nn nn nn 1.00e-01 1.00e-01 
     2 o2 l nn nn nd 9.00e-03 9.00e-03 
     3 suc l nn nn nn 3.42e-20 3.42e-20 
     4 co2 l nn nn nd 2.99e-02 2.99e-02 

 Type Name 

     1 cyano  
     2 ecw  

 Diffusion Coeffs 

     sub 0 
     o2 2.3e-09 
     suc 5.2e-10 
     co2 1.9e-09 

 Growth Rate 

     cyano 1.67e-05 
     ecw 6e-05 

 Ks 

     cyano 0.00035 0.0002 0.01 0.000138 
     ecw 0 0.001 3.6 0.05 

 Yield 

     cyano 0.55 
     ecw 0.43 

 Maintenance 

     cyano 0 
     ecw 9.5e-07 

 Decay 

     cyano 0 
     ecw 0 



