LAMMPS (20 Nov 2019)
Reading data file ...
  orthogonal box = (0 0 0) to (0.0001 0.0001 1e-05)
  8 by 4 by 1 MPI processor grid
  reading atoms ...
  100 atoms
  4 nutrients
Lattice spacing in x,y,z = 100 100 100
50 atoms in group CYANO
50 atoms in group ECW
Model is defined as a closed system. 
Neighbor list info ...
  update every 1 steps, delay 0 steps, check yes
  max neighbors/atom: 5000, page size: 100000
  master list distance cutoff = 2.43e-06
  ghost atom cutoff = 2.43e-06
  binsize = 1.215e-06, bins = 83 83 9
  1 neighbor lists, perpetual/occasional/extra = 1 0 0
  (1) pair gran/hooke/history, perpetual
      attributes: half, newton off, size, history
      pair build: half/size/bin/newtoff
      stencil: half/bin/3d/newtoff
      bin: standard
Setting up Verlet run ...
  Unit style    : lj
  Current step  : 0
  Time step     : 10
Per MPI rank memory allocation (min/avg/max) = 5.794 | 10.94 | 12.11 Mbytes
Step CPU Atoms c_myNtypes[1] c_myNtypes[2] c_myMass[1] c_myMass[2] c_myCon[1] c_myCon[2] c_myCon[3] c_myCon[4] 
       0            0      100           50           50 4.4618475e-14 8.8378655e-15          0.1        0.009     3.42e-20       0.0299 
number of iterations: 319189 
     100    15.375722      132           50           82 4.5209769e-14 8.8350121e-15          0.1 0.0090007742  0.035828295   0.02989871 
number of iterations: 3910 
     200    15.713148      144           50           94 4.5808899e-14 8.8366548e-15          0.1 0.0090007842  0.070919945  0.029898693 
number of iterations: 2445 
     300    15.971724      144           50           94 4.6415968e-14 8.842755e-15          0.1 0.0090007944   0.10636982  0.029898676 
number of iterations: 1924 
     400    16.196335      144           50           94 4.7031083e-14 8.8532964e-15          0.1 0.0090008047   0.14218749  0.029898659 
number of iterations: 1649 
     500    16.401392      146           52           94 4.7654349e-14 8.8682589e-15          0.1 0.0090008124   0.17838032  0.029898646 
number of iterations: 1480 
     600    16.620877      146           52           94 4.8285874e-14 8.8876236e-15          0.1 0.0090008229   0.21495534  0.029898628 
number of iterations: 1373 
     700     16.82665      147           53           94 4.8925769e-14 8.9113791e-15          0.1 0.0090008336   0.25191931   0.02989861 
number of iterations: 1376 
     800    17.022109      147           53           94 4.9574144e-14 8.9395204e-15          0.1 0.0090008444    0.2892789  0.029898592 
number of iterations: 1403 
     900    17.215028      148           54           94 5.0231111e-14 8.9720519e-15          0.1 0.0090008554   0.32704065  0.029898573 
number of iterations: 1382 
    1000    17.443291      149           55           94 5.0896785e-14 9.0089784e-15          0.1 0.0090008665   0.36521106  0.029898554 
number of iterations: 1385 
    1100    17.670156      149           55           94 5.157128e-14 9.0503141e-15          0.1 0.0090008778   0.40379656  0.029898535 
number of iterations: 1388 
    1200    17.875175      151           57           94 5.2254714e-14 9.0960759e-15          0.1 0.0090008892   0.44280352  0.029898516 
number of iterations: 1390 
    1300    18.065799      153           57           96 5.2947204e-14 9.146294e-15          0.1 0.0090009007   0.48223822  0.029898496 
number of iterations: 1393 
    1400    18.266523      154           57           97 5.3648872e-14 9.2010015e-15          0.1 0.0090009124   0.52210691  0.029898477 
number of iterations: 1523 
    1500    18.455583      155           58           97 5.4359838e-14 9.2602406e-15          0.1 0.0090009292   0.56241578  0.029898448 
number of iterations: 1411 
    1600    18.659132      156           59           97 5.5080227e-14 9.3240576e-15          0.1 0.0090009413   0.60317097  0.029898428 
number of iterations: 1402 
    1700    18.872315      156           59           97 5.5810161e-14   9.3925e-15          0.1 0.0090009536    0.6443786  0.029898407 
number of iterations: 1405 
    1800    19.058235      160           59          101 5.654977e-14 9.4656286e-15          0.1  0.009000966   0.68604469  0.029898386 
number of iterations: 1408 
    1900    19.244895      161           59          102 5.7299179e-14 9.5435019e-15          0.1 0.0090009786   0.72817526  0.029898365 
number of iterations: 1410 
    2000    19.466012      162           59          103 5.805852e-14 9.6261918e-15          0.1 0.0090009913   0.77077627  0.029898344 
number of iterations: 1413 
    2100    19.673149      164           59          105 5.8827924e-14 9.7137745e-15          0.1 0.0090010043   0.81385362  0.029898322 
number of iterations: 1416 
    2200    19.862442      166           59          107 5.9607524e-14 9.8063325e-15          0.1 0.0090010173   0.85741319    0.0298983 
number of iterations: 1430 
    2300    20.027997      172           63          109 6.0397456e-14 9.9039517e-15          0.1 0.0090010306   0.90146089  0.029898277 
number of iterations: 1420 
    2400    20.200285      172           63          109 6.1197856e-14 1.000673e-14          0.1  0.009001044   0.94600239  0.029898254 
number of iterations: 1673 
    2500    20.403454      176           67          109 6.2008863e-14 1.0114767e-14          0.1 0.0090010604   0.99104327  0.029898227 
number of iterations: 1431 
    2600     20.60419      177           67          110 6.2830617e-14 1.0228174e-14          0.1 0.0090010742    1.0365893  0.029898204 
number of iterations: 1434 
    2700     20.80372      179           68          111 6.3663262e-14 1.034707e-14          0.1 0.0090010882     1.082646   0.02989818 
number of iterations: 1437 
    2800    21.000432      179           68          111 6.4506941e-14 1.0471573e-14          0.1 0.0090011024    1.1292191  0.029898156 
number of iterations: 1481 
    2900    21.180338      180           69          111  6.53618e-14 1.0601819e-14          0.1 0.0090011168     1.176314  0.029898132 
number of iterations: 1442 
    3000    21.399795      182           69          113 6.6227989e-14 1.0737945e-14          0.1 0.0090011313    1.2239362  0.029898107 
number of iterations: 1437 
    3100    21.586899      186           71          115 6.7105656e-14 1.0880085e-14          0.1 0.0090011421     1.272091  0.029898089 
number of iterations: 1448 
    3200    21.772153      187           71          116 6.7994954e-14 1.1028391e-14          0.1  0.009001157    1.3207839  0.029898064 
number of iterations: 1451 
    3300    21.945941      187           71          116 6.8896038e-14 1.118303e-14          0.1 0.0090011721      1.37002  0.029898038 
number of iterations: 1461 
    3400    22.120343      191           73          118 6.9809063e-14 1.1344173e-14          0.1 0.0090011873    1.4198046  0.029898012 
number of iterations: 1456 
    3500    22.290654      192           73          119 7.0734187e-14 1.1511995e-14          0.1 0.0090012028    1.4701427  0.029897986 
number of iterations: 1459 
    3600    22.483804      195           73          122 7.1671571e-14 1.1686682e-14          0.1 0.0090012185    1.5210395  0.029897959 
number of iterations: 1465 
    3700     22.64393      199           73          126 7.2621378e-14 1.1868436e-14          0.1 0.0090012343    1.5724998  0.029897933 
number of iterations: 1464 
    3800    22.843342      200           73          127 7.3583772e-14 1.2057456e-14          0.1 0.0090012504    1.6245285  0.029897905 
number of iterations: 1467 
    3900    23.017533      204           73          131 7.4558919e-14 1.2253954e-14          0.1 0.0090012667    1.6771303  0.029897878 
number of iterations: 1470 
    4000    23.202449      206           73          133 7.554699e-14 1.2458154e-14          0.1 0.0090012831    1.7303099   0.02989785 
number of iterations: 1473 
    4100    23.368934      208           73          135 7.6548154e-14 1.2670285e-14          0.1 0.0090012998    1.7840719  0.029897822 
number of iterations: 1672 
    4200       23.564      211           75          136 7.7562586e-14 1.2890602e-14          0.1 0.0090013197    1.8384203  0.029897788 
number of iterations: 1479 
    4300    23.760779      214           75          139 7.8590461e-14 1.3119353e-14          0.1 0.0090013368    1.8933598  0.029897759 
number of iterations: 1470 
    4400    23.937558      217           76          141 7.9631959e-14 1.3356802e-14          0.1 0.0090013542    1.9488945  0.029897729 
number of iterations: 1484 
    4500    24.111653      218           76          142 8.0687258e-14 1.3603228e-14          0.1 0.0090013718    2.0050284    0.0298977 
number of iterations: 1483 
    4600    24.288194      221           77          144 8.1756542e-14 1.3858925e-14          0.1 0.0090013896    2.0617655  0.029897669 
number of iterations: 1546 
    4700    24.471345      225           77          148 8.2839996e-14 1.4124189e-14          0.1 0.0090014102    2.1191095  0.029897634 
number of iterations: 1493 
    4800     24.65898      230           77          153 8.3937809e-14 1.4399342e-14          0.1 0.0090014284    2.1770639  0.029897603 
number of iterations: 1495 
    4900    24.859407      234           77          157 8.505017e-14 1.4684713e-14          0.1  0.009001447    2.2356321  0.029897572 
number of iterations: 1497 
    5000    25.070494      238           77          161 8.6177272e-14 1.4980646e-14          0.1 0.0090014657    2.2948174   0.02989754 
number of iterations: 1564 
    5100      25.2684      246           83          163 8.7319311e-14 1.5287489e-14          0.1 0.0090014836    2.3546226  0.029897509 
number of iterations: 1529 
    5200    25.471416      248           84          164 8.8476485e-14 1.5605621e-14          0.1 0.0090015028    2.4150508  0.029897477 
number of iterations: 1506 
    5300    25.689168      250           84          166 8.9648993e-14 1.5935433e-14          0.1 0.0090015223    2.4761045  0.029897443 
number of iterations: 1618 
    5400    25.890308      254           87          167 9.083704e-14 1.6277332e-14          0.1 0.0090015467    2.5377862  0.029897402 
number of iterations: 1792 
    5500    26.100982      259           87          172 9.2040831e-14 1.6631734e-14          0.1 0.0090015735    2.6000976  0.029897357 
number of iterations: 1516 
    5600    26.312476      264           88          176 9.3260575e-14 1.6999087e-14          0.1 0.0090015939    2.6630409  0.029897322 
number of iterations: 1558 
    5700    26.500273      270           89          181 9.4496483e-14 1.7379838e-14          0.1  0.009001617    2.7266176  0.029897283 
number of iterations: 1536 
    5800    26.691464      274           91          183 9.574877e-14 1.7774487e-14          0.1 0.0090016379    2.7908289  0.029897247 
number of iterations: 1528 
    5900    26.878956      282           93          189 9.7017652e-14 1.8183514e-14          0.1  0.009001659    2.8556759  0.029897211 
number of iterations: 1558 
    6000     27.09242      288           93          195 9.830335e-14 1.8607416e-14          0.1 0.0090016805    2.9211593  0.029897174 
number of iterations: 1595 
    6100    27.287495      298           96          202 9.9606086e-14 1.9046762e-14          0.1 0.0090017046    2.9872793  0.029897133 
number of iterations: 1526 
    6200    27.485649      301           96          205 1.0092609e-13 1.9502109e-14          0.1 0.0090017266    3.0540364  0.029897096 
number of iterations: 1534 
    6300    27.684198      307           96          211 1.0226358e-13 1.9974042e-14          0.1  0.009001749    3.1214298  0.029897057 
number of iterations: 1539 
    6400    27.874844      313           98          215 1.036188e-13 2.0463176e-14          0.1 0.0090017715     3.189459  0.029897019 
number of iterations: 1514 
    6500    28.100843      321          100          221 1.0499197e-13 2.0970147e-14          0.1 0.0090017895    3.2581226  0.029896988 
number of iterations: 1501 
    6600    28.305843      330          104          226 1.0638335e-13 2.1495609e-14          0.1 0.0090018053    3.3274189   0.02989696 
number of iterations: 1543 
    6700    28.487828      336          104          232 1.0779316e-13 2.2040254e-14          0.1 0.0090018284    3.3973459   0.02989692 
number of iterations: 1532 
    6800    28.665788      341          106          235 1.0922166e-13 2.2604802e-14          0.1 0.0090018519     3.467901   0.02989688 
number of iterations: 1578 
    6900    28.861923      346          108          238 1.1066909e-13 2.3189994e-14          0.1 0.0090018709    3.5390805  0.029896847 
number of iterations: 1730 
    7000    29.088409      358          111          247 1.121357e-13 2.3796624e-14          0.1  0.009001896    3.6108815  0.029896804 
number of iterations: 1595 
    7100    29.272206      366          111          255 1.1362174e-13 2.442548e-14          0.1 0.0090019133    3.6832999  0.029896774 
number of iterations: 1554 
    7200    29.475796      373          113          260 1.1512748e-13 2.5077397e-14          0.1 0.0090019333    3.7563305  0.029896739 
number of iterations: 1606 
    7300    29.645857      386          119          267 1.1665317e-13 2.5753263e-14          0.1 0.0090019497    3.8299678   0.02989671 
number of iterations: 1560 
    7400    29.835647      395          121          274 1.1819908e-13 2.6453992e-14          0.1 0.0090019747    3.9042058  0.029896667 
number of iterations: 1725 
    7500    30.066366      406          123          283 1.1976548e-13 2.7180524e-14          0.1 0.0090020086     3.979038  0.029896609 
number of iterations: 1564 
    7600    30.240285      417          123          294 1.2135264e-13 2.793386e-14          0.1 0.0090020341     4.054457  0.029896565 
number of iterations: 1622 
    7700     30.43953      427          126          301 1.2296083e-13 2.8715039e-14          0.1 0.0090020573    4.1304548  0.029896524 
number of iterations: 1541 
    7800     30.65051      440          128          312 1.2459033e-13 2.9525123e-14          0.1 0.0090020805    4.2070222  0.029896484 
number of iterations: 1605 
    7900     30.83733      448          128          320 1.2624143e-13 3.0365203e-14          0.1 0.0090021069    4.2841492  0.029896438 
number of iterations: 1572 
    8000    31.041438      456          134          322 1.279144e-13 3.1236451e-14          0.1 0.0090021336    4.3618253  0.029896391 
number of iterations: 1588 
    8100    31.219548      468          137          331 1.2960955e-13 3.2140077e-14          0.1 0.0090021607    4.4400395  0.029896344 
number of iterations: 1581 
    8200    31.409444      478          137          341 1.3132716e-13 3.3077347e-14          0.1  0.009002188    4.5187789  0.029896296 
number of iterations: 1644 
    8300    31.600254      498          138          360 1.3306754e-13 3.4049571e-14          0.1 0.0090022194    4.5980307  0.029896242 
number of iterations: 1587 
    8400    31.779587      505          138          367 1.3483097e-13 3.5058117e-14          0.1 0.0090022474    4.6777796  0.029896193 
number of iterations: 1733 
    8500    31.991142      515          139          376 1.3661778e-13 3.610441e-14          0.1 0.0090022805      4.75801  0.029896136 
number of iterations: 1591 
    8600    32.173371      533          139          394 1.3842827e-13 3.7189925e-14          0.1  0.009002309    4.8387052  0.029896085 
number of iterations: 1580 
    8700    32.354739      546          142          404 1.4026275e-13 3.8316197e-14          0.1 0.0090023367    4.9198475  0.029896037 
number of iterations: 1614 
    8800    32.536333      557          144          413 1.4212154e-13 3.9484806e-14          0.1 0.0090023647    5.0014177  0.029895987 
number of iterations: 1604 
    8900    32.722004      563          144          419 1.4400496e-13 4.0697455e-14          0.1 0.0090023943    5.0833948  0.029895935 
number of iterations: 1595 
    9000    32.921536      578          146          432 1.4591334e-13 4.1955852e-14          0.1 0.0090024133    5.1657569  0.029895901 
number of iterations: 1592 
    9100    33.089458      597          149          448 1.4784701e-13 4.3261837e-14          0.1 0.0090024402    5.2484815  0.029895853 
number of iterations: 1677 
    9200    33.266552      617          149          468 1.4980631e-13 4.4617256e-14          0.1 0.0090024782    5.3315432  0.029895786 
number of iterations: 1696 
    9300    33.463937      635          152          483 1.5179158e-13 4.6024089e-14          0.1 0.0090025133    5.4149159  0.029895725 
number of iterations: 1617 
    9400    33.680501      652          153          499 1.5380315e-13 4.7484318e-14          0.1 0.0090025444    5.4985716  0.029895669 
number of iterations: 1737 
    9500      33.8928      664          154          510 1.5584138e-13 4.9000096e-14          0.1 0.0090025825    5.5824807  0.029895602 
number of iterations: 1698 
    9600    34.082316      679          155          524 1.5790662e-13 5.0573618e-14          0.1 0.0090026179    5.6666123   0.02989554 
number of iterations: 1631 
    9700    34.308262      696          157          539 1.5999923e-13 5.2207186e-14          0.1 0.0090026486    5.7509328  0.029895485 
number of iterations: 1654 
    9800    34.512485      729          160          569 1.6211957e-13 5.3903167e-14          0.1 0.0090026841    5.8354069  0.029895422 
number of iterations: 1738 
    9900    34.707383      744          161          583 1.6426801e-13 5.5664046e-14          0.1 0.0090027206    5.9199978  0.029895357 
number of iterations: 1633 
   10000    34.924495      760          164          596 1.6644492e-13 5.7492388e-14          0.1 0.0090027539    6.0046659  0.029895297 
number of iterations: 1666 
   10100    35.189413      781          167          614 1.6865068e-13 5.9390868e-14          0.1 0.0090027868    6.0893703  0.029895238 
number of iterations: 1636 
   10200    35.384345      805          167          638 1.7088567e-13 6.1362256e-14          0.1  0.009002821    6.1740673  0.029895176 
number of iterations: 1639 
   10300    35.596417      829          170          659 1.7315028e-13 6.3409449e-14          0.1 0.0090028492    6.2587109  0.029895125 
number of iterations: 1610 
   10400     35.81519      852          170          682 1.754449e-13  6.55355e-14          0.1 0.0090028765     6.343253  0.029895074 
number of iterations: 1654 
   10500     35.98725      875          172          703 1.7776993e-13 6.7743572e-14          0.1 0.0090029128    6.4276426  0.029895008 
number of iterations: 1622 
   10600    36.188153      899          173          726 1.8012578e-13 7.0036851e-14          0.1 0.0090029468    6.5118262  0.029894946 
number of iterations: 1643 
   10700    36.391641      925          177          748 1.8251284e-13 7.2418748e-14          0.1 0.0090029782    6.5957475  0.029894888 
number of iterations: 1623 
   10800    36.587461      947          177          770 1.8493153e-13 7.489276e-14          0.1 0.0090030077    6.6793474  0.029894833 
number of iterations: 1657 
   10900    36.814055      984          182          802 1.8738228e-13 7.7462522e-14          0.1 0.0090030444    6.7625641  0.029894766 
number of iterations: 1654 
   11000    37.006423     1014          184          830 1.8986551e-13 8.0131861e-14          0.1 0.0090030808    6.8453323  0.029894699 
number of iterations: 1635 
   11100    37.200047     1049          186          863 1.9238164e-13 8.2904706e-14          0.1 0.0090031123    6.9275838  0.029894639 
number of iterations: 1691 
   11200    37.460845     1078          188          890 1.9493112e-13 8.5785095e-14          0.1 0.0090031553    7.0092471  0.029894561 
number of iterations: 1658 
   11300    37.759294     1102          191          911 1.9751438e-13 8.8777289e-14          0.1  0.009003189    7.0902468  0.029894498 
number of iterations: 1718 
   11400    37.956003     1145          193          952 2.0013188e-13 9.188579e-14          0.1 0.0090032332    7.1705053  0.029894417 
number of iterations: 1656 
   11500    38.159839     1185          197          988 2.0278407e-13 9.5115089e-14          0.1 0.0090032655    7.2499402  0.029894355 
number of iterations: 1651 
   11600    38.345704     1220          201         1019 2.054714e-13 9.8469904e-14          0.1 0.0090033009    7.3284659  0.029894289 
number of iterations: 1671 
   11700    38.546616     1265          202         1063 2.0819434e-13 1.0195519e-13          0.1 0.0090033396    7.4059923  0.029894216 
number of iterations: 1700 
   11800    38.737853     1308          205         1103 2.1095337e-13 1.0557601e-13          0.1 0.0090033768    7.4824262  0.029894145 
number of iterations: 1674 
   11900    38.995469     1350          207         1143 2.1374897e-13 1.0933767e-13          0.1 0.0090034137    7.5576693  0.029894074 
number of iterations: 1760 
   12000    39.207115     1398          211         1187 2.1658161e-13 1.1324563e-13          0.1 0.0090034516    7.6316195  0.029894002 
number of iterations: 1666 
   12100     39.40131     1438          213         1225 2.1945179e-13 1.1730558e-13          0.1 0.0090034917    7.7041705  0.029893926 
number of iterations: 1679 
   12200    39.609725     1479          219         1260 2.2236001e-13 1.215234e-13          0.1 0.0090035268    7.7752115  0.029893857 
number of iterations: 1737 
   12300    39.802386     1528          223         1305 2.2530676e-13 1.2590517e-13          0.1  0.009003567    7.8446266   0.02989378 
number of iterations: 1754 
   12400    40.088843     1575          226         1349 2.2829257e-13 1.3045713e-13          0.1 0.0090036042    7.9122954  0.029893707 
number of iterations: 1697 
   12500    40.296932     1625          227         1398 2.3131794e-13 1.3518586e-13          0.1 0.0090036447    7.9780927  0.029893628 
number of iterations: 1769 
   12600    40.493376     1678          230         1448 2.3438341e-13 1.400981e-13          0.1 0.0090036904    8.0418885   0.02989354 
number of iterations: 1674 
   12700    40.725194     1731          232         1499 2.3748951e-13 1.4520075e-13          0.1 0.0090037219    8.1035475  0.029893476 
number of iterations: 1634 
   12800    40.955729     1791          239         1552 2.4063676e-13 1.5050104e-13          0.1 0.0090037459    8.1629295  0.029893423 
number of iterations: 1697 
   12900    41.159507     1855          243         1612 2.4382572e-13 1.5600623e-13          0.1 0.0090037912    8.2198891  0.029893335 
number of iterations: 1713 
   13000    41.369935     1908          249         1659 2.4705695e-13 1.6157983e-13          0.1 0.0090038225    8.2743959  0.029893269 
number of iterations: 1701 
   13100    41.594702     1985          251         1734 2.5033099e-13 1.6751282e-13          0.1 0.0090038628    8.3261772  0.029893188 
number of iterations: 1717 
   13200    41.796391     2049          252         1797 2.5364842e-13 1.7367427e-13          0.1 0.0090039078    8.3750716  0.029893098 
number of iterations: 1731 
   13300    42.015133     2113          257         1856 2.5700982e-13 1.8007245e-13          0.1 0.0090039554    8.4209123  0.029893004 
number of iterations: 1886 
   13400    42.236384     2186          263         1923 2.6041576e-13 1.8671599e-13          0.1 0.0090040142    8.4635264   0.02989289 
number of iterations: 1730 
   13500    42.481589     2287          268         2019 2.6386684e-13 1.9361368e-13          0.1 0.0090040581    8.5027358  0.029892801 
number of iterations: 1772 
   13600    42.732796     2368          270         2098 2.6736365e-13 2.0065318e-13          0.1 0.0090041041    8.5384594  0.029892708 
number of iterations: 1718 
   13700    42.955492     2444          275         2169 2.709068e-13 2.0808221e-13          0.1  0.009004145    8.5704099  0.029892623 
number of iterations: 1727 
   13800      43.1641     2524          279         2245 2.744969e-13 2.1569412e-13          0.1 0.0090041799    8.5984772  0.029892547 
number of iterations: 1722 
   13900    43.380783     2606          279         2327 2.7813459e-13 2.2369257e-13          0.1 0.0090042225    8.6223816  0.029892457 
number of iterations: 1796 
   14000    43.584529     2690          281         2409 2.8182048e-13 2.3199214e-13          0.1 0.0090042814    8.6419188  0.029892339 
number of iterations: 1749 
   14100    43.815325     2775          284         2491 2.8555521e-13 2.406029e-13          0.1 0.0090043281    8.6568807  0.029892241 
number of iterations: 1715 
   14200     44.01732     2869          284         2585 2.8933944e-13 2.4953515e-13          0.1  0.009004371    8.6670548   0.02989215 
number of iterations: 1735 
   14300     44.26372     2970          289         2681 2.9317382e-13 2.5879936e-13          0.1 0.0090044166    8.6722246  0.029892052 
number of iterations: 1743 
   14400    44.496537     3073          293         2780 2.9705901e-13 2.6840594e-13          0.1 0.0090044631    8.6721692  0.029891953 
number of iterations: 1858 
   14500    44.750535     3175          295         2880 3.0099569e-13 2.7836561e-13          0.1   0.00900451    8.6666652  0.029891852 
number of iterations: 1786 
   14600    45.044611     3298          300         2998 3.0498453e-13 2.8868926e-13          0.1 0.0090045485    8.6554865  0.029891764 
number of iterations: 1858 
   14700    45.288543     3402          303         3099 3.0902624e-13 2.9938716e-13          0.1 0.0090046044     8.638405  0.029891646 
number of iterations: 1751 
   14800    45.499797     3515          309         3206 3.1312151e-13 3.1047011e-13          0.1 0.0090046464    8.6151924  0.029891551 
number of iterations: 1714 
   14900    45.735672     3633          313         3320 3.1727105e-13 3.2180703e-13          0.1   0.00900468    8.5857397   0.02989147 
number of iterations: 1748 
   15000    45.945297     3753          317         3436 3.2147558e-13 3.3335389e-13          0.1 0.0090047172     8.549985  0.029891382 
number of iterations: 1817 
   15100    46.181831     3890          322         3568 3.2573583e-13 3.4563938e-13          0.1 0.0090047795    8.5074268  0.029891251 
number of iterations: 1774 
   15200    46.432288     4027          326         3701 3.3005254e-13 3.5808055e-13          0.1 0.0090048296    8.4580728  0.029891141 
number of iterations: 1782 
   15300    46.677221     4163          331         3832 3.3442645e-13 3.7097892e-13          0.1 0.0090048835    8.4016854  0.029891024 
number of iterations: 1784 
   15400    46.911003     4327          336         3991 3.3885833e-13 3.8444671e-13          0.1 0.0090049255    8.3379478  0.029890924 
number of iterations: 1834 
   15500    47.170092     4489          341         4148 3.4334894e-13 3.9847725e-13          0.1 0.0090049707    8.2665669  0.029890819 
number of iterations: 1843 
   15600    47.426072     4648          345         4303 3.4789906e-13 4.1297168e-13          0.1 0.0090050181    8.1873517  0.029890708 
number of iterations: 1797 
   15700    47.695137     4785          350         4435 3.5250948e-13 4.2765521e-13          0.1 0.0090050705    8.1003628   0.02989059 
number of iterations: 1786 
   15800    47.928006     4964          354         4610 3.5718099e-13 4.4309142e-13          0.1 0.0090051155    8.0052079  0.029890484 
number of iterations: 1775 
   15900    48.184686     5139          358         4781 3.6191442e-13 4.5892858e-13          0.1 0.0090051639    7.9018157  0.029890371 
number of iterations: 1797 
   16000    48.422203     5313          360         4953 3.6671057e-13 4.7533732e-13          0.1 0.0090052119    7.7899997  0.029890258 
number of iterations: 1771 
   16100    48.674522     5483          361         5122 3.7157028e-13 4.9198233e-13          0.1  0.009005261    7.6698818  0.029890144 
number of iterations: 1796 
   16200    48.939504     5657          367         5290 3.7649439e-13 5.0927523e-13          0.1 0.0090053144    7.5412735  0.029890022 
number of iterations: 1753 
   16300    49.215173     5856          373         5483 3.8148375e-13 5.2715867e-13          0.1 0.0090053557    7.4040729  0.029889919 
number of iterations: 1784 
   16400    49.477532     6033          377         5656 3.8653924e-13 5.4542717e-13          0.1 0.0090054039     7.258389  0.029889805 
number of iterations: 1824 
   16500    49.740082     6221          383         5838 3.9166172e-13 5.6416898e-13          0.1 0.0090054662    7.1042994  0.029889667 
number of iterations: 1800 
   16600    50.174953     6424          388         6036 3.9685209e-13 5.8344122e-13          0.1 0.0090055203    6.9418846  0.029889544 
number of iterations: 1837 
   16700    50.468544     6644          391         6253 4.0211124e-13 6.0317774e-13          0.1 0.0090055861    6.7713282  0.029889401 
number of iterations: 1810 
   16800    50.754269     6835          393         6442 4.0744008e-13 6.2337041e-13          0.1 0.0090056473    6.5928773  0.029889266 
number of iterations: 1780 
   16900    51.006504     7068          401         6667 4.1283954e-13 6.4411913e-13          0.1 0.0090056933    6.4067639  0.029889156 
number of iterations: 1852 
   17000    51.285459     7294          404         6890 4.1831056e-13 6.6499798e-13          0.1 0.0090057628    6.2136185  0.029889009 
number of iterations: 1844 
   17100    51.549844     7537          412         7125 4.2385408e-13 6.8648146e-13          0.1 0.0090058346    6.0137657  0.029888859 
number of iterations: 1816 
   17200    51.843594     7785          418         7367 4.2947106e-13 7.0809761e-13          0.1 0.0090059041    5.8079711  0.029888715 
number of iterations: 1811 
   17300    52.125723     8036          420         7616 4.3516248e-13 7.2997974e-13          0.1 0.0090059759    5.5969641  0.029888569 
number of iterations: 1798 
   17400    52.432651     8279          426         7853 4.4092932e-13 7.5223573e-13          0.1 0.0090060391    5.3814692  0.029888439 
number of iterations: 1927 
   17500    52.724918     8534          431         8103 4.4677259e-13 7.7432628e-13          0.1 0.0090061357    5.1626857  0.029888256 
number of iterations: 1804 
   17600     53.01241     8787          443         8344 4.5269329e-13 7.9704695e-13          0.1 0.0090062055    4.9412932  0.029888119 
number of iterations: 1893 
   17700    53.317957     9051          454         8597 4.5869245e-13 8.1995782e-13          0.1 0.0090062992    4.7183785  0.029887945 
number of iterations: 1886 
   17800    53.613879     9307          455         8852 4.6477112e-13 8.4334496e-13          0.1 0.0090063952    4.4949002  0.029887771 
number of iterations: 1842 
   17900    53.912347     9559          462         9097 4.7093033e-13 8.6657497e-13          0.1 0.0090064802     4.272328  0.029887617 
number of iterations: 1892 
   18000    54.229519     9799          470         9329 4.7717118e-13 8.8946846e-13          0.1 0.0090065862    4.0522752  0.029887433 
number of iterations: 1863 
   18100    54.558736    10026          477         9549 4.8349472e-13 9.1173489e-13          0.1 0.0090066827    3.8365311  0.029887268 
number of iterations: 1879 
   18200    54.849371    10301          481         9820 4.8904455e-13 9.3488682e-13          0.1  0.009006781    3.6252097  0.029887104 
number of iterations: 1883 
   18300    55.197911    10569          491        10078 4.9552544e-13 9.5801757e-13          0.1 0.0090068886    3.4203919  0.029886927 
number of iterations: 1927 
   18400    55.519377    10786          500        10286 5.0209222e-13 9.8057544e-13          0.1 0.0090070227    3.2237299   0.02988671 
number of iterations: 1895 
   18500    55.834825    11049          507        10542 5.0874602e-13 1.0028159e-12          0.1 0.0090071442    3.0365735  0.029886517 
number of iterations: 1888 
   18600    56.138047    11283          512        10771  5.15488e-13 1.0248774e-12          0.1 0.0090072668    2.8600269  0.029886325 
number of iterations: 1889 
   18700    56.485037    11531          520        11011 5.2231933e-13 1.0466951e-12          0.1 0.0090073974    2.6950416  0.029886123 
number of iterations: 1940 
   18800    56.820865    11761          526        11235 5.2924118e-13 1.0682021e-12          0.1 0.0090075439    2.5423771  0.029885898 
number of iterations: 1926 
   18900    57.148984    11993          530        11463 5.3625476e-13 1.089349e-12          0.1 0.0090076885    2.4025651  0.029885674 
number of iterations: 1926 
   19000    57.532189    12232          539        11693 5.4336129e-13 1.1097158e-12          0.1 0.0090078335    2.2760673  0.029885453 
number of iterations: 1896 
   19100    57.896507    12459          545        11914 5.5056199e-13 1.1298639e-12          0.1 0.0090079725    2.1627522   0.02988524 
number of iterations: 1920 
   19200    58.323562    12658          555        12103 5.5785812e-13 1.1499693e-12          0.1 0.0090081051    2.0621689  0.029885036 
number of iterations: 1932 
   19300     58.66258    12894          560        12334 5.6525093e-13 1.1698286e-12          0.1 0.0090082468    1.9737687  0.029884816 
number of iterations: 1933 
   19400    59.023742    13102          565        12537 5.7274172e-13 1.1896801e-12          0.1 0.0090083906    1.8967269  0.029884589 
number of iterations: 1886 
   19500    59.379307    13315          574        12741 5.8033177e-13 1.2092361e-12          0.1 0.0090085127    1.8302382  0.029884398 
number of iterations: 1909 
   19600    59.743542    13538          581        12957 5.8802241e-13 1.228665e-12          0.1 0.0090086442    1.7733373  0.029884187 
number of iterations: 1909 
   19700    60.186145    13739          592        13147 5.9581497e-13 1.2482479e-12          0.1 0.0090087832    1.7249194  0.029883961 
number of iterations: 1938 
   19800    60.563998    13958          596        13362 6.0371079e-13 1.2677106e-12          0.1 0.0090089263    1.6840274  0.029883725 
number of iterations: 1971 
   19900    60.963181    14180          605        13575 6.1171125e-13 1.2867547e-12          0.1 0.0090090439     1.649858  0.029883528 
number of iterations: 2012 
   20000    61.364782    14389          612        13777 6.1981773e-13 1.3062623e-12          0.1 0.0090091677    1.6212968  0.029883319 
number of iterations: 2045 
   20100    61.782567    14620          617        14003 6.2803164e-13 1.3254669e-12          0.1 0.0090092996    1.5976557  0.029883094 
number of iterations: 2078 
   20200    62.166491    14869          622        14247 6.363544e-13 1.3448883e-12          0.1 0.0090094378    1.5781094  0.029882857 
number of iterations: 2110 
   20300    62.555393    15068          631        14437 6.4478746e-13 1.3644716e-12          0.1 0.0090095588    1.5619676  0.029882647 
number of iterations: 2139 
   20400    62.941383    15292          642        14650 6.5333227e-13 1.3844723e-12          0.1 0.0090097017    1.5485456  0.029882396 
number of iterations: 2164 
   20500    63.384358    15507          649        14858 6.6199031e-13 1.4044685e-12          0.1 0.0090098311    1.5374304  0.029882168 
number of iterations: 2190 
   20600    63.794905    15735          660        15075 6.7076309e-13 1.4246568e-12          0.1 0.0090099637    1.5282009  0.029881933 
number of iterations: 2214 
   20700    64.202953    15988          667        15321 6.7965213e-13 1.4453533e-12          0.1 0.0090100807    1.5203923  0.029881722 
number of iterations: 2244 
   20800    64.611157    16208          671        15537 6.8865897e-13 1.4660293e-12          0.1 0.0090102157    1.5138278  0.029881481 
number of iterations: 2272 
   20900    65.056244    16464          682        15782 6.9778517e-13 1.486913e-12          0.1 0.0090103684    1.5082741  0.029881209 
number of iterations: 2299 
   21000    65.576196    16695          691        16004 7.0703231e-13 1.5079582e-12          0.1  0.009010516    1.5035591  0.029880946 
number of iterations: 2325 
   21100    65.989805    16923          700        16223 7.1640199e-13 1.5291099e-12          0.1 0.0090106508    1.4995661  0.029880703 
number of iterations: 2353 
   21200    66.411264    17190          708        16482 7.2589584e-13 1.550886e-12          0.1 0.0090108119    1.4960109  0.029880415 
number of iterations: 2390 
   21300    66.855804    17461          721        16740 7.355155e-13 1.5724525e-12          0.1 0.0090109633    1.4929831  0.029880143 
number of iterations: 2421 
   21400    67.289804    17711          729        16982 7.4526264e-13 1.5949667e-12          0.1 0.0090111234    1.4901219  0.029879856 
number of iterations: 2445 
   21500    67.774028    17986          743        17243 7.5513895e-13 1.6176672e-12          0.1 0.0090112699    1.4874369  0.029879589 
number of iterations: 2474 
   21600    68.236672    18239          752        17487 7.6514614e-13 1.6405469e-12          0.1 0.0090114185     1.484939   0.02987932 
number of iterations: 2505 
   21700     68.69636    18510          763        17747 7.7528595e-13 1.6636467e-12          0.1 0.0090115651    1.4826204  0.029879054 
number of iterations: 2534 
   21800    69.194804    18764          775        17989 7.8556013e-13 1.6871384e-12          0.1 0.0090117269    1.4804123  0.029878762 
number of iterations: 2565 
   21900    69.664642    19022          790        18232 7.9597046e-13 1.7109219e-12          0.1 0.0090118687    1.4783018  0.029878503 
number of iterations: 2598 
   22000    70.217844    19253          800        18453 8.0651876e-13 1.7342632e-12          0.1 0.0090120305    1.4765438  0.029878212 
number of iterations: 2629 
   22100    70.749077    19502          805        18697 8.1720684e-13 1.7580006e-12          0.1 0.0090121964    1.4750166  0.029877912 
number of iterations: 2666 
   22200    71.229865    19784          811        18973 8.2803655e-13 1.7826704e-12          0.1 0.0090123561    1.4734389  0.029877622 
number of iterations: 2707 
   22300    71.725907    20042          818        19224 8.3900979e-13 1.8077629e-12          0.1 0.0090125281     1.471798   0.02987731 
number of iterations: 2739 
   22400    72.261492    20300          830        19470 8.5012844e-13 1.8325675e-12          0.1 0.0090127074    1.4703435  0.029876988 
number of iterations: 2776 
   22500      72.7694    20561          841        19720 8.6139443e-13 1.8582374e-12          0.1 0.0090128709    1.4688336  0.029876691 
number of iterations: 2810 
   22600    73.286189    20869          858        20011 8.7280972e-13 1.8841796e-12          0.1 0.0090130377    1.4673165  0.029876387 
number of iterations: 2839 
   22700    73.817033    21162          870        20292 8.8437629e-13 1.9106249e-12          0.1 0.0090132112    1.4657443  0.029876073 
number of iterations: 2873 
   22800    74.348968    21435          881        20554 8.9609614e-13 1.937143e-12          0.1 0.0090133731     1.464242  0.029875778 
number of iterations: 2911 
   22900       74.876    21732          894        20838 9.079713e-13 1.964269e-12          0.1 0.0090135561    1.4627037  0.029875446 
number of iterations: 2946 
   23000    75.446148    21986          900        21086 9.2000383e-13 1.9917322e-12          0.1  0.009013705    1.4611561  0.029875171 
number of iterations: 2985 
   23100    75.980418    22283          913        21370 9.3219581e-13 2.0193972e-12          0.1  0.009013858    1.4596689  0.029874889 
number of iterations: 3014 
   23200     76.51349    22588          926        21662 9.4454936e-13 2.0475763e-12          0.1 0.0090140339    1.4581757  0.029874568 
number of iterations: 3056 
   23300    77.080649    22898          937        21961 9.5706663e-13 2.0762734e-12          0.1 0.0090141907    1.4566371  0.029874279 
number of iterations: 3089 
   23400    77.707256    23206          946        22260 9.6974977e-13 2.1051502e-12          0.1 0.0090143717    1.4551464  0.029873949 
number of iterations: 3126 
   23500     78.25699    23537          966        22571 9.8260099e-13 2.1344229e-12          0.1 0.0090145788    1.4536909  0.029873575 
number of iterations: 3163 
   23600    78.843641    23852          982        22870 9.9562251e-13 2.164483e-12          0.1 0.0090147773    1.4521246  0.029873216 
number of iterations: 3194 
   23700    79.435658    24212         1002        23210 1.0088166e-12 2.1945433e-12          0.1 0.0090149638    1.4506373  0.029872876 
number of iterations: 3228 
   23800    80.018628    24533         1012        23521 1.0221855e-12 2.2248338e-12          0.1 0.0090151632    1.4492681  0.029872514 
number of iterations: 3264 
   23900    80.608951    24903         1025        23878 1.0343984e-12 2.2553899e-12          0.1 0.0090153525    1.4469983  0.029872169 
number of iterations: 3301 
   24000    81.257247    25237         1040        24197 1.0481063e-12 2.2864825e-12          0.1 0.0090155929    1.4451638   0.02987174 
number of iterations: 3324 
   24100    81.857611    25555         1054        24501 1.0619959e-12 2.3177162e-12          0.1  0.009015778    1.4437059  0.029871402 
number of iterations: 3356 
   24200    82.480863    25951         1071        24880 1.0760696e-12 2.349961e-12          0.1 0.0090159957    1.4422754  0.029871009 
number of iterations: 3382 
   24300    83.095896    26304         1092        25212 1.0903297e-12 2.382278e-12          0.1 0.0090162087    1.4409962  0.029870623 
number of iterations: 3409 
   24400       83.742    26628         1104        25524 1.1041412e-12 2.4153026e-12          0.1 0.0090164142    1.4392227  0.029870249 
number of iterations: 3442 
   24500    84.359486    26970         1114        25856 1.1187734e-12 2.4487538e-12          0.1 0.0090166429    1.4376646  0.029869835 
number of iterations: 3474 
   24600    85.008805    27362         1122        26240 1.1335995e-12 2.4826515e-12          0.1 0.0090168472    1.4362415  0.029869462 
number of iterations: 3506 
   24700    85.656658    27737         1135        26602 1.148622e-12 2.5166817e-12          0.1 0.0090170685    1.4350191  0.029869061 
number of iterations: 3533 
   24800    86.304297    28134         1146        26988 1.1638436e-12 2.5516472e-12          0.1  0.009017251    1.4337482  0.029868722 
number of iterations: 3565 
   24900    86.972162    28505         1160        27345  1.17811e-12 2.5866908e-12          0.1 0.0090174633    1.4316999  0.029868334 
number of iterations: 3592 
   25000    87.635736    28913         1171        27742 1.1937224e-12 2.6213911e-12          0.1 0.0090176855    1.4304069  0.029867931 
number of iterations: 3624 
   25100    88.347832    29302         1181        28121 1.2095417e-12 2.6574121e-12          0.1 0.0090179105    1.4292399  0.029867522 
number of iterations: 3652 
   25200    89.021594    29748         1193        28555 1.2255707e-12 2.694194e-12          0.1 0.0090181342    1.4280488  0.029867114 
number of iterations: 3687 
   25300    89.709736    30154         1213        28941 1.241812e-12 2.7307531e-12          0.1 0.0090183601    1.4271062  0.029866701 
number of iterations: 3713 
   25400    90.382696    30574         1230        29344 1.2582686e-12 2.7677512e-12          0.1 0.0090185935     1.426319  0.029866277 
number of iterations: 3750 
   25500     91.14164    31021         1255        29766 1.2749433e-12 2.8058851e-12          0.1 0.0090188395    1.4253919  0.029865829 
number of iterations: 3770 
   25600    91.884085    31477         1273        30204 1.2918389e-12 2.8446099e-12          0.1 0.0090191108    1.4243657  0.029865339 
number of iterations: 3800 
   25700    92.581241    31926         1292        30634 1.3089584e-12 2.8833717e-12          0.1 0.0090193939    1.4234654  0.029864831 
number of iterations: 3829 
   25800    93.285589    32408         1310        31098 1.3263048e-12 2.9229728e-12          0.1 0.0090196342    1.4225201  0.029864392 
number of iterations: 3847 
   25900    94.037363    32819         1329        31490 1.3412025e-12 2.9627933e-12          0.1 0.0090198495    1.4195899  0.029863996 
number of iterations: 3872 
   26000     94.79317    33234         1343        31891 1.3589762e-12 3.0035248e-12          0.1 0.0090201247     1.417639  0.029863499 
number of iterations: 3900 
   26100    95.556005    33694         1362        32332 1.3769854e-12 3.0439406e-12          0.1 0.0090203722    1.4164831  0.029863049 
number of iterations: 3927 
   26200    96.293402    34169         1375        32794 1.3952333e-12 3.0851428e-12          0.1 0.0090206488    1.4156311  0.029862549 
number of iterations: 3950 
   26300    97.031812    34634         1389        33245 1.413723e-12 3.1268768e-12          0.1 0.0090209164    1.4149334  0.029862063 
number of iterations: 3976 
   26400    97.812683    35093         1398        33695 1.4313071e-12 3.1697766e-12          0.1 0.0090211462    1.4132081  0.029861637 
number of iterations: 4000 
   26500    98.594784    35594         1412        34182 1.4492382e-12 3.2130383e-12          0.1 0.0090214149    1.4111848  0.029861149 
number of iterations: 4030 
   26600    99.384174    36077         1433        34644 1.4684436e-12 3.2571127e-12          0.1 0.0090216632    1.4097654  0.029860695 
number of iterations: 4059 
   26700    100.19703    36595         1452        35143 1.4879035e-12 3.3016123e-12          0.1 0.0090219589    1.4086784  0.029860161 
number of iterations: 4081 
   26800    101.05483    37055         1467        35588 1.5076213e-12 3.3455418e-12          0.1 0.0090222337    1.4081534   0.02985966 
number of iterations: 4107 
   26900    101.84083    37526         1485        36041 1.5276004e-12 3.3906065e-12          0.1 0.0090225161    1.4076767  0.029859146 
number of iterations: 4133 
   27000    102.66657    38037         1514        36523 1.5478442e-12 3.4366226e-12          0.1  0.009022784    1.4070998  0.029858654 
number of iterations: 4160 
   27100    103.48511    38534         1531        37003 1.5683563e-12 3.4832831e-12          0.1 0.0090231005    1.4064759  0.029858082 
number of iterations: 4189 
   27200    104.29455    39059         1551        37508 1.5891402e-12 3.5304791e-12          0.1 0.0090233916    1.4058667  0.029857551 
number of iterations: 4212 
   27300    105.12281    39584         1576        38008 1.6101996e-12 3.5782858e-12          0.1   0.00902365    1.4052749  0.029857074 
number of iterations: 4239 
   27400    105.98582    40128         1599        38529 1.631538e-12 3.6270464e-12          0.1 0.0090239671     1.404581  0.029856499 
number of iterations: 4265 
   27500    106.82382    40680         1622        39058 1.6531592e-12 3.6759703e-12          0.1 0.0090242882    1.4040267  0.029855916 
number of iterations: 4284 
   27600    107.69552    41236         1645        39591 1.673954e-12 3.726062e-12          0.1 0.0090245739    1.4024805  0.029855391 
number of iterations: 4318 
   27700    108.57516    41788         1667        40121 1.6961372e-12 3.7766112e-12          0.1 0.0090249297    1.4015328  0.029854751 
number of iterations: 4346 
   27800    109.45608    42324         1692        40632 1.7186145e-12 3.8281312e-12          0.1  0.009025231     1.400696  0.029854199 
number of iterations: 4372 
   27900    110.36698    42875         1712        41163 1.7413896e-12 3.8800409e-12          0.1 0.0090255802    1.4000076  0.029853568 
number of iterations: 4392 
   28000    111.31452    43413         1734        41679 1.7633144e-12 3.9319275e-12          0.1 0.0090258962    1.3987244  0.029852992 
number of iterations: 4418 
   28100    112.22446    44002         1755        42247 1.7866818e-12 3.9853198e-12          0.1 0.0090262137     1.397878  0.029852412 
number of iterations: 4440 
   28200    113.12192    44615         1781        42834 1.8096229e-12 4.0388586e-12          0.1 0.0090265479    1.3967959  0.029851804 
number of iterations: 4465 
   28300    114.06235    45242         1810        43432 1.833604e-12 4.0933334e-12          0.1  0.009026898    1.3961475  0.029851171 
number of iterations: 4489 
   28400    115.04515    45797         1837        43960 1.857903e-12 4.1486995e-12          0.1 0.0090272644     1.395571  0.029850507 
number of iterations: 4518 
   28500    115.97753    46425         1864        44561 1.882524e-12 4.2048386e-12          0.1 0.0090276105    1.3950089  0.029849875 
number of iterations: 4545 
   28600    116.97751    47035         1888        45147 1.9074712e-12 4.2611422e-12          0.1  0.009027902    1.3946596  0.029849336 
number of iterations: 4569 
   28700    117.98811    47669         1914        45755 1.932749e-12 4.3187185e-12          0.1 0.0090282594    1.3941837  0.029848685 
number of iterations: 4594 
   28800    118.99609    48300         1934        46366 1.9576048e-12 4.3763803e-12          0.1  0.009028595    1.3933318   0.02984807 
number of iterations: 4618 
   28900    119.98707    48933         1959        46974 1.983547e-12 4.4351099e-12          0.1 0.0090289401    1.3928801   0.02984744 
number of iterations: 4646 
   29000      121.016    49630         1984        47646 2.009833e-12 4.4941694e-12          0.1 0.0090293341    1.3926799  0.029846727 
number of iterations: 4669 
   29100    122.01743    50294         2005        48289 2.0353121e-12 4.5549362e-12          0.1 0.0090296828    1.3913162  0.029846088 
number of iterations: 4699 
   29200    123.02303    50973         2030        48943 2.062284e-12 4.6162585e-12          0.1 0.0090300278    1.3907155  0.029845455 
number of iterations: 4723 
   29300    124.07615    51653         2057        49596 2.0896134e-12 4.6783521e-12          0.1 0.0090304064    1.3902842  0.029844766 
number of iterations: 4753 
   29400    125.09764    52338         2087        50251 2.117305e-12 4.741386e-12          0.1  0.009030802    1.3898467  0.029844048 
number of iterations: 4780 
   29500    126.16717    53024         2115        50909 2.1445105e-12 4.8047189e-12          0.1 0.0090311724    1.3889372  0.029843371 
number of iterations: 4807 
   29600    127.22451    53771         2145        51626 2.1729295e-12 4.8692163e-12          0.1 0.0090315678    1.3885114  0.029842652 
number of iterations: 4833 
   29700    128.30792    54479         2173        52306 2.2017252e-12 4.9342465e-12          0.1 0.0090320017    1.3882748  0.029841866 
number of iterations: 4853 
   29800    129.41265    55163         2209        52954 2.2298119e-12 5.0006961e-12          0.1  0.009032351    1.3870223   0.02984122 
number of iterations: 4880 
   29900    130.50702    55891         2239        53652 2.2593614e-12 5.0683813e-12          0.1 0.0090327234    1.3863896  0.029840538 
number of iterations: 4906 
   30000    131.63552    56681         2273        54408  2.28852e-12 5.1358316e-12          0.1 0.0090331973    1.3856144  0.029839685 
number of iterations: 4931 
   30100    132.77113    57392         2301        55091 2.3188474e-12 5.2033093e-12          0.1 0.0090335737    1.3857494  0.029838995 
number of iterations: 4950 
   30200    133.91657    58165         2317        55848 2.3485998e-12 5.2731487e-12          0.1  0.009033954    1.3846855  0.029838292 
number of iterations: 4979 
   30300    135.04663    58954         2345        56609 2.3797234e-12 5.3428468e-12          0.1 0.0090343654    1.3846806   0.02983754 
number of iterations: 4995 
   30400    136.20354    59763         2377        57386 2.4085234e-12 5.4146348e-12          0.1 0.0090347602    1.3821965  0.029836812 
number of iterations: 5021 
   30500    137.37791    60593         2410        58183 2.4389888e-12 5.4864639e-12          0.1 0.0090351617    1.3809473   0.02983608 
number of iterations: 5048 
   30600    138.59595    61462         2443        59019 2.4713102e-12 5.5596126e-12          0.1 0.0090356207    1.3807636  0.029835248 
number of iterations: 5071 
   30700     139.8691    62252         2476        59776 2.5029168e-12 5.6331783e-12          0.1 0.0090360621    1.3799096  0.029834441 
number of iterations: 5098 
   30800    141.13306    63071         2505        60566 2.5360854e-12 5.7084623e-12          0.1 0.0090364997    1.3796935  0.029833641 
number of iterations: 5122 
   30900    142.37434    63917         2534        61383 2.5696935e-12 5.7849232e-12          0.1 0.0090369627    1.3794114  0.029832796 
number of iterations: 5154 
   31000    143.64283    64768         2563        62205  2.60296e-12 5.8618071e-12          0.1 0.0090374286     1.378725  0.029831946 
number of iterations: 5173 
   31100    144.88054    65630         2586        63044 2.6346907e-12 5.9398133e-12          0.1 0.0090378404    1.3764945  0.029831184 
number of iterations: 5191 
   31200     146.1599    66541         2629        63912 2.6669139e-12 6.0179787e-12          0.1 0.0090382584    1.3747294  0.029830415 
number of iterations: 5209 
   31300    147.44548    67411         2666        64745 2.7001921e-12 6.0973382e-12          0.1 0.0090387478    1.3733923  0.029829528 
number of iterations: 5233 
   31400    148.77169    68310         2702        65608 2.735975e-12 6.1775893e-12          0.1 0.0090392379    1.3737048  0.029828638 
number of iterations: 5252 
   31500    150.08018    69220         2731        66489 2.7687759e-12 6.2585075e-12          0.1  0.009039701    1.3712913  0.029827786 
number of iterations: 5279 
   31600    151.45538    70157         2762        67395 2.8034703e-12 6.3416308e-12          0.1 0.0090401572    1.3699658  0.029826954 
number of iterations: 5336 
   31700    152.79106    71053         2793        68260 2.838705e-12 6.4243414e-12          0.1 0.0090405649    1.3691253  0.029826199 
number of iterations: 5389 
   31800    154.19073    71990         2822        69168 2.8752736e-12 6.508825e-12          0.1  0.009040985    1.3686641  0.029825418 
number of iterations: 5432 
   31900    155.64703    72921         2860        70061 2.9133765e-12 6.595418e-12          0.1 0.0090415059    1.3686295  0.029824467 
number of iterations: 5483 
   32000    157.04721    73875         2885        70990 2.9510634e-12 6.6819573e-12          0.1 0.0090419619    1.3682184  0.029823623 
number of iterations: 5526 
   32100    158.48335    74820         2925        71895 2.9901707e-12 6.7687984e-12          0.1 0.0090425156    1.3688824  0.029822617 
number of iterations: 5571 
   32200    159.91707    75780         2965        72815 3.0279034e-12 6.8581387e-12          0.1 0.0090430216      1.36738  0.029821686 
number of iterations: 5612 
   32300    161.42251    76814         3001        73813 3.0661956e-12 6.9484089e-12          0.1  0.009043535    1.3665184  0.029820747 
number of iterations: 5714 
   32400    162.93944    77817         3043        74774 3.103286e-12 7.0397921e-12          0.1 0.0090439167    1.3642239  0.029820026 
number of iterations: 5785 
   32500     164.4455    78830         3088        75742 3.1417144e-12 7.1305491e-12          0.1 0.0090443893    1.3636197  0.029819159 
number of iterations: 5858 
   32600    165.94184    79847         3136        76711 3.1824514e-12 7.2241599e-12          0.1 0.0090449549    1.3634036  0.029818129 
number of iterations: 5908 
   32700    167.48057    80937         3176        77761 3.2210736e-12 7.3193818e-12          0.1 0.0090455467    1.3608647   0.02981705 
number of iterations: 5969 
   32800     169.0314    81960         3221        78739 3.2637591e-12 7.4151129e-12          0.1 0.0090460263     1.362138  0.029816165 
number of iterations: 6004 
   32900    170.66418    83027         3261        79766 3.3058361e-12 7.510622e-12          0.1  0.009046584     1.361723  0.029815139 
number of iterations: 6057 
   33000    172.28297    84075         3301        80774 3.3496448e-12 7.6082003e-12          0.1  0.009047268    1.3625379  0.029813906 
number of iterations: 6113 
   33100    173.89288    85153         3346        81807 3.3919048e-12 7.7070301e-12          0.1 0.0090478222    1.3612415  0.029812886 
number of iterations: 6167 
   33200    175.55072    86218         3382        82836 3.436854e-12 7.8075632e-12          0.1 0.0090484048    1.3623136   0.02981182 
number of iterations: 6214 
   33300    178.17792    87280         3416        83864 3.4792099e-12 7.9083914e-12          0.1 0.0090489585    1.3602597  0.029810799 
number of iterations: 6276 
   33400    179.86845    88372         3456        84916 3.5219722e-12 8.0098261e-12          0.1 0.0090495214     1.359694  0.029809772 
number of iterations: 6355 
   33500    181.85871    89486         3499        85987 3.5647722e-12 8.1130133e-12          0.1 0.0090501224     1.357933  0.029808674 
number of iterations: 6416 
   33600    183.58705    90662         3554        87108 3.6102472e-12 8.218278e-12          0.1 0.0090507467    1.3581692  0.029807539 
number of iterations: 6504 
   33700    185.35746    91878         3597        88281 3.6529693e-12 8.3241006e-12          0.1 0.0090513114    1.3551046  0.029806495 
number of iterations: 6569 
   33800    187.51085    93084         3639        89445 3.6981881e-12 8.4307179e-12          0.1 0.0090519281    1.3554616  0.029805376 
number of iterations: 6650 
   33900    189.34256    94257         3701        90556 3.7428693e-12 8.5399666e-12          0.1 0.0090524933    1.3527147  0.029804327 
number of iterations: 6724 
   34000    191.72042    95461         3750        91711 3.7891111e-12 8.6499525e-12          0.1 0.0090530401    1.3527146  0.029803323 
number of iterations: 6773 
   34100    193.51923    96687         3790        92897 3.8352732e-12 8.760395e-12          0.1 0.0090535855    1.3509489  0.029802305 
number of iterations: 6863 
   34200    195.34593    97935         3839        94096 3.8835281e-12 8.8716893e-12          0.1 0.0090542766     1.351641  0.029801056 
number of iterations: 6937 
   34300     197.4512    99186         3886        95300 3.928747e-12 8.9843776e-12          0.1 0.0090548732    1.3479642  0.029799948 
number of iterations: 7021 
   34400    199.38749   100479         3935        96544 3.9798044e-12 9.099932e-12          0.1 0.0090556388    1.3507616  0.029798578 
number of iterations: 7090 
   34500    201.66895   101772         3984        97788  4.02864e-12 9.2159295e-12          0.1 0.0090562292    1.3473886   0.02979747 
number of iterations: 7160 
   34600    203.69517   103091         4035        99056 4.0786424e-12 9.3333945e-12          0.1 0.0090569424    1.3486604  0.029796185 
number of iterations: 7204 
   34700     205.6944   104401         4069       100332 4.1268379e-12 9.4523964e-12          0.1 0.0090575031    1.3447297  0.029795131 
number of iterations: 7276 
   34800    207.80533   105695         4128       101567 4.1778164e-12 9.5700359e-12          0.1   0.00905819    1.3473249  0.029793891 
number of iterations: 7373 
   34900    209.86113   107010         4184       102826 4.2236829e-12 9.6872042e-12          0.1 0.0090587451    1.3411673   0.02979284 
number of iterations: 7452 
   35000    211.98792   108340         4234       104106 4.2771116e-12 9.8080019e-12          0.1 0.0090595024    1.3466016  0.029791494 
Loop time of 211.988 on 32 procs for 35000 steps with 108340 atoms

Performance: 142649598.459 tau/day, 165.104 timesteps/s
93.3% CPU use with 32 MPI tasks x no OpenMP threads

MPI task timing breakdown:
Section |  min time  |  avg time  |  max time  |%varavg| %total
---------------------------------------------------------------
Pair    | 0.028823   | 5.7569     | 19.873     | 174.7 |  2.72
Neigh   | 0.014324   | 1.8208     | 5.2024     |  82.8 |  0.86
Comm    | 1.1117     | 2.128      | 2.9803     |  34.6 |  1.00
Output  | 61.666     | 61.666     | 61.675     |   0.0 | 29.09
Modify  | 120.2      | 120.88     | 121.86     |   3.4 | 57.02
Other   |            | 19.73      |            |       |  9.31

Nlocal:    3385.62 ave 7203 max 253 min
Histogram: 3 1 2 5 8 6 4 2 0 1
Nghost:    1944.25 ave 3834 max 695 min
Histogram: 3 6 3 3 6 3 5 1 1 1
Neighs:    29443.9 ave 79898 max 1965 min
Histogram: 4 2 7 8 5 3 1 1 0 1

Total # of neighbors = 942204
Ave neighs/atom = 8.69673
Neighbor list builds = 849
Dangerous builds = 0
Total wall time: 0:03:32
