 NUFEB Simulation

     100 atoms 
     2 atom types 
     4 nutrients 

  0.0e-4   1.00e-04  xlo xhi 
  0.0e-4   1.00e-04  ylo yhi 
  0.0e-4   1.00e-05  zlo zhi 

 Atoms 

     1 1 1.63e-06  370 4.15e-05 2.07e-06 1.91e-06 1.63e-06 
     2 1 1.44e-06  370 6.84e-05 9.73e-05 7.99e-06 1.44e-06 
     3 1 1.40e-06  370 8.07e-05 3.01e-05 2.31e-06 1.40e-06 
     4 1 1.54e-06  370 2.67e-05 3.38e-05 7.50e-06 1.54e-06 
     5 1 1.72e-06  370 3.58e-05 2.56e-05 2.23e-06 1.72e-06 
     6 1 1.38e-06  370 1.06e-05 4.28e-05 3.07e-06 1.38e-06 
     7 1 1.50e-06  370 9.43e-05 4.61e-05 7.16e-06 1.50e-06 
     8 1 1.79e-06  370 5.63e-05 6.24e-06 8.09e-06 1.79e-06 
     9 1 1.68e-06  370 7.25e-05 6.31e-05 3.86e-06 1.68e-06 
     10 1 1.78e-06  370 5.86e-05 9.20e-05 2.07e-06 1.78e-06 
     11 1 1.72e-06  370 3.23e-05 6.32e-05 5.49e-06 1.72e-06 
     12 1 1.79e-06  370 5.10e-05 7.17e-06 7.46e-06 1.79e-06 
     13 1 1.92e-06  370 1.21e-05 3.43e-06 6.55e-06 1.92e-06 
     14 1 1.79e-06  370 5.94e-05 9.82e-05 6.59e-06 1.79e-06 
     15 1 1.44e-06  370 8.45e-05 7.62e-05 6.37e-06 1.44e-06 
     16 1 1.93e-06  370 2.92e-05 6.09e-05 5.33e-06 1.93e-06 
     17 1 1.60e-06  370 2.23e-05 8.35e-05 1.86e-06 1.60e-06 
     18 1 1.42e-06  370 5.88e-05 7.90e-05 3.51e-06 1.42e-06 
     19 1 1.50e-06  370 5.46e-05 6.34e-05 2.10e-06 1.50e-06 
     20 1 1.60e-06  370 4.78e-05 8.86e-05 3.67e-06 1.60e-06 
     21 1 1.51e-06  370 5.40e-05 8.41e-05 1.87e-06 1.51e-06 
     22 1 1.38e-06  370 2.40e-05 6.36e-05 3.11e-06 1.38e-06 
     23 1 1.54e-06  370 2.21e-05 3.86e-05 2.73e-06 1.54e-06 
     24 1 1.71e-06  370 3.00e-05 2.64e-05 7.34e-06 1.71e-06 
     25 1 1.71e-06  370 5.44e-05 2.59e-05 5.13e-06 1.71e-06 
     26 1 1.74e-06  370 9.78e-05 5.76e-05 1.78e-06 1.74e-06 
     27 1 1.47e-06  370 6.37e-05 5.39e-05 6.61e-06 1.47e-06 
     28 1 1.45e-06  370 3.36e-05 6.48e-05 8.12e-06 1.45e-06 
     29 1 1.80e-06  370 1.82e-05 6.42e-05 3.40e-06 1.80e-06 
     30 1 1.68e-06  370 2.59e-06 7.27e-05 2.88e-06 1.68e-06 
     31 1 1.70e-06  370 3.65e-05 5.71e-05 6.15e-06 1.70e-06 
     32 1 1.40e-06  370 6.87e-05 9.40e-06 5.13e-06 1.40e-06 
     33 1 1.39e-06  370 7.87e-05 2.88e-05 6.45e-06 1.39e-06 
     34 1 1.89e-06  370 7.92e-05 8.80e-05 4.86e-06 1.89e-06 
     35 1 1.72e-06  370 3.08e-05 9.28e-05 5.31e-06 1.72e-06 
     36 1 1.60e-06  370 1.05e-05 7.86e-05 6.50e-06 1.60e-06 
     37 1 1.82e-06  370 5.58e-05 1.84e-05 3.01e-06 1.82e-06 
     38 1 1.59e-06  370 7.68e-05 7.15e-05 3.87e-06 1.59e-06 
     39 1 1.67e-06  370 3.70e-05 7.65e-05 6.48e-06 1.67e-06 
     40 1 1.88e-06  370 9.65e-05 6.07e-06 7.75e-06 1.88e-06 
     41 1 1.42e-06  370 9.68e-05 9.05e-05 8.22e-06 1.42e-06 
     42 1 1.38e-06  370 7.30e-05 3.47e-05 4.46e-06 1.38e-06 
     43 1 1.40e-06  370 1.59e-05 8.73e-05 8.19e-06 1.40e-06 
     44 1 1.57e-06  370 4.33e-05 1.47e-05 7.04e-06 1.57e-06 
     45 1 1.83e-06  370 7.30e-05 9.56e-05 5.46e-06 1.83e-06 
     46 1 1.93e-06  370 6.08e-05 7.55e-05 5.31e-06 1.93e-06 
     47 1 1.70e-06  370 8.77e-05 5.40e-05 7.75e-06 1.70e-06 
     48 1 1.80e-06  370 1.93e-05 6.68e-05 6.31e-06 1.80e-06 
     49 1 1.72e-06  370 4.61e-05 8.32e-05 5.65e-06 1.72e-06 
     50 1 1.41e-06  370 1.23e-05 8.75e-05 7.59e-06 1.41e-06 
     51 2 1.32e-06  230 1.39e-06 5.01e-05 4.74e-06 1.32e-06 
     52 2 8.96e-07  230 5.03e-05 4.38e-05 7.97e-06 8.96e-07 
     53 2 1.19e-06  230 9.18e-05 3.30e-05 3.37e-06 1.19e-06 
     54 2 1.35e-06  230 9.69e-05 3.68e-05 4.16e-06 1.35e-06 
     55 2 9.33e-07  230 4.04e-05 7.39e-05 2.22e-06 9.33e-07 
     56 2 1.18e-06  230 1.72e-05 1.32e-05 5.37e-06 1.18e-06 
     57 2 1.24e-06  230 7.18e-05 7.48e-06 7.71e-06 1.24e-06 
     58 2 1.15e-06  230 9.32e-05 4.20e-05 7.75e-06 1.15e-06 
     59 2 1.35e-06  230 7.82e-05 1.24e-05 5.57e-06 1.35e-06 
     60 2 1.22e-06  230 4.19e-05 3.50e-05 1.34e-06 1.22e-06 
     61 2 1.17e-06  230 3.83e-05 7.28e-05 4.01e-06 1.17e-06 
     62 2 1.29e-06  230 4.83e-06 5.75e-05 5.55e-06 1.29e-06 
     63 2 1.21e-06  230 3.05e-05 4.20e-05 6.52e-06 1.21e-06 
     64 2 1.19e-06  230 1.17e-05 8.15e-05 5.29e-06 1.19e-06 
     65 2 8.81e-07  230 6.78e-06 9.59e-05 7.69e-06 8.81e-07 
     66 2 9.63e-07  230 7.47e-05 5.60e-06 8.54e-06 9.63e-07 
     67 2 1.37e-06  230 5.35e-05 7.84e-05 7.51e-06 1.37e-06 
     68 2 1.34e-06  230 6.10e-05 3.31e-05 4.71e-06 1.34e-06 
     69 2 1.31e-06  230 1.14e-05 2.72e-05 4.95e-06 1.31e-06 
     70 2 1.05e-06  230 4.88e-05 3.18e-05 1.70e-06 1.05e-06 
     71 2 1.11e-06  230 1.02e-05 4.36e-05 6.36e-06 1.11e-06 
     72 2 1.34e-06  230 8.52e-05 2.02e-05 3.11e-06 1.34e-06 
     73 2 1.05e-06  230 7.18e-05 7.54e-05 5.99e-06 1.05e-06 
     74 2 1.09e-06  230 2.75e-05 2.98e-06 5.56e-06 1.09e-06 
     75 2 1.05e-06  230 2.72e-05 8.92e-05 6.57e-06 1.05e-06 
     76 2 1.06e-06  230 6.51e-05 2.82e-05 8.15e-06 1.06e-06 
     77 2 1.03e-06  230 3.12e-05 3.15e-05 1.77e-06 1.03e-06 
     78 2 9.98e-07  230 5.98e-05 2.58e-05 3.26e-06 9.98e-07 
     79 2 1.31e-06  230 8.45e-05 8.16e-05 8.60e-06 1.31e-06 
     80 2 1.32e-06  230 1.58e-06 5.13e-05 6.84e-06 1.32e-06 
     81 2 1.38e-06  230 3.49e-05 9.86e-06 2.75e-06 1.38e-06 
     82 2 1.16e-06  230 2.76e-05 8.70e-05 7.11e-06 1.16e-06 
     83 2 1.36e-06  230 9.76e-05 8.10e-05 4.86e-06 1.36e-06 
     84 2 1.31e-06  230 1.99e-06 1.48e-05 3.00e-06 1.31e-06 
     85 2 9.66e-07  230 4.54e-05 2.11e-05 8.01e-06 9.66e-07 
     86 2 9.03e-07  230 9.76e-05 1.90e-06 6.28e-06 9.03e-07 
     87 2 1.07e-06  230 6.75e-06 7.59e-05 2.90e-06 1.07e-06 
     88 2 9.55e-07  230 6.23e-05 8.06e-05 5.08e-06 9.55e-07 
     89 2 9.08e-07  230 2.46e-05 9.37e-05 1.32e-06 9.08e-07 
     90 2 1.15e-06  230 9.85e-05 4.79e-05 5.08e-06 1.15e-06 
     91 2 1.31e-06  230 2.70e-05 1.44e-05 4.15e-06 1.31e-06 
     92 2 1.22e-06  230 8.98e-05 8.88e-06 6.73e-06 1.22e-06 
     93 2 1.21e-06  230 2.15e-05 3.33e-05 3.81e-06 1.21e-06 
     94 2 1.04e-06  230 7.40e-05 2.85e-05 4.16e-06 1.04e-06 
     95 2 1.29e-06  230 7.48e-05 4.22e-05 8.34e-06 1.29e-06 
     96 2 1.23e-06  230 3.24e-05 8.59e-05 2.62e-06 1.23e-06 
     97 2 1.14e-06  230 1.53e-05 3.73e-05 6.78e-06 1.14e-06 
     98 2 1.15e-06  230 1.41e-05 2.12e-05 5.82e-06 1.15e-06 
     99 2 1.14e-06  230 8.14e-05 2.32e-05 3.05e-06 1.14e-06 
     100 2 9.06e-07  230 2.22e-05 3.72e-05 8.75e-06 9.06e-07 

 Nutrients 

     1 sub g nn nn nn 1.00e-01 1.00e-01 
     2 o2 l nn nn nd 9.00e-03 9.00e-03 
     3 suc l nn nn nn 3.42e-20 3.42e-20 
     4 co2 l nn nn nd 2.99e-02 2.99e-02 

 Type Name 

     1 cyano  
     2 ecw  

 Diffusion Coeffs 

     sub 0 
     o2 2.3e-09 
     suc 5.2e-10 
     co2 1.9e-09 

 Growth Rate 

     cyano 1.67e-05 
     ecw 1.5e-05 

 Ks 

     cyano 0.00035 0.0002 0.01 0.000138 
     ecw 0 0.001 3.6 0.05 

 Yield 

     cyano 0.55 
     ecw 0.43 

 Maintenance 

     cyano 0 
     ecw 9.5e-07 

 Decay 

     cyano 0 
     ecw 0 



