LAMMPS (20 Nov 2019)
Reading data file ...
  orthogonal box = (0 0 0) to (0.0001 0.0001 1e-05)
  8 by 4 by 1 MPI processor grid
  reading atoms ...
  100 atoms
  4 nutrients
Lattice spacing in x,y,z = 100 100 100
50 atoms in group CYANO
50 atoms in group ECW
Model is defined as a closed system. 
Neighbor list info ...
  update every 1 steps, delay 0 steps, check yes
  max neighbors/atom: 5000, page size: 100000
  master list distance cutoff = 2.43e-06
  ghost atom cutoff = 2.43e-06
  binsize = 1.215e-06, bins = 83 83 9
  1 neighbor lists, perpetual/occasional/extra = 1 0 0
  (1) pair gran/hooke/history, perpetual
      attributes: half, newton off, size, history
      pair build: half/size/bin/newtoff
      stencil: half/bin/3d/newtoff
      bin: standard
Setting up Verlet run ...
  Unit style    : lj
  Current step  : 0
  Time step     : 10
Per MPI rank memory allocation (min/avg/max) = 6.792 | 11.42 | 12.11 Mbytes
Step CPU Atoms c_myNtypes[1] c_myNtypes[2] c_myMass[1] c_myMass[2] c_myCon[1] c_myCon[2] c_myCon[3] c_myCon[4] 
       0            0      100           50           50 4.3132833e-14 9.7365758e-15          0.1        0.009     3.42e-20       0.0299 
number of iterations: 323327 
     100    15.577814      139           50           89 4.3704439e-14 9.7295039e-15          0.1 0.0090007157  0.034651637  0.029898808 
number of iterations: 4407 
     200    15.916726      158           50          108 4.4283619e-14 9.7235477e-15          0.1 0.0090007251  0.068650616  0.029898792 
number of iterations: 2885 
     300    16.193543      158           50          108 4.4870476e-14 9.718762e-15          0.1 0.0090007346   0.10306792  0.029898776 
number of iterations: 2184 
     400    16.416545      158           50          108 4.5465109e-14 9.7151409e-15          0.1 0.0090007443   0.13791231   0.02989876 
number of iterations: 1782 
     500    16.645567      160           52          108 4.6067622e-14 9.7126792e-15          0.1 0.0090007541    0.1731909  0.029898744 
number of iterations: 1582 
     600    16.856762      161           53          108 4.667812e-14 9.7113776e-15          0.1  0.009000764   0.20891066  0.029898727 
number of iterations: 1449 
     700    17.081052      161           53          108 4.7296709e-14 9.711231e-15          0.1 0.0090007741   0.24507815   0.02989871 
number of iterations: 1417 
     800    17.307659      161           53          108 4.7923495e-14 9.7122333e-15          0.1 0.0090007843   0.28169987  0.029898693 
number of iterations: 1420 
     900    17.522529      161           53          108 4.8558588e-14 9.7143787e-15          0.1 0.0090007946   0.31878243  0.029898676 
number of iterations: 1452 
    1000    17.758647      162           54          108 4.9202097e-14 9.7176601e-15          0.1 0.0090008051   0.35633233  0.029898658 
number of iterations: 1426 
    1100    17.938953      163           55          108 4.9854133e-14 9.7220732e-15          0.1 0.0090008157   0.39435632   0.02989864 
number of iterations: 1429 
    1200    18.135965      163           55          108 5.0514811e-14 9.7276126e-15          0.1 0.0090008265   0.43286125  0.029898622 
number of iterations: 1431 
    1300    18.315429      163           55          108 5.1184244e-14 9.7342735e-15          0.1 0.0090008374   0.47185397  0.029898604 
number of iterations: 1434 
    1400    18.520295      163           55          108 5.1862549e-14 9.7420507e-15          0.1 0.0090008484   0.51134143  0.029898586 
number of iterations: 1437 
    1500    18.741239      163           55          108 5.2549843e-14 9.7509401e-15          0.1 0.0090008596   0.55133062  0.029898567 
number of iterations: 1440 
    1600    18.915432      163           55          108 5.3246244e-14 9.7609372e-15          0.1  0.009000871   0.59182864  0.029898548 
number of iterations: 1456 
    1700    19.117329      164           56          108 5.3951875e-14 9.7720377e-15          0.1 0.0090008824   0.63284255  0.029898529 
number of iterations: 1445 
    1800    19.303901      165           57          108 5.4666857e-14 9.7842374e-15          0.1 0.0090008941   0.67437965  0.029898509 
number of iterations: 1448 
    1900    19.480519      165           57          108 5.5391314e-14 9.7975343e-15          0.1 0.0090009059   0.71644734   0.02989849 
number of iterations: 1451 
    2000    19.696542      165           57          108 5.6125371e-14 9.8119254e-15          0.1 0.0090009179   0.75905306   0.02989847 
number of iterations: 1443 
    2100     19.85965      167           59          108 5.6869157e-14 9.8274087e-15          0.1   0.00900093   0.80220434  0.029898449 
number of iterations: 1453 
    2200    20.025182      170           62          108 5.7622799e-14 9.8439809e-15          0.1 0.0090009423   0.84590884  0.029898429 
number of iterations: 1510 
    2300    20.233278      171           63          108 5.8386429e-14 9.8616396e-15          0.1 0.0090009547   0.89017404  0.029898408 
number of iterations: 1462 
    2400    20.424125      171           63          108 5.9160178e-14 9.8803841e-15          0.1 0.0090009673   0.93500792  0.029898387 
number of iterations: 1465 
    2500    20.619326      171           63          108 5.9944181e-14 9.9002129e-15          0.1 0.0090009801   0.98041834  0.029898366 
number of iterations: 1468 
    2600    20.794746      171           63          108 6.0738575e-14 9.9211251e-15          0.1  0.009000993    1.0264133  0.029898344 
number of iterations: 1470 
    2700     20.99476      171           63          108 6.1543495e-14 9.9431199e-15          0.1 0.0090010062    1.0730009  0.029898322 
number of iterations: 1473 
    2800    21.188874      171           63          108 6.2359083e-14 9.9661967e-15          0.1 0.0090010195    1.1201894    0.0298983 
number of iterations: 1492 
    2900    21.384512      172           64          108 6.3185478e-14 9.9903533e-15          0.1 0.0090010329     1.167987  0.029898277 
number of iterations: 1479 
    3000    21.609216      173           64          109 6.4022826e-14 1.0015592e-14          0.1 0.0090010466    1.2164021  0.029898255 
number of iterations: 1470 
    3100    21.810793      178           68          110 6.487127e-14 1.0041915e-14          0.1 0.0090010604    1.2654433  0.029898232 
number of iterations: 1484 
    3200    21.990755      178           68          110 6.5730958e-14 1.006932e-14          0.1 0.0090010744    1.3151191  0.029898208 
number of iterations: 1489 
    3300    22.161285      180           70          110 6.6602038e-14 1.009781e-14          0.1 0.0090010887    1.3654382  0.029898184 
number of iterations: 1494 
    3400     22.34235      182           72          110 6.7484662e-14 1.0127385e-14          0.1  0.009001103    1.4164094   0.02989816 
number of iterations: 1493 
    3500    22.517482      182           72          110 6.8378983e-14 1.0158045e-14          0.1 0.0090011176    1.4680417  0.029898136 
number of iterations: 1527 
    3600    22.717687      184           72          112 6.9285156e-14 1.0189793e-14          0.1 0.0090011324     1.520344  0.029898111 
number of iterations: 1494 
    3700    22.919565      186           74          112 7.0203338e-14 1.0222631e-14          0.1 0.0090011474    1.5733256  0.029898086 
number of iterations: 1501 
    3800    23.085554      187           75          112 7.1133687e-14 1.0256561e-14          0.1 0.0090011626    1.6269957  0.029898061 
number of iterations: 1504 
    3900    23.261644      187           75          112 7.2076366e-14 1.0291587e-14          0.1 0.0090011779    1.6813639  0.029898035 
number of iterations: 1507 
    4000    23.478605      187           75          112 7.3031537e-14 1.032771e-14          0.1 0.0090011935    1.7364395  0.029898009 
number of iterations: 1510 
    4100    23.654523      187           75          112 7.3999366e-14 1.0364933e-14          0.1 0.0090012093    1.7922322  0.029897983 
number of iterations: 1496 
    4200    23.836545      187           75          112 7.4980021e-14 1.040326e-14          0.1 0.0090012253    1.8487518  0.029897956 
number of iterations: 1514 
    4300    24.004431      188           75          113 7.5973672e-14 1.0442694e-14          0.1 0.0090012415    1.9060078  0.029897929 
number of iterations: 1518 
    4400    24.186668      189           76          113 7.6980491e-14 1.0483239e-14          0.1 0.0090012579    1.9640105  0.029897902 
number of iterations: 1520 
    4500    24.355227      190           76          114 7.8000652e-14 1.0524899e-14          0.1 0.0090012746    2.0227701  0.029897874 
number of iterations: 1523 
    4600    24.538763      190           76          114 7.9034333e-14 1.0567679e-14          0.1 0.0090012915    2.0822968  0.029897846 
number of iterations: 1515 
    4700    24.734506      190           76          114 8.0081713e-14 1.0611585e-14          0.1 0.0090013085    2.1426014  0.029897817 
number of iterations: 1557 
    4800    24.921615      193           79          114 8.1142972e-14 1.0656621e-14          0.1 0.0090013259     2.203694  0.029897788 
number of iterations: 1558 
    4900    25.103552      195           80          115 8.2218296e-14 1.0702791e-14          0.1 0.0090013434    2.2655853  0.029897759 
number of iterations: 1535 
    5000    25.360428      196           80          116 8.330787e-14 1.0750102e-14          0.1 0.0090013612    2.3282862  0.029897729 
number of iterations: 1538 
    5100    25.542025      196           80          116 8.4411883e-14 1.0798557e-14          0.1 0.0090013792    2.3918077  0.029897699 
number of iterations: 1540 
    5200    25.747093      197           81          116 8.5530527e-14 1.0848162e-14          0.1 0.0090013975    2.4561607  0.029897669 
number of iterations: 1567 
    5300    25.922522      200           83          117 8.6663995e-14 1.0898925e-14          0.1  0.009001416    2.5213566  0.029897638 
number of iterations: 1546 
    5400    26.115101      203           84          119 8.7812484e-14 1.095085e-14          0.1 0.0090014347    2.5874064  0.029897607 
number of iterations: 1549 
    5500    26.329457      204           84          120 8.8976193e-14 1.1003944e-14          0.1 0.0090014537     2.654322  0.029897575 
number of iterations: 1550 
    5600    26.500099      209           86          123 9.0155324e-14 1.1058216e-14          0.1 0.0090014729     2.722115  0.029897543 
number of iterations: 1554 
    5700    26.685937      210           87          123 9.1350081e-14 1.111367e-14          0.1 0.0090014924    2.7907971   0.02989751 
number of iterations: 1557 
    5800    26.902284      210           87          123 9.2560671e-14 1.1170314e-14          0.1 0.0090015122    2.8603805  0.029897477 
number of iterations: 1560 
    5900    27.100548      211           88          123 9.3787304e-14 1.1228157e-14          0.1 0.0090015322    2.9308774  0.029897444 
number of iterations: 1558 
    6000    27.305544      213           89          124 9.5030192e-14 1.1287204e-14          0.1 0.0090015525    3.0022998   0.02989741 
number of iterations: 1539 
    6100    27.512712      217           92          125 9.6289552e-14 1.1347466e-14          0.1 0.0090015673    3.0746603  0.029897385 
number of iterations: 1590 
    6200    27.692019      219           94          125 9.7565601e-14 1.1408952e-14          0.1  0.009001588    3.1479714  0.029897351 
number of iterations: 1582 
    6300    27.872307      221           96          125 9.885856e-14 1.1471668e-14          0.1 0.0090016091    3.2222459  0.029897316 
number of iterations: 1574 
    6400    28.039565      224           97          127 1.0016865e-13 1.1535621e-14          0.1 0.0090016304    3.2974967   0.02989728 
number of iterations: 1576 
    6500    28.223427      225           98          127 1.0149611e-13 1.1600822e-14          0.1  0.009001652    3.3737369  0.029897244 
number of iterations: 1590 
    6600    28.409559      226           99          127 1.0284116e-13 1.1667281e-14          0.1 0.0090016738    3.4509799  0.029897207 
number of iterations: 1589 
    6700    28.669854      227          100          127 1.0420403e-13 1.1735005e-14          0.1  0.009001696    3.5292391   0.02989717 
number of iterations: 1585 
    6800    28.860747      229          101          128 1.0558496e-13 1.1804004e-14          0.1 0.0090017185    3.6085282  0.029897133 
number of iterations: 1631 
    6900    29.045472      232          104          128 1.0698419e-13 1.1874289e-14          0.1 0.0090017396    3.6888613  0.029897098 
number of iterations: 1599 
    7000    29.231824      235          106          129 1.0840197e-13 1.194587e-14          0.1 0.0090017637    3.7702521  0.029897058 
number of iterations: 1639 
    7100    29.497141      236          107          129 1.0983854e-13 1.2018756e-14          0.1 0.0090017883    3.8527144  0.029897016 
number of iterations: 1593 
    7200    29.697625      239          110          129 1.1129414e-13 1.2092957e-14          0.1 0.0090018064    3.9362628  0.029896986 
number of iterations: 1597 
    7300    29.866967      240          111          129 1.1276903e-13 1.2168484e-14          0.1 0.0090018304     4.020912  0.029896946 
number of iterations: 1600 
    7400    30.052454      242          111          131 1.1426347e-13 1.2245349e-14          0.1 0.0090018546    4.1066766  0.029896906 
number of iterations: 1522 
    7500    30.229389      245          114          131 1.1577771e-13 1.2323564e-14          0.1 0.0090018726    4.1935717  0.029896876 
number of iterations: 1599 
    7600    30.441437      248          116          132 1.1731202e-13 1.240314e-14          0.1 0.0090018963    4.2816122  0.029896836 
number of iterations: 1676 
    7700    30.645449      251          118          133 1.1886666e-13 1.2484086e-14          0.1 0.0090019264    4.3708134  0.029896786 
number of iterations: 1611 
    7800    30.838851      254          121          133 1.2044191e-13 1.2566418e-14          0.1 0.0090019519    4.4611911  0.029896743 
number of iterations: 1541 
    7900    31.017162      259          125          134 1.2203803e-13 1.2650145e-14          0.1  0.009001973    4.5527606  0.029896708 
number of iterations: 1614 
    8000     31.19939      261          127          134 1.236553e-13 1.2735279e-14          0.1 0.0090019991    4.6455381  0.029896664 
number of iterations: 1669 
    8100    31.381467      265          131          134 1.2529401e-13 1.2821834e-14          0.1 0.0090020309    4.7395396  0.029896611 
number of iterations: 1639 
    8200    31.556489      268          133          135 1.2695443e-13 1.2909824e-14          0.1  0.009002059    4.8347819  0.029896565 
number of iterations: 1622 
    8300    31.744109      268          133          135 1.2863685e-13 1.2999262e-14          0.1 0.0090020862    4.9312812  0.029896519 
number of iterations: 1635 
    8400    31.924028      271          135          136 1.3034157e-13 1.309016e-14          0.1 0.0090021139    5.0290542  0.029896473 
number of iterations: 1628 
    8500     32.12337      273          135          138 1.3206889e-13 1.3182532e-14          0.1 0.0090021419     5.128118  0.029896426 
number of iterations: 1631 
    8600    32.334383      273          135          138 1.3381909e-13 1.3276393e-14          0.1 0.0090021702    5.2284899  0.029896379 
number of iterations: 1630 
    8700    32.540019      274          136          138 1.3559249e-13 1.3371757e-14          0.1 0.0090021977    5.3301874  0.029896333 
number of iterations: 1636 
    8800     32.72219      276          136          140 1.3738939e-13 1.346864e-14          0.1 0.0090022268     5.433228  0.029896284 
number of iterations: 1595 
    8900    32.893467      283          139          144 1.392101e-13 1.3567056e-14          0.1 0.0090022528    5.5376295  0.029896241 
number of iterations: 1665 
    9000    33.080072      284          140          144 1.4105494e-13 1.3667019e-14          0.1 0.0090022863    5.6434106  0.029896185 
number of iterations: 1729 
    9100    33.291367      289          145          144 1.4292423e-13 1.3768544e-14          0.1  0.009002319    5.7505893  0.029896131 
number of iterations: 1689 
    9200      33.4805      293          147          146 1.4481829e-13 1.3871647e-14          0.1 0.0090023526    5.8591844  0.029896075 
number of iterations: 1650 
    9300    33.657952      294          148          146 1.4673745e-13 1.3976344e-14          0.1 0.0090023838    5.9692146  0.029896023 
number of iterations: 1653 
    9400    33.856462      294          148          146 1.4868204e-13 1.408265e-14          0.1 0.0090024154    6.0806992   0.02989597 
number of iterations: 1618 
    9500    34.039921      299          153          146 1.506524e-13 1.4190582e-14          0.1 0.0090024409    6.1936571  0.029895927 
number of iterations: 1657 
    9600    34.254354      299          153          146 1.5264888e-13 1.4300157e-14          0.1 0.0090024732    6.3081082  0.029895873 
number of iterations: 1629 
    9700     34.44516      303          155          148 1.5467181e-13 1.4411392e-14          0.1 0.0090025026    6.4240727  0.029895824 
number of iterations: 1647 
    9800    34.638515      304          156          148 1.5672155e-13 1.4524304e-14          0.1 0.0090025313    6.5415703  0.029895776 
number of iterations: 1665 
    9900    34.824568      307          156          151 1.5879846e-13 1.4638912e-14          0.1 0.0090025648    6.6606218   0.02989572 
number of iterations: 1634 
   10000    35.017286      311          158          153 1.6090289e-13 1.4755234e-14          0.1 0.0090025897    6.7812479  0.029895679 
number of iterations: 1691 
   10100    35.216996      315          159          156 1.630352e-13 1.4873286e-14          0.1 0.0090026286    6.9034696  0.029895614 
number of iterations: 1675 
   10200    35.450199      318          161          157 1.6519578e-13 1.4993088e-14          0.1 0.0090026619    7.0273084  0.029895558 
number of iterations: 1672 
   10300    35.712582      322          163          159 1.6738498e-13 1.5114655e-14          0.1 0.0090026931    7.1527855  0.029895506 
number of iterations: 1521 
   10400    35.884646      328          167          161 1.696032e-13 1.5238009e-14          0.1 0.0090027078    7.2799229  0.029895482 
number of iterations: 1678 
   10500    36.071859      329          167          162 1.7185082e-13 1.5363169e-14          0.1 0.0090027437    7.4087425  0.029895422 
number of iterations: 1641 
   10600    36.246561      335          171          164 1.7412822e-13 1.5490153e-14          0.1 0.0090027804    7.5392661  0.029895361 
number of iterations: 1733 
   10700     36.44385      339          175          164 1.764358e-13 1.5618984e-14          0.1 0.0090028209     7.671517  0.029895293 
number of iterations: 1639 
   10800    36.637633      342          177          165 1.7877396e-13 1.574968e-14          0.1 0.0090028547    7.8055183  0.029895236 
number of iterations: 1689 
   10900    36.827465      343          177          166 1.8114311e-13 1.5882263e-14          0.1 0.0090028939    7.9412931  0.029895171 
number of iterations: 1683 
   11000    37.023768      345          179          166 1.8354365e-13 1.6016752e-14          0.1 0.0090029323    8.0788654  0.029895107 
number of iterations: 1640 
   11100    37.240551      351          183          168 1.8597601e-13 1.6153167e-14          0.1  0.009002962    8.2182588  0.029895058 
number of iterations: 1696 
   11200    37.420974      357          185          172 1.884406e-13 1.6291531e-14          0.1 0.0090030024    8.3594975   0.02989499 
number of iterations: 1704 
   11300    37.628021      360          186          174 1.9093785e-13 1.6431866e-14          0.1 0.0090030428     8.502606  0.029894923 
number of iterations: 1716 
   11400    37.804044      362          187          175 1.9346819e-13 1.6574192e-14          0.1 0.0090030845    8.6476092  0.029894853 
number of iterations: 1713 
   11500    37.994582      366          190          176 1.9603207e-13 1.6718534e-14          0.1 0.0090031187    8.7945325  0.029894796 
number of iterations: 1703 
   11600    38.176146      374          194          180 1.9862992e-13 1.6864912e-14          0.1 0.0090031533    8.9434013  0.029894738 
number of iterations: 1684 
   11700    38.356636      376          195          181 2.0126221e-13 1.7013351e-14          0.1 0.0090031917    9.0942415  0.029894674 
number of iterations: 1799 
   11800    38.629298      378          196          182 2.0392937e-13 1.7163874e-14          0.1 0.0090032378    9.2470792  0.029894597 
number of iterations: 1824 
   11900    38.831601      388          202          186 2.0663188e-13 1.7316504e-14          0.1 0.0090032928     9.401941  0.029894506 
number of iterations: 1699 
   12000    39.020468      392          205          187 2.0937021e-13 1.7471266e-14          0.1 0.0090033298     9.558854  0.029894444 
number of iterations: 1780 
   12100    39.223352      398          210          188 2.1214482e-13 1.7628185e-14          0.1 0.0090033822    9.7178452  0.029894356 
number of iterations: 1728 
   12200    39.404221      401          211          190 2.149562e-13 1.7787285e-14          0.1 0.0090034175    9.8789421  0.029894297 
number of iterations: 1862 
   12300     39.60794      406          215          191 2.1780484e-13 1.7948591e-14          0.1 0.0090034723    10.042173  0.029894206 
number of iterations: 1732 
   12400    39.801355      409          216          193 2.2069124e-13 1.8112128e-14          0.1 0.0090035184    10.207566  0.029894129 
number of iterations: 1795 
   12500    39.991085      416          221          195 2.2361588e-13 1.8277922e-14          0.1 0.0090035666     10.37515  0.029894049 
number of iterations: 1763 
   12600     40.17752      420          225          195 2.2657928e-13 1.8446001e-14          0.1 0.0090036207    10.544954  0.029893959 
number of iterations: 1725 
   12700    40.352171      427          228          199 2.2958195e-13 1.8616389e-14          0.1 0.0090036657    10.717008  0.029893883 
number of iterations: 1797 
   12800    40.547246      431          230          201 2.3262441e-13 1.8789115e-14          0.1 0.0090037017    10.891342  0.029893823 
number of iterations: 1785 
   12900    40.735461      435          232          203 2.3570719e-13 1.8964205e-14          0.1  0.009003757    11.067985  0.029893731 
number of iterations: 1757 
   13000    40.925209      440          235          205 2.3883083e-13 1.9141687e-14          0.1 0.0090038144    11.246968  0.029893635 
number of iterations: 1769 
   13100    41.137769      443          238          205 2.4199586e-13 1.9321589e-14          0.1 0.0090038713    11.428323   0.02989354 
number of iterations: 1802 
   13200    41.328339      449          243          206 2.4520283e-13 1.950394e-14          0.1 0.0090039163    11.612081  0.029893465 
number of iterations: 1786 
   13300    41.532877      454          246          208 2.4845231e-13 1.9688766e-14          0.1 0.0090039615    11.798274   0.02989339 
number of iterations: 1729 
   13400    41.711359      459          250          209 2.5174484e-13 1.9876099e-14          0.1 0.0090040093    11.986935   0.02989331 
number of iterations: 1814 
   13500    41.915686      464          252          212 2.5508101e-13 2.0065968e-14          0.1 0.0090040775    12.178096  0.029893196 
number of iterations: 1803 
   13600    42.126305      472          257          215 2.5846139e-13 2.0258401e-14          0.1 0.0090041401     12.37179  0.029893092 
number of iterations: 1844 
   13700    42.331236      481          263          218 2.6188657e-13 2.045343e-14          0.1 0.0090042044    12.568052  0.029892985 
number of iterations: 1773 
   13800    42.540329      487          265          222 2.6535714e-13 2.0651087e-14          0.1 0.0090042613    12.766914   0.02989289 
number of iterations: 1780 
   13900    42.738369      496          271          225 2.688737e-13 2.0851401e-14          0.1 0.0090043192    12.968412  0.029892793 
number of iterations: 1803 
   14000    42.941845      501          275          226 2.7243686e-13 2.1054407e-14          0.1  0.009004385    13.172581  0.029892683 
number of iterations: 1782 
   14100    43.147125      506          276          230 2.7604724e-13 2.1260135e-14          0.1 0.0090044431    13.379456  0.029892586 
number of iterations: 1839 
   14200     43.36343      514          280          234 2.7970547e-13 2.1468618e-14          0.1 0.0090045084    13.589073  0.029892477 
number of iterations: 1733 
   14300    43.546668      517          283          234 2.8341218e-13 2.1679891e-14          0.1 0.0090045549     13.80147    0.0298924 
number of iterations: 1813 
   14400    43.746467      522          285          237 2.8716801e-13 2.1893986e-14          0.1 0.0090046148    14.016682    0.0298923 
number of iterations: 1797 
   14500    43.950288      525          287          238 2.9097361e-13 2.2110936e-14          0.1 0.0090046771    14.234746  0.029892196 
number of iterations: 1783 
   14600     44.15279      530          290          240 2.9482964e-13 2.2330777e-14          0.1 0.0090047381    14.455702  0.029892094 
number of iterations: 1739 
   14700    44.350755      538          294          244 2.9873678e-13 2.2553542e-14          0.1 0.0090047859    14.679587  0.029892014 
number of iterations: 1804 
   14800    44.562551      544          297          247 3.0269569e-13 2.2779266e-14          0.1 0.0090048465    14.906439  0.029891913 
number of iterations: 1875 
   14900    44.765229      555          303          252 3.0670707e-13 2.3007987e-14          0.1 0.0090049146    15.136298    0.0298918 
number of iterations: 1837 
   15000    44.998635      560          307          253 3.107716e-13 2.323974e-14          0.1  0.009004986    15.369205   0.02989168 
number of iterations: 1837 
   15100    45.209204      567          313          254   3.1489e-13 2.3474561e-14          0.1 0.0090050522    15.605199   0.02989157 
number of iterations: 1777 
   15200    45.448838      573          317          256 3.1906298e-13 2.3712489e-14          0.1 0.0090051079    15.844322  0.029891477 
number of iterations: 1865 
   15300    45.661272      581          322          259 3.2329126e-13 2.3953559e-14          0.1 0.0090051847    16.086615  0.029891349 
number of iterations: 1804 
   15400    45.865747      590          327          263 3.2757557e-13 2.419781e-14          0.1 0.0090052634    16.332121  0.029891218 
number of iterations: 1842 
   15500    46.062988      594          331          263 3.3191666e-13 2.4445283e-14          0.1 0.0090053297    16.580882  0.029891107 
number of iterations: 1852 
   15600    46.258197      598          334          264 3.3631527e-13 2.4696015e-14          0.1 0.0090054064    16.832941  0.029890979 
number of iterations: 1817 
   15700    46.469428      600          336          264 3.4077218e-13 2.4950046e-14          0.1 0.0090054789    17.088343  0.029890858 
number of iterations: 1839 
   15800    46.681252      605          339          266 3.4528815e-13 2.5207416e-14          0.1 0.0090055516     17.34713  0.029890737 
number of iterations: 1830 
   15900    46.877497      607          341          266 3.4986397e-13 2.5468168e-14          0.1 0.0090056278    17.609349   0.02989061 
number of iterations: 1833 
   16000    47.086382      614          348          266 3.5450043e-13 2.5732342e-14          0.1 0.0090057046    17.875045  0.029890482 
number of iterations: 1852 
   16100    47.277853      619          351          268 3.5919833e-13 2.599998e-14          0.1 0.0090057819    18.144263  0.029890353 
number of iterations: 1910 
   16200    47.483027      628          355          273 3.6395849e-13 2.6271123e-14          0.1 0.0090058667    18.417051  0.029890211 
number of iterations: 1862 
   16300    47.689336      635          360          275 3.6878172e-13 2.6545815e-14          0.1 0.0090059449    18.693457  0.029890081 
number of iterations: 1922 
   16400    47.882561      649          369          280 3.7366888e-13 2.6824101e-14          0.1 0.0090060224    18.973528  0.029889951 
number of iterations: 1861 
   16500    48.094095      656          374          282 3.786208e-13 2.7106025e-14          0.1 0.0090061026    19.257313  0.029889818 
number of iterations: 1795 
   16600    48.283611      669          382          287 3.8363835e-13 2.7391631e-14          0.1  0.009006168    19.544862  0.029889708 
number of iterations: 1829 
   16700    48.467573      674          384          290 3.8872239e-13 2.7680962e-14          0.1 0.0090062494    19.836225  0.029889573 
number of iterations: 1844 
   16800    48.693317      684          392          292 3.938738e-13 2.7974065e-14          0.1 0.0090063263    20.131451  0.029889444 
number of iterations: 1901 
   16900    48.913273      694          395          299 3.9909348e-13 2.8270989e-14          0.1 0.0090064083    20.430593  0.029889307 
number of iterations: 1837 
   17000    49.127481      700          397          303 4.0438234e-13 2.857178e-14          0.1 0.0090064833    20.733703  0.029889182 
number of iterations: 1855 
   17100    49.321316      708          402          306 4.0974128e-13 2.8876484e-14          0.1 0.0090065664    21.040832  0.029889044 
number of iterations: 1881 
   17200    49.533846      714          406          308 4.1517124e-13 2.9185152e-14          0.1 0.0090066569    21.352034  0.029888893 
number of iterations: 1856 
   17300    49.756953      727          415          312 4.2067315e-13 2.9497833e-14          0.1 0.0090067323    21.667364  0.029888767 
number of iterations: 1904 
   17400     49.96962      734          419          315 4.2624798e-13 2.9814576e-14          0.1  0.009006831    21.986875  0.029888602 
number of iterations: 1889 
   17500    50.163654      744          424          320 4.3189669e-13 3.0135431e-14          0.1 0.0090069243    22.310625  0.029888447 
number of iterations: 1869 
   17600     50.37823      749          428          321 4.3762025e-13 3.0460449e-14          0.1 0.0090070169    22.638667  0.029888292 
number of iterations: 1846 
   17700    50.596303      753          430          323 4.4341966e-13 3.0789681e-14          0.1 0.0090071056     22.97106  0.029888144 
number of iterations: 1906 
   17800    50.817917      763          435          328 4.4929593e-13 3.1123179e-14          0.1 0.0090072057    23.307862  0.029887977 
number of iterations: 1822 
   17900    51.029393      771          441          330 4.5525007e-13 3.1460998e-14          0.1 0.0090072834     23.64913  0.029887847 
number of iterations: 1940 
   18000    51.243761      780          449          331 4.6128312e-13 3.1803189e-14          0.1 0.0090073863    23.994925  0.029887676 
number of iterations: 1891 
   18100    51.441494      794          458          336 4.6739611e-13 3.2149806e-14          0.1 0.0090074756    24.345306  0.029887527 
number of iterations: 1898 
   18200    51.644415      804          463          341 4.7359012e-13 3.2500907e-14          0.1 0.0090075846    24.700334  0.029887345 
number of iterations: 1904 
   18300    51.862443      821          475          346 4.7986621e-13 3.2856545e-14          0.1 0.0090076866    25.060069  0.029887175 
number of iterations: 1923 
   18400    52.071656      834          481          353 4.8622547e-13 3.3216778e-14          0.1  0.009007799    25.424576  0.029886987 
number of iterations: 1877 
   18500    52.274641      840          484          356  4.92669e-13 3.3581662e-14          0.1 0.0090078927    25.793919  0.029886831 
number of iterations: 1846 
   18600    52.476497      849          487          362 4.9919793e-13 3.3951254e-14          0.1 0.0090079809     26.16816  0.029886684 
number of iterations: 1924 
   18700    52.696266      862          495          367 5.0581338e-13 3.4325616e-14          0.1   0.00900808    26.547365  0.029886518 
number of iterations: 1917 
   18800    52.887491      871          501          370 5.1251649e-13 3.4704803e-14          0.1 0.0090081902      26.9316  0.029886335 
number of iterations: 1878 
   18900     53.09362      888          510          378 5.1930844e-13 3.5088878e-14          0.1 0.0090082897    27.320931  0.029886168 
number of iterations: 1966 
   19000    53.299592      896          516          380 5.2619039e-13 3.5477902e-14          0.1 0.0090084111    27.715427  0.029885966 
number of iterations: 1921 
   19100    53.506594      907          527          380 5.3316354e-13 3.5871935e-14          0.1  0.009008516    28.115154  0.029885791 
number of iterations: 1989 
   19200    53.715207      919          534          385 5.4022911e-13 3.6271043e-14          0.1 0.0090086334    28.520185  0.029885595 
number of iterations: 1969 
   19300     53.91575      932          544          388 5.473883e-13 3.6675286e-14          0.1 0.0090087571    28.930588  0.029885389 
number of iterations: 1934 
   19400    54.105979      946          554          392 5.5464237e-13 3.708473e-14          0.1 0.0090088883    29.346435   0.02988517 
number of iterations: 1962 
   19500    54.313339      959          564          395 5.6199257e-13 3.749944e-14          0.1 0.0090090139    29.767797   0.02988496 
number of iterations: 1904 
   19600    54.518661      970          570          400 5.6944018e-13 3.7919479e-14          0.1  0.009009121    30.194749  0.029884782 
number of iterations: 1982 
   19700    54.723537      979          577          402 5.7698648e-13 3.8344916e-14          0.1 0.0090092512    30.627364  0.029884565 
number of iterations: 1925 
   19800    54.942254      992          587          405 5.8463279e-13 3.877582e-14          0.1 0.0090093752    31.065719  0.029884358 
number of iterations: 1954 
   19900    55.178724     1004          595          409 5.9238043e-13 3.9212256e-14          0.1 0.0090095054    31.509887  0.029884141 
number of iterations: 1968 
   20000    55.500475     1017          601          416 6.0023073e-13 3.9654295e-14          0.1 0.0090096333    31.959946  0.029883927 
number of iterations: 1921 
   20100    55.730916     1027          605          422 6.0818508e-13 4.0102008e-14          0.1 0.0090097492    32.415976  0.029883734 
number of iterations: 2006 
   20200    55.943135     1038          609          429 6.1624483e-13 4.0555464e-14          0.1 0.0090099032    32.878054  0.029883477 
number of iterations: 1992 
   20300    56.146532     1056          618          438 6.2441139e-13 4.1014736e-14          0.1 0.0090100568    33.346262  0.029883221 
number of iterations: 1979 
   20400    56.366268     1069          623          446 6.3268617e-13 4.1479897e-14          0.1 0.0090102036    33.820682  0.029882976 
number of iterations: 1961 
   20500    56.578765     1087          632          455 6.4107061e-13 4.1951019e-14          0.1 0.0090103334    34.301393  0.029882759 
number of iterations: 1973 
   20600    56.790597     1097          640          457 6.4956617e-13 4.2428178e-14          0.1  0.009010459    34.788481   0.02988255 
number of iterations: 1925 
   20700    57.005778     1112          647          465 6.581743e-13 4.291145e-14          0.1 0.0090105907     35.28203   0.02988233 
number of iterations: 2013 
   20800    57.226749     1128          658          470 6.6689652e-13 4.3400911e-14          0.1 0.0090107401    35.782126  0.029882081 
number of iterations: 1967 
   20900    57.444327     1137          665          472 6.7573432e-13 4.3896638e-14          0.1 0.0090108777    36.288856  0.029881851 
number of iterations: 1967 
   21000    57.647912     1146          670          476 6.8468924e-13 4.4398711e-14          0.1 0.0090110185    36.802308  0.029881616 
number of iterations: 1975 
   21100    57.869263     1162          676          486 6.9376282e-13 4.4907209e-14          0.1 0.0090111633     37.32257  0.029881375 
number of iterations: 1988 
   21200    58.097273     1178          687          491 7.0295666e-13 4.5422211e-14          0.1  0.009011308    37.849733  0.029881133 
number of iterations: 1978 
   21300    58.316613     1199          697          502 7.1227233e-13 4.5943801e-14          0.1 0.0090114541     38.38389   0.02988089 
number of iterations: 1981 
   21400    58.545014     1211          705          506 7.2171145e-13 4.6472061e-14          0.1 0.0090116057    38.925133  0.029880637 
number of iterations: 1977 
   21500    58.760911     1229          719          510 7.3127566e-13 4.7007074e-14          0.1 0.0090117644    39.473555  0.029880372 
number of iterations: 2002 
   21600    58.979568     1244          728          516 7.4096661e-13 4.7548926e-14          0.1 0.0090119325    40.029253  0.029880091 
number of iterations: 1982 
   21700    59.241432     1259          736          523  7.50786e-13 4.8097702e-14          0.1 0.0090120911    40.592322  0.029879827 
number of iterations: 1986 
   21800    59.459799     1277          748          529 7.607355e-13 4.865349e-14          0.1 0.0090122423    41.162859  0.029879575 
number of iterations: 1932 
   21900    59.672944     1291          758          533 7.6961421e-13 4.9216377e-14          0.1 0.0090123834    41.740041  0.029879339 
number of iterations: 2026 
   22000    59.892943     1307          770          537 7.7981323e-13 4.9786454e-14          0.1 0.0090125499     42.32488  0.029879061 
number of iterations: 2029 
   22100    60.121623     1329          782          547 7.9014741e-13 5.0363808e-14          0.1 0.0090127322    42.917478  0.029878757 
number of iterations: 1971 
   22200     60.33606     1342          791          551 8.0061854e-13 5.0948533e-14          0.1 0.0090128696    43.517938  0.029878528 
number of iterations: 1993 
   22300    60.547411     1349          796          553 8.1122843e-13 5.1540721e-14          0.1   0.00901303    44.126364   0.02987826 
number of iterations: 2013 
   22400    60.771962     1361          807          554 8.2197892e-13 5.2140465e-14          0.1 0.0090131848     44.74286  0.029878002 
number of iterations: 2019 
   22500    60.999693     1370          812          558 8.3287188e-13 5.274786e-14          0.1 0.0090133605    45.367535  0.029877709 
number of iterations: 2044 
   22600    61.205404     1387          823          564 8.4390919e-13 5.3363003e-14          0.1 0.0090135423    46.000496  0.029877406 
number of iterations: 2038 
   22700    61.432119     1407          837          570 8.5509277e-13 5.398599e-14          0.1 0.0090137252    46.641852  0.029877101 
number of iterations: 1988 
   22800    61.658156     1430          854          576 8.6642455e-13 5.461692e-14          0.1 0.0090139102    47.291717  0.029876792 
number of iterations: 2039 
   22900    61.900335     1449          866          583 8.7790651e-13 5.5255894e-14          0.1 0.0090141136    47.950203  0.029876453 
number of iterations: 2028 
   23000    62.113804     1463          872          591 8.8954062e-13 5.5903012e-14          0.1 0.0090142864    48.617425  0.029876165 
number of iterations: 2012 
   23100    62.331504     1480          884          596 9.0132891e-13 5.6558379e-14          0.1 0.0090144644    49.293498  0.029875868 
number of iterations: 1989 
   23200    62.537179     1498          899          599 9.1327341e-13 5.7222097e-14          0.1 0.0090146392     49.97854  0.029875576 
number of iterations: 2053 
   23300    62.777385     1517          912          605 9.2537621e-13 5.7894272e-14          0.1 0.0090148337    50.672671  0.029875251 
number of iterations: 2048 
   23400    63.004559     1538          924          614 9.3763939e-13 5.8575012e-14          0.1 0.0090150307    51.376009  0.029874923 
number of iterations: 2027 
   23500    63.281592     1558          935          623 9.5006509e-13 5.9264421e-14          0.1  0.009015216    52.088677  0.029874614 
number of iterations: 2084 
   23600    63.509638     1572          944          628 9.6265544e-13 5.9962611e-14          0.1 0.0090154416    52.810798  0.029874237 
number of iterations: 2050 
   23700     63.73475     1592          955          637 9.7541265e-13 6.0669693e-14          0.1 0.0090156496    53.542499   0.02987389 
number of iterations: 2055 
   23800    63.965361     1617          973          644 9.8833892e-13 6.1385778e-14          0.1  0.009015852    54.283908  0.029873553 
number of iterations: 2055 
   23900    64.190067     1628          981          647 1.0014365e-12 6.211098e-14          0.1 0.0090160465    55.035152  0.029873228 
number of iterations: 2046 
   24000    64.415642     1652          995          657 1.0147076e-12 6.2845414e-14          0.1 0.0090162575    55.796362  0.029872876 
number of iterations: 2070 
   24100    64.651989     1675         1013          662 1.0281546e-12 6.3589194e-14          0.1 0.0090164803    56.567669  0.029872505 
number of iterations: 2061 
   24200    64.883295     1695         1022          673 1.0417798e-12 6.4342438e-14          0.1 0.0090166874    57.349209  0.029872159 
number of iterations: 2063 
   24300    65.110398     1721         1042          679 1.0555856e-12 6.5105267e-14          0.1  0.009016928    58.141115  0.029871758 
number of iterations: 2081 
   24400    65.417905     1738         1053          685 1.0695743e-12 6.5877802e-14          0.1  0.009017148    58.943527  0.029871391 
number of iterations: 2067 
   24500     65.69063     1761         1066          695 1.0824904e-12 6.6660164e-14          0.1 0.0090173449     59.75562  0.029871062 
number of iterations: 2093 
   24600    65.925829     1792         1083          709 1.0968357e-12 6.7452479e-14          0.1 0.0090175876    60.578487  0.029870657 
number of iterations: 2046 
   24700    66.150238     1811         1097          714 1.1113711e-12 6.825487e-14          0.1 0.0090178007    61.412269  0.029870302 
number of iterations: 2120 
   24800    66.377355     1838         1110          728 1.126099e-12 6.9067464e-14          0.1 0.0090180557    62.257111  0.029869876 
number of iterations: 2077 
   24900    66.596337     1866         1128          738 1.1410222e-12 6.9890393e-14          0.1 0.0090182911    63.113161  0.029869484 
number of iterations: 2063 
   25000    66.830225     1895         1147          748 1.1561431e-12 7.0723784e-14          0.1 0.0090185257    63.980568  0.029869092 
number of iterations: 2091 
   25100      67.0602     1926         1166          760 1.1714644e-12 7.156777e-14          0.1 0.0090187656    64.859483  0.029868692 
number of iterations: 2093 
   25200    67.286807     1949         1178          771 1.1869888e-12 7.2337213e-14          0.1 0.0090190129    65.750082   0.02986828 
number of iterations: 2107 
   25300    67.537167     1981         1198          783 1.2027188e-12 7.3201772e-14          0.1 0.0090192881    66.652494  0.029867821 
number of iterations: 2063 
   25400    67.754372     2002         1209          793 1.2186573e-12 7.407732e-14          0.1 0.0090195297    67.566878  0.029867418 
number of iterations: 2103 
   25500    67.984512     2018         1217          801 1.2348071e-12 7.4963995e-14          0.1 0.0090198023     68.49339  0.029866963 
number of iterations: 2126 
   25600    68.205201     2040         1232          808 1.2511708e-12 7.5861937e-14          0.1 0.0090200831    69.432194  0.029866494 
number of iterations: 2112 
   25700     68.46342     2068         1252          816 1.2677514e-12 7.6771289e-14          0.1 0.0090203706     70.38345  0.029866015 
number of iterations: 2093 
   25800    68.727679     2093         1266          827 1.2845518e-12 7.7692195e-14          0.1 0.0090206243    71.347325  0.029865592 
number of iterations: 2107 
   25900    68.947159     2122         1287          835 1.3015747e-12  7.86248e-14          0.1 0.0090209114    72.323988  0.029865113 
number of iterations: 2109 
   26000     69.16528     2146         1299          847 1.3188233e-12 7.9569252e-14          0.1 0.0090211869    73.313606  0.029864653 
number of iterations: 2138 
   26100    69.405986     2175         1316          859 1.3363004e-12 8.0525701e-14          0.1  0.009021487    74.316352  0.029864153 
number of iterations: 2109 
   26200     69.66243     2206         1333          873 1.3540092e-12 8.1494299e-14          0.1 0.0090217504    75.332401  0.029863713 
number of iterations: 2116 
   26300    69.890663     2234         1348          886 1.3706665e-12 8.2475199e-14          0.1 0.0090220277    76.360944  0.029863251 
number of iterations: 2130 
   26400    70.126256     2263         1367          896 1.3888306e-12 8.3468554e-14          0.1 0.0090223242     77.40313  0.029862756 
number of iterations: 2149 
   26500    70.352653     2295         1383          912 1.4072355e-12 8.4474522e-14          0.1 0.0090226461    78.459142  0.029862219 
number of iterations: 2143 
   26600    70.576443     2322         1401          921 1.4258842e-12 8.5493264e-14          0.1 0.0090229527    79.529162  0.029861708 
number of iterations: 2143 
   26700    70.803958     2350         1416          934 1.4447801e-12 8.6524942e-14          0.1   0.00902329    80.613376  0.029861145 
number of iterations: 2119 
   26800     71.05074     2387         1439          948 1.4625522e-12 8.7569716e-14          0.1 0.0090235514    81.710921  0.029860709 
number of iterations: 2084 
   26900    71.268426     2411         1453          958 1.4807995e-12 8.8627753e-14          0.1 0.0090238019    82.822156  0.029860291 
number of iterations: 2148 
   27000    71.539621     2435         1471          964 1.5004231e-12 8.9699221e-14          0.1 0.0090241453    83.948133  0.029859718 
number of iterations: 2126 
   27100    71.762854     2464         1493          971 1.5203068e-12 9.0710099e-14          0.1 0.0090244546    85.089068  0.029859202 
number of iterations: 2141 
   27200    72.017414     2493         1512          981 1.5404539e-12 9.1808041e-14          0.1 0.0090247768    86.245138  0.029858665 
number of iterations: 2153 
   27300    72.256502     2530         1537          993 1.5608681e-12 9.2919918e-14          0.1 0.0090251152    87.416544    0.0298581 
number of iterations: 2149 
   27400    72.509445     2558         1552         1006 1.5815528e-12 9.4045905e-14          0.1  0.009025422    88.603491  0.029857588 
number of iterations: 2125 
   27500    72.743305     2584         1567         1017 1.6013136e-12 9.5186178e-14          0.1 0.0090257392    89.805268  0.029857059 
number of iterations: 2158 
   27600    73.001673     2613         1589         1024 1.6225342e-12 9.6340921e-14          0.1 0.0090260636    91.022988  0.029856518 
number of iterations: 2092 
   27700    73.236044     2651         1613         1038 1.6428556e-12 9.7510315e-14          0.1  0.009026322    92.255956  0.029856086 
number of iterations: 2154 
   27800    73.955504     2683         1635         1048 1.6631921e-12 9.8694545e-14          0.1 0.0090266607    93.504182  0.029855521 
number of iterations: 2158 
   27900    74.214374     2714         1654         1060 1.6852328e-12 9.9893799e-14          0.1 0.0090270404    94.768964  0.029854888 
number of iterations: 2146 
   28000    74.460755     2751         1677         1074 1.7075655e-12 1.0110827e-13          0.1 0.0090273783    96.050527  0.029854324 
number of iterations: 2125 
   28100    74.686113     2802         1709         1093 1.7301942e-12 1.0233814e-13          0.1 0.0090277173     97.34909  0.029853759 
number of iterations: 2181 
   28200    74.931658     2835         1733         1102 1.7516843e-12 1.0358361e-13          0.1 0.0090280721    98.663778  0.029853167 
number of iterations: 2167 
   28300    75.174683     2867         1752         1115 1.7748977e-12 1.0484488e-13          0.1 0.0090284353    99.995906  0.029852561 
number of iterations: 2182 
   28400    75.454968     2898         1772         1126 1.7984186e-12 1.0612215e-13          0.1 0.0090288273    101.34571  0.029851907 
number of iterations: 2189 
   28500    75.721449     2936         1794         1142 1.821208e-12 1.0741561e-13          0.1 0.0090291811    102.71261  0.029851317 
number of iterations: 2181 
   28600    76.012039     2967         1817         1150 1.8453427e-12 1.0872548e-13          0.1 0.0090295456    104.09765  0.029850709 
number of iterations: 2173 
   28700    76.252111     3001         1839         1162 1.8697972e-12 1.1005196e-13          0.1 0.0090299387    105.50106  0.029850053 
number of iterations: 2161 
   28800    76.494371     3033         1858         1175 1.8945758e-12 1.1139527e-13          0.1 0.0090303384     106.9231  0.029849386 
number of iterations: 2169 
   28900    76.738853     3068         1882         1186 1.9185699e-12 1.1275561e-13          0.1 0.0090306792    108.36314  0.029848818 
number of iterations: 2177 
   29000    76.969835     3111         1913         1198 1.9439948e-12 1.1413319e-13          0.1 0.0090310395    109.82229  0.029848216 
number of iterations: 2180 
   29100    77.197945     3150         1940         1210 1.9697567e-12 1.1552825e-13          0.1 0.0090314419     111.3008  0.029847545 
number of iterations: 2190 
   29200       77.433     3199         1969         1230 1.9958599e-12 1.1694099e-13          0.1  0.009031848    112.79892  0.029846868 
number of iterations: 2191 
   29300    77.668529     3247         2000         1247 2.0181297e-12 1.1837164e-13          0.1 0.0090321919    114.31371  0.029846294 
number of iterations: 2214 
   29400    77.926415     3291         2027         1264 2.0437552e-12 1.1982044e-13          0.1 0.0090326489    115.84774  0.029845531 
number of iterations: 2236 
   29500    78.202429     3332         2058         1274 2.070839e-12 1.2128759e-13          0.1 0.0090331072    117.40212  0.029844767 
number of iterations: 2198 
   29600    78.448768     3367         2078         1289 2.0982817e-12 1.2263779e-13          0.1 0.0090335399    118.97717  0.029844045 
number of iterations: 2238 
   29700    78.732742     3412         2103         1309 2.1260881e-12 1.2402213e-13          0.1 0.0090340124    120.57314  0.029843257 
number of iterations: 2224 
   29800    79.001335     3451         2130         1321 2.154263e-12 1.2554266e-13          0.1 0.0090344602    122.19028   0.02984251 
number of iterations: 2201 
   29900    79.229855     3493         2150         1343 2.1804249e-12 1.2708245e-13          0.1 0.0090348632    123.82705  0.029841838 
number of iterations: 2237 
   30000     79.48526     3534         2179         1355 2.2093199e-12 1.2864177e-13          0.1  0.009035345    125.48553  0.029841034 
number of iterations: 2243 
   30100    79.738085     3568         2200         1368 2.2385978e-12 1.3022085e-13          0.1 0.0090358363    127.16601  0.029840215 
number of iterations: 2228 
   30200    80.008993     3624         2232         1392 2.2682636e-12 1.3181995e-13          0.1  0.009036311    128.86878  0.029839423 
number of iterations: 2234 
   30300    80.273815     3673         2268         1405 2.2983226e-12 1.3343931e-13          0.1 0.0090367813    130.59414  0.029838638 
number of iterations: 2231 
   30400    80.529146     3729         2296         1433 2.3287799e-12 1.3507919e-13          0.1  0.009037275    132.34239  0.029837815 
number of iterations: 2245 
   30500    80.775942     3777         2332         1445 2.3584089e-12 1.3673986e-13          0.1 0.0090377527    134.11289  0.029837018 
number of iterations: 2257 
   30600    81.074772     3815         2352         1463 2.3896625e-12 1.3842158e-13          0.1 0.0090382739    135.90688  0.029836148 
number of iterations: 2266 
   30700    81.342382     3877         2387         1490 2.4213302e-12 1.4012461e-13          0.1 0.0090387956    137.72466  0.029835278 
number of iterations: 2222 
   30800    81.618102     3921         2410         1511 2.4534175e-12 1.4184922e-13          0.1 0.0090393106    139.56656  0.029834419 
number of iterations: 2257 
   30900    81.877608     3968         2437         1531 2.4846462e-12 1.4359569e-13          0.1  0.009039857    141.43191  0.029833508 
number of iterations: 2245 
   31000    82.173807     4015         2467         1548 2.5175726e-12 1.4536429e-13          0.1 0.0090403542      143.322  0.029832679 
number of iterations: 2268 
   31100    82.426385     4079         2509         1570 2.5509353e-12 1.471553e-13          0.1  0.009040921    145.23717  0.029831733 
number of iterations: 2258 
   31200    82.712312     4150         2552         1598 2.5834575e-12  1.48969e-13          0.1 0.0090414569    147.17677  0.029830839 
number of iterations: 2247 
   31300    82.968634     4198         2582         1616 2.6162155e-12 1.5071348e-13          0.1 0.0090420377    149.14098  0.029829871 
number of iterations: 2276 
   31400    83.230164     4264         2619         1645 2.6499889e-12 1.525723e-13          0.1 0.0090426204    151.13057  0.029828899 
number of iterations: 2239 
   31500    83.506161     4307         2647         1660 2.683894e-12 1.5445468e-13          0.1 0.0090431503    153.14562  0.029828015 
number of iterations: 2269 
   31600    83.766864     4358         2677         1681 2.7194608e-12 1.5636091e-13          0.1 0.0090437151     155.1874  0.029827073 
number of iterations: 2256 
   31700    84.032717     4409         2712         1697 2.7554989e-12 1.5829129e-13          0.1 0.0090442502    157.25627   0.02982618 
number of iterations: 2284 
   31800    84.295713     4473         2756         1717 2.7897577e-12 1.6024613e-13          0.1 0.0090448438    159.35086   0.02982519 
number of iterations: 2268 
   31900    84.546203     4519         2782         1737 2.8255976e-12 1.6208797e-13          0.1 0.0090454675     161.4724   0.02982415 
number of iterations: 2278 
   32000    84.801383     4575         2819         1756 2.8605135e-12 1.6409095e-13          0.1 0.0090460383    163.62016  0.029823198 
number of iterations: 2272 
   32100    85.061651     4624         2849         1775 2.8973534e-12 1.6611932e-13          0.1 0.0090466465     165.7956  0.029822183 
number of iterations: 2279 
   32200    85.340475     4680         2883         1797 2.9343717e-12 1.6807434e-13          0.1 0.0090472608    167.99887  0.029821158 
number of iterations: 2273 
   32300    85.605335     4744         2931         1813 2.9711717e-12 1.701532e-13          0.1 0.0090478377    170.22977  0.029820196 
number of iterations: 2284 
   32400    85.966411     4784         2956         1828 3.0093633e-12 1.722584e-13          0.1 0.0090484327    172.48937  0.029819203 
number of iterations: 2308 
   32500    86.237439     4833         2983         1850 3.0492431e-12 1.7439027e-13          0.1 0.0090490951    174.77894  0.029818098 
number of iterations: 2299 
   32600    86.492382     4903         3029         1874 3.0873164e-12 1.7654915e-13          0.1 0.0090497181     177.0971  0.029817059 
number of iterations: 2304 
   32700    86.749187     4969         3063         1906 3.126979e-12 1.7873538e-13          0.1 0.0090503746    179.44506  0.029815964 
number of iterations: 2306 
   32800    87.002941     5032         3105         1927 3.1684174e-12 1.809493e-13          0.1  0.009051022    181.82416  0.029814884 
number of iterations: 2285 
   32900    87.306202     5105         3143         1962 3.2084661e-12 1.8319127e-13          0.1 0.0090516543    184.23334  0.029813829 
number of iterations: 2326 
   33000     87.56694     5183         3199         1984 3.2509843e-12 1.8546164e-13          0.1 0.0090524028    186.67448  0.029812581 
number of iterations: 2278 
   33100    87.867126     5244         3239         2005 3.294066e-12 1.8776077e-13          0.1 0.0090530454    189.14801  0.029811509 
number of iterations: 2286 
   33200    88.111417     5318         3289         2029 3.3360199e-12 1.9008902e-13          0.1 0.0090537383    191.65306  0.029810353 
number of iterations: 2331 
   33300    88.407363     5376         3329         2047 3.3792867e-12 1.9244677e-13          0.1 0.0090544271    194.19061  0.029809204 
number of iterations: 2293 
   33400    88.737986     5445         3377         2068 3.4240686e-12 1.9475658e-13          0.1 0.0090550884    196.76185  0.029808101 
number of iterations: 2294 
   33500    89.004491     5516         3417         2099 3.468415e-12 1.9717347e-13          0.1 0.0090557269    199.36641  0.029807035 
number of iterations: 2334 
   33600    89.308532     5590         3457         2133 3.514378e-12 1.9952851e-13          0.1 0.0090564974    202.00555   0.02980575 
number of iterations: 2322 
   33700    89.567464     5654         3496         2158 3.5595414e-12 2.0200587e-13          0.1 0.0090572057    204.67862  0.029804569 
number of iterations: 2310 
   33800    89.892144     5723         3538         2185 3.6042007e-12 2.0451462e-13          0.1 0.0090579398    207.38523  0.029803344 
number of iterations: 2299 
   33900     90.19156     5790         3579         2211 3.649958e-12 2.0705514e-13          0.1 0.0090586601    210.12621  0.029802142 
number of iterations: 2337 
   34000     90.48669     5870         3635         2235 3.6969145e-12 2.0962785e-13          0.1 0.0090594573    212.90247  0.029800813 
number of iterations: 2342 
   34100    90.763339     5961         3700         2261 3.7459055e-12 2.1223315e-13          0.1 0.0090602313    215.71555  0.029799522 
number of iterations: 2325 
   34200    91.062692     6027         3745         2282 3.7955456e-12 2.1487145e-13          0.1 0.0090610469    218.56595  0.029798161 
number of iterations: 2328 
   34300    91.530771     6114         3802         2312 3.8404513e-12 2.1754317e-13          0.1 0.0090617554    221.45004  0.029796979 
number of iterations: 2325 
   34400     91.80507     6193         3855         2338 3.8883946e-12 2.2024873e-13          0.1 0.0090625606    224.37014  0.029795636 
number of iterations: 2325 
   34500    92.070763     6282         3915         2367 3.9376466e-12 2.2291125e-13          0.1 0.0090633224    227.32726  0.029794365 
number of iterations: 2341 
   34600    92.372742     6345         3956         2389 3.9898276e-12 2.2568482e-13          0.1 0.0090641632    230.32362  0.029792963 
number of iterations: 2362 
   34700    92.650665     6421         4002         2419 4.0427002e-12 2.2849352e-13          0.1 0.0090650063    233.35973  0.029791556 
number of iterations: 2314 
   34800    92.945346     6484         4040         2444 4.0908812e-12 2.313378e-13          0.1 0.0090658224    236.43198  0.029790195 
number of iterations: 2367 
   34900    93.248742     6567         4096         2471 4.1433983e-12 2.3421811e-13          0.1 0.0090667354     239.5437  0.029788672 
number of iterations: 2348 
   35000    93.580458     6643         4147         2496 4.1965168e-12 2.371349e-13          0.1 0.0090676109    242.69535  0.029787211 
Loop time of 93.5805 on 32 procs for 35000 steps with 6643 atoms

Performance: 323144251.896 tau/day, 374.010 timesteps/s
91.3% CPU use with 32 MPI tasks x no OpenMP threads

MPI task timing breakdown:
Section |  min time  |  avg time  |  max time  |%varavg| %total
---------------------------------------------------------------
Pair    | 0.042132   | 0.089261   | 0.22673    |  13.7 |  0.10
Neigh   | 0.013812   | 0.029059   | 0.06784    |   6.5 |  0.03
Comm    | 0.096162   | 0.18889    | 0.26483    |   9.6 |  0.20
Output  | 23.053     | 23.055     | 23.066     |   0.1 | 24.64
Modify  | 69.715     | 69.752     | 69.833     |   0.3 | 74.54
Other   |            | 0.4664     |            |       |  0.50

Nlocal:    207.594 ave 437 max 111 min
Histogram: 7 6 6 4 2 4 2 0 0 1
Nghost:    111.688 ave 186 max 38 min
Histogram: 2 2 2 9 0 5 4 4 2 2
Neighs:    815.094 ave 1872 max 380 min
Histogram: 8 2 9 5 5 1 0 1 0 1

Total # of neighbors = 26083
Ave neighs/atom = 3.92639
Neighbor list builds = 672
Dangerous builds = 0
Total wall time: 0:01:33
