LAMMPS (20 Nov 2019)
Reading data file ...
  orthogonal box = (0 0 0) to (0.0001 0.0001 1e-05)
  8 by 4 by 1 MPI processor grid
  reading atoms ...
  100 atoms
  4 nutrients
Lattice spacing in x,y,z = 100 100 100
50 atoms in group CYANO
50 atoms in group ECW
Model is defined as a closed system. 
Neighbor list info ...
  update every 1 steps, delay 0 steps, check yes
  max neighbors/atom: 5000, page size: 100000
  master list distance cutoff = 2.4e-06
  ghost atom cutoff = 2.4e-06
  binsize = 1.2e-06, bins = 84 84 9
  1 neighbor lists, perpetual/occasional/extra = 1 0 0
  (1) pair gran/hooke/history, perpetual
      attributes: half, newton off, size, history
      pair build: half/size/bin/newtoff
      stencil: half/bin/3d/newtoff
      bin: standard
Setting up Verlet run ...
  Unit style    : lj
  Current step  : 0
  Time step     : 10
Per MPI rank memory allocation (min/avg/max) = 5.794 | 10.58 | 12.11 Mbytes
Step CPU Atoms c_myNtypes[1] c_myNtypes[2] c_myMass[1] c_myMass[2] c_myCon[1] c_myCon[2] c_myCon[3] c_myCon[4] 
       0            0      100           50           50 4.442239e-14 9.1355036e-15          0.1        0.009     3.42e-20       0.0299 
number of iterations: 320851 
     100    15.527743      134           50           84 4.5011085e-14 9.1333403e-15          0.1 0.0090007733  0.035675854  0.029898712 
number of iterations: 4588 
     200    15.911999      144           50           94 4.5607582e-14 9.1366212e-15          0.1 0.0090007832  0.070589248  0.029898695 
number of iterations: 2902 
     300    16.189956      144           50           94 4.6211983e-14 9.1452482e-15          0.1 0.0090007933   0.10583522  0.029898678 
number of iterations: 2017 
     400    16.420123      144           50           94 4.6824394e-14 9.1591448e-15          0.1 0.0090008035   0.14142352  0.029898661 
number of iterations: 1612 
     500    16.669503      144           50           94 4.7444921e-14 9.1782795e-15          0.1 0.0090008138    0.1773628  0.029898643 
number of iterations: 1425 
     600     16.86759      144           50           94 4.8073672e-14 9.2026525e-15          0.1 0.0090008243   0.21366071  0.029898625 
number of iterations: 1416 
     700    17.054012      144           50           94 4.8710754e-14 9.2322606e-15          0.1 0.0090008349   0.25032408  0.029898607 
number of iterations: 1419 
     800    17.260103      144           50           94 4.935628e-14 9.2671081e-15          0.1 0.0090008457   0.28735949  0.029898589 
number of iterations: 1421 
     900      17.4522      145           51           94 5.001036e-14 9.3072086e-15          0.1 0.0090008566   0.32477338   0.02989857 
number of iterations: 1424 
    1000    17.688975      145           51           94 5.0673108e-14 9.3525851e-15          0.1 0.0090008676   0.36257202  0.029898552 
number of iterations: 1427 
    1100    17.903618      145           51           94 5.1344639e-14 9.4032666e-15          0.1 0.0090008789   0.40076155  0.029898533 
number of iterations: 1430 
    1200    18.109548      147           51           96 5.2025069e-14 9.4592889e-15          0.1 0.0090008902   0.43934794  0.029898513 
number of iterations: 1433 
    1300    18.313802      148           52           96 5.2714516e-14 9.5207018e-15          0.1 0.0090009017   0.47833718  0.029898494 
number of iterations: 1435 
    1400    18.517968      148           52           96  5.34131e-14 9.5875568e-15          0.1 0.0090009134   0.51773493  0.029898474 
number of iterations: 1483 
    1500    18.712112      152           56           96 5.4120942e-14 9.6599235e-15          0.1 0.0090009252   0.55754675  0.029898454 
number of iterations: 1476 
    1600    18.912762      154           58           96 5.4838164e-14 9.7378736e-15          0.1 0.0090009372   0.59777827  0.029898434 
number of iterations: 1444 
    1700    19.134243      157           59           98 5.5564891e-14 9.821479e-15          0.1 0.0090009493   0.63843491  0.029898413 
number of iterations: 1447 
    1800    19.347577      157           59           98 5.6301249e-14 9.9108304e-15          0.1 0.0090009616   0.67952199  0.029898392 
number of iterations: 1450 
    1900    19.536074      160           59          101 5.7047365e-14 1.0006021e-14          0.1 0.0090009741    0.7210447  0.029898371 
number of iterations: 1452 
    2000    19.730756      164           59          105 5.7803369e-14 1.010717e-14          0.1 0.0090009867   0.76300815   0.02989835 
number of iterations: 1607 
    2100    19.916789      168           60          108 5.8569392e-14 1.0214382e-14          0.1 0.0090010055   0.80541723  0.029898318 
number of iterations: 1499 
    2200    20.173313      169           61          108 5.9345566e-14 1.0327787e-14          0.1 0.0090010186   0.84827689  0.029898296 
number of iterations: 1461 
    2300    20.352786      174           61          113 6.0132026e-14 1.0447515e-14          0.1 0.0090010317   0.89159187  0.029898273 
number of iterations: 1464 
    2400    20.550213      177           61          116 6.0928908e-14 1.0573709e-14          0.1 0.0090010451   0.93536682  0.029898251 
number of iterations: 1466 
    2500    20.728817      180           61          119 6.1736351e-14 1.070653e-14          0.1 0.0090010586   0.97960623  0.029898228 
number of iterations: 1471 
    2600    20.925558      187           64          123 6.2554494e-14 1.0846144e-14          0.1 0.0090010724    1.0243144  0.029898204 
number of iterations: 1509 
    2700     21.17538      190           66          124 6.338348e-14 1.0992725e-14          0.1 0.0090010863    1.0694958  0.029898181 
number of iterations: 1474 
    2800    21.375699      190           66          124 6.4223451e-14 1.1146446e-14          0.1 0.0090011003    1.1151545  0.029898157 
number of iterations: 1469 
    2900    21.560653      192           67          125 6.5074554e-14 1.1307499e-14          0.1 0.0090011146    1.1612943  0.029898133 
number of iterations: 1483 
    3000    21.788623      194           68          126 6.5936935e-14 1.1476094e-14          0.1  0.009001129    1.2079192  0.029898108 
number of iterations: 1740 
    3100    21.979395      197           69          128 6.6810745e-14 1.1652445e-14          0.1 0.0090011484    1.2550327  0.029898075 
number of iterations: 1487 
    3200    22.166069      198           69          129 6.7696135e-14 1.1836784e-14          0.1 0.0090011633    1.3026383   0.02989805 
number of iterations: 1490 
    3300    22.364235      201           70          131 6.8593259e-14 1.2029351e-14          0.1 0.0090011783    1.3507394  0.029898024 
number of iterations: 1515 
    3400    22.573363      206           71          135 6.9502271e-14 1.2230416e-14          0.1 0.0090011936    1.3993391  0.029897999 
number of iterations: 1495 
    3500    22.798664      207           71          136 7.042333e-14 1.2440225e-14          0.1  0.009001209    1.4484404  0.029897972 
number of iterations: 1448 
    3600    22.981821      209           71          138 7.1356594e-14 1.2659059e-14          0.1 0.0090012232     1.498046  0.029897948 
number of iterations: 1612 
    3700    23.178027      211           72          139 7.2302227e-14 1.2887217e-14          0.1 0.0090012435    1.5481584  0.029897914 
number of iterations: 1622 
    3800    23.361523      213           74          139 7.3260391e-14 1.3125007e-14          0.1 0.0090012627    1.5987799  0.029897881 
number of iterations: 1507 
    3900    23.554203      217           74          143 7.4231253e-14 1.3372746e-14          0.1 0.0090012791    1.6499127  0.029897853 
number of iterations: 1510 
    4000    23.749973      221           74          147 7.5214981e-14 1.3630781e-14          0.1 0.0090012956    1.7015587  0.029897825 
number of iterations: 1514 
    4100    23.936523      223           75          148 7.6211746e-14 1.3899472e-14          0.1 0.0090013138    1.7537195  0.029897794 
number of iterations: 1515 
    4200    24.196607      226           76          150 7.722172e-14 1.4179174e-14          0.1 0.0090013308    1.8063965  0.029897765 
number of iterations: 1518 
    4300    24.391701      228           76          152 7.8245078e-14 1.4470288e-14          0.1 0.0090013479    1.8595906  0.029897735 
number of iterations: 1524 
    4400    24.573752      233           77          156 7.9281998e-14 1.4773227e-14          0.1 0.0090013653    1.9133027  0.029897706 
number of iterations: 1523 
    4500    24.755357      236           77          159 8.033266e-14 1.5088406e-14          0.1 0.0090013829    1.9675331  0.029897676 
number of iterations: 1526 
    4600    24.926067      241           77          164 8.1397245e-14 1.5416289e-14          0.1 0.0090014007    2.0222821  0.029897645 
number of iterations: 1528 
    4700    25.143672      242           77          165 8.2475938e-14 1.5757336e-14          0.1 0.0090014187    2.0775494  0.029897614 
number of iterations: 1531 
    4800    25.345591      251           81          170 8.3568926e-14 1.6112033e-14          0.1 0.0090014369    2.1333346  0.029897583 
number of iterations: 1579 
    4900     25.53175      254           82          172 8.4676398e-14 1.6480891e-14          0.1 0.0090014599    2.1896364  0.029897544 
number of iterations: 1537 
    5000    25.750882      256           82          174 8.5798547e-14 1.6864454e-14          0.1 0.0090014786    2.2464537  0.029897512 
number of iterations: 1539 
    5100     25.95287      260           84          176 8.6935567e-14 1.7263287e-14          0.1 0.0090014963    2.3037844  0.029897481 
number of iterations: 1645 
    5200     26.14474      265           85          180 8.8087655e-14 1.7677972e-14          0.1 0.0090015202    2.3616264   0.02989744 
number of iterations: 1545 
    5300    26.341211      268           85          183 8.9255011e-14 1.810911e-14          0.1 0.0090015397     2.419977  0.029897407 
number of iterations: 1544 
    5400    26.520847      274           86          188 9.0437837e-14 1.8557356e-14          0.1 0.0090015557    2.4788328  0.029897379 
number of iterations: 1557 
    5500    26.709328      285           89          196 9.1636337e-14 1.902338e-14          0.1 0.0090015716    2.5381902  0.029897351 
number of iterations: 1552 
    5600    26.893947      291           89          202 9.2850721e-14 1.9507882e-14          0.1 0.0090015915    2.5980447  0.029897317 
number of iterations: 1556 
    5700    27.086646      300           89          211 9.4081198e-14 2.001159e-14          0.1 0.0090016121    2.6583915  0.029897282 
number of iterations: 1652 
    5800    27.265785      307           92          215 9.5327981e-14 2.0535259e-14          0.1 0.0090016357    2.7192251  0.029897241 
number of iterations: 1562 
    5900    27.445879      313           92          221 9.6591287e-14 2.1079692e-14          0.1 0.0090016564    2.7805392  0.029897205 
number of iterations: 1565 
    6000    27.653658      320           93          227 9.7871334e-14 2.1645722e-14          0.1 0.0090016775    2.8423271  0.029897168 
number of iterations: 1567 
    6100    27.836949      326           93          233 9.9168345e-14 2.2234221e-14          0.1 0.0090016988    2.9045812  0.029897131 
number of iterations: 1566 
    6200    28.014225      338           96          242 1.0048254e-13 2.2846117e-14          0.1 0.0090017153    2.9672932  0.029897102 
number of iterations: 1630 
    6300    28.215999      346           98          248 1.0181416e-13 2.3482356e-14          0.1  0.009001737    3.0304544  0.029897064 
number of iterations: 1575 
    6400    28.408964      360          100          260 1.0316342e-13 2.4143925e-14          0.1 0.0090017589    3.0940545  0.029897026 
number of iterations: 1579 
    6500    28.592922      362          100          262 1.0453056e-13 2.4831848e-14          0.1 0.0090017812    3.1580827  0.029896987 
number of iterations: 1528 
    6600     28.78416      375          103          272 1.0591582e-13 2.5547256e-14          0.1  0.009001796    3.2225276  0.029896961 
number of iterations: 1545 
    6700    28.963471      386          107          279 1.0731944e-13 2.6291245e-14          0.1 0.0090018109    3.2873763  0.029896934 
number of iterations: 1543 
    6800    29.149298      398          109          289 1.0874166e-13 2.7064995e-14          0.1 0.0090018239    3.3526153   0.02989691 
number of iterations: 1626 
    6900    29.349692      403          110          293 1.1018273e-13 2.7869736e-14          0.1 0.0090018484    3.4182298  0.029896867 
number of iterations: 1701 
    7000    29.570791      411          111          300 1.1164289e-13 2.8706747e-14          0.1 0.0090018773    3.4842041  0.029896817 
number of iterations: 1601 
    7100    29.754465      417          111          306 1.131224e-13 2.9577398e-14          0.1 0.0090019008    3.5505211  0.029896776 
number of iterations: 1623 
    7200    29.938448      426          112          314 1.1462153e-13 3.0483071e-14          0.1 0.0090019208    3.6171623   0.02989674 
number of iterations: 1549 
    7300    30.141881      440          116          324 1.1614051e-13 3.142523e-14          0.1 0.0090019345    3.6841088  0.029896715 
number of iterations: 1584 
    7400    30.318532      452          120          332 1.1767963e-13 3.2405435e-14          0.1 0.0090019487    3.7513397  0.029896689 
number of iterations: 1550 
    7500    30.522253      470          124          346 1.1923914e-13 3.3425244e-14          0.1  0.009001967    3.8188328  0.029896655 
number of iterations: 1604 
    7600    30.712786      482          125          357 1.2081933e-13 3.4486314e-14          0.1 0.0090019864    3.8865645   0.02989662 
number of iterations: 1644 
    7700    30.894469      489          126          363 1.2242045e-13 3.5590407e-14          0.1 0.0090020125    3.9545098  0.029896574 
number of iterations: 1577 
    7800    31.142275      503          127          376 1.2404279e-13 3.6739342e-14          0.1 0.0090020338     4.022642  0.029896535 
number of iterations: 1615 
    7900    31.373149      520          128          392 1.2568663e-13 3.7935013e-14          0.1  0.009002062    4.0909328  0.029896485 
number of iterations: 1642 
    8000    31.542792      536          129          407 1.2735225e-13 3.9179385e-14          0.1 0.0090020928     4.159352  0.029896431 
number of iterations: 1647 
    8100    31.728117      554          131          423 1.2903995e-13 4.0474507e-14          0.1   0.00900212    4.2278678  0.029896382 
number of iterations: 1691 
    8200    31.927634      564          132          432 1.3075001e-13 4.1822561e-14          0.1 0.0090021486    4.2964463  0.029896331 
number of iterations: 1616 
    8300    32.109983      582          135          447 1.3248274e-13 4.3225758e-14          0.1 0.0090021747    4.3650518  0.029896284 
number of iterations: 1621 
    8400     32.29137      604          135          469 1.3423843e-13 4.468645e-14          0.1 0.0090022008    4.4336464  0.029896236 
number of iterations: 1660 
    8500    32.499156      627          138          489 1.3601738e-13 4.6207103e-14          0.1 0.0090022287    4.5021905  0.029896186 
number of iterations: 1627 
    8600    32.709981      640          138          502 1.3781991e-13 4.7790231e-14          0.1 0.0090022556    4.5706414  0.029896137 
number of iterations: 1695 
    8700    32.911038      660          141          519 1.3964633e-13 4.9438476e-14          0.1 0.0090022823    4.6389547  0.029896088 
number of iterations: 1623 
    8800    33.098713      676          143          533 1.4149695e-13 5.1154628e-14          0.1 0.0090023059    4.7070832  0.029896044 
number of iterations: 1664 
    8900    33.287973      697          144          553 1.4337209e-13 5.2941536e-14          0.1 0.0090023351    4.7749774  0.029895991 
number of iterations: 1638 
    9000    33.494644      712          145          567 1.4527209e-13 5.4802204e-14          0.1 0.0090023645    4.8425851  0.029895937 
number of iterations: 1640 
    9100    33.677087      735          145          590 1.4719726e-13 5.6739762e-14          0.1 0.0090023923    4.9098514  0.029895885 
number of iterations: 1643 
    9200    33.872028      756          146          610 1.4914795e-13 5.8757489e-14          0.1 0.0090024206    4.9767185  0.029895833 
number of iterations: 1642 
    9300    34.070569      773          146          627 1.5112449e-13 6.0858737e-14          0.1  0.009002449    5.0431256   0.02989578 
number of iterations: 1644 
    9400    34.314695      795          148          647 1.5312722e-13 6.3047095e-14          0.1 0.0090024716    5.1090089  0.029895736 
number of iterations: 1618 
    9500    34.502197      826          151          675 1.5515649e-13 6.532635e-14          0.1 0.0090024899    5.1743016    0.0298957 
number of iterations: 1674 
    9600    34.696871      858          155          703 1.5721265e-13 6.7700217e-14          0.1 0.0090025206    5.2389335  0.029895642 
number of iterations: 1708 
    9700    34.899908      880          157          723 1.5929606e-13 7.0172596e-14          0.1 0.0090025511    5.3028304  0.029895585 
number of iterations: 1690 
    9800    35.141068      907          160          747 1.6140709e-13 7.2747674e-14          0.1 0.0090025887    5.3659154  0.029895515 
number of iterations: 1743 
    9900    35.355462      935          160          775 1.6354609e-13 7.5429707e-14          0.1 0.0090026208    5.4281077  0.029895455 
number of iterations: 1667 
   10000    35.567762      975          162          813 1.6571343e-13 7.822318e-14          0.1 0.0090026549    5.4893227   0.02989539 
number of iterations: 1617 
   10100    35.772654     1007          164          843 1.679095e-13 8.1132699e-14          0.1 0.0090026802    5.5494723   0.02989534 
number of iterations: 1727 
   10200    35.982522     1051          168          883 1.7013466e-13 8.4163103e-14          0.1 0.0090027135    5.6084638  0.029895276 
number of iterations: 1659 
   10300      36.2021     1084          168          916 1.7238932e-13 8.7319335e-14          0.1 0.0090027441    5.6662004  0.029895217 
number of iterations: 1673 
   10400    36.400686     1118          170          948 1.7467386e-13 9.0606568e-14          0.1 0.0090027793    5.7225819   0.02989515 
number of iterations: 1752 
   10500    36.618348     1152          172          980 1.7698867e-13 9.4030152e-14          0.1 0.0090028155    5.7775036   0.02989508 
number of iterations: 1655 
   10600    36.815004     1181          173         1008 1.7933416e-13 9.7595607e-14          0.1 0.0090028477    5.8308559  0.029895017 
number of iterations: 1701 
   10700    37.009224     1221          176         1045 1.8171073e-13 1.0130875e-13          0.1 0.0090028721    5.8825253  0.029894966 
number of iterations: 1707 
   10800    37.207698     1268          177         1091 1.8411879e-13 1.0517549e-13          0.1 0.0090029084    5.9323934  0.029894896 
number of iterations: 1696 
   10900    37.436115     1321          178         1143 1.8655877e-13 1.0920191e-13          0.1 0.0090029431    5.9803374  0.029894827 
number of iterations: 1852 
   11000    37.668901     1364          182         1182 1.8903108e-13 1.133944e-13          0.1 0.0090029825    6.0262296   0.02989475 
number of iterations: 1672 
   11100    37.867712     1405          183         1222 1.9153616e-13 1.1775949e-13          0.1 0.0090030119    6.0699384  0.029894689 
number of iterations: 1690 
   11200    38.082804     1447          187         1260 1.9407443e-13 1.2230387e-13          0.1 0.0090030411    6.1113265  0.029894629 
number of iterations: 1737 
   11300      38.2861     1496          192         1304 1.9664634e-13 1.2703425e-13          0.1 0.0090030766    6.1502526  0.029894558 
number of iterations: 1703 
   11400    38.499513     1544          195         1349 1.9925234e-13 1.3195786e-13          0.1 0.0090031038    6.1865703  0.029894499 
number of iterations: 1702 
   11500    38.727443     1616          197         1419 2.0189287e-13 1.3708168e-13          0.1 0.0090031332    6.2201293  0.029894437 
number of iterations: 1761 
   11600    38.934717     1671          202         1469 2.0456839e-13 1.4241315e-13          0.1 0.0090031645    6.2507745  0.029894371 
number of iterations: 1679 
   11700    39.147809     1746          205         1541 2.0727937e-13 1.479604e-13          0.1 0.0090031876    6.2783464  0.029894318 
number of iterations: 1726 
   11800    39.372778     1807          208         1599 2.1002627e-13 1.5373133e-13          0.1 0.0090032251    6.3026809   0.02989424 
number of iterations: 1689 
   11900    39.564704     1863          210         1653 2.1280958e-13 1.597339e-13          0.1 0.0090032569    6.3236107  0.029894171 
number of iterations: 1729 
   12000     39.79285     1937          214         1723 2.1562977e-13 1.6597619e-13          0.1 0.0090032915    6.3409636  0.029894098 
number of iterations: 1804 
   12100    40.001006     1993          218         1775 2.1848734e-13 1.7246672e-13          0.1 0.0090033318    6.3545645  0.029894014 
number of iterations: 1719 
   12200    40.252655     2068          220         1848 2.2138277e-13 1.7921387e-13          0.1 0.0090033706    6.3642348  0.029893932 
number of iterations: 1713 
   12300    40.476459     2141          223         1918 2.2431658e-13 1.8622613e-13          0.1 0.0090034015    6.3697935  0.029893862 
number of iterations: 1803 
   12400     40.70732     2238          226         2012 2.2728926e-13 1.9351202e-13          0.1 0.0090034483    6.3710569  0.029893765 
number of iterations: 1751 
   12500    40.947353     2317          231         2086 2.3030134e-13 2.0108026e-13          0.1 0.0090034826    6.3678406  0.029893688 
number of iterations: 1739 
   12600    41.207845     2404          236         2168 2.3335334e-13 2.0893932e-13          0.1  0.009003519    6.3599587  0.029893608 
number of iterations: 1723 
   12700    41.401704     2480          239         2241 2.3644578e-13 2.1709784e-13          0.1  0.009003556    6.3472262  0.029893526 
number of iterations: 1761 
   12800    41.620574     2574          240         2334 2.395792e-13 2.2556424e-13          0.1 0.0090035942    6.3294587  0.029893441 
number of iterations: 1731 
   12900    41.827916     2659          242         2417 2.4275415e-13 2.3434709e-13          0.1 0.0090036285    6.3064738  0.029893362 
number of iterations: 1769 
   13000    42.030592     2752          245         2507 2.4597117e-13 2.4345457e-13          0.1 0.0090036614    6.2780924  0.029893284 
number of iterations: 1728 
   13100    42.243021     2860          249         2611 2.4923082e-13 2.5289471e-13          0.1 0.0090036959    6.2441401  0.029893204 
number of iterations: 1716 
   13200    42.478176     2976          253         2723 2.5253368e-13 2.6267512e-13          0.1 0.0090037253    6.2044487  0.029893131 
number of iterations: 1742 
   13300     42.69042     3088          255         2833 2.558803e-13 2.7280268e-13          0.1 0.0090037642    6.1588586  0.029893043 
number of iterations: 1699 
   13400    42.915595     3202          259         2943 2.5927127e-13 2.8328468e-13          0.1 0.0090037908    6.1072199  0.029892975 
number of iterations: 1773 
   13500    43.160535     3314          263         3051 2.6270718e-13 2.9412816e-13          0.1  0.009003825     6.049395  0.029892893 
number of iterations: 1719 
   13600     43.38509     3433          267         3166 2.6618862e-13 3.0522119e-13          0.1 0.0090038529    5.9853628  0.029892821 
number of iterations: 1753 
   13700    43.591138     3549          267         3282 2.697162e-13 3.1679859e-13          0.1 0.0090038886    5.9149154  0.029892735 
number of iterations: 1775 
   13800    43.818874     3677          269         3408 2.7329053e-13 3.2875125e-13          0.1  0.009003933    5.8379675  0.029892634 
number of iterations: 1758 
   13900    44.057005     3810          272         3538 2.7691222e-13 3.4108191e-13          0.1 0.0090039681    5.7544559  0.029892549 
number of iterations: 1814 
   14000    44.332898     3949          275         3674 2.8058191e-13 3.5379191e-13          0.1 0.0090040037    5.6643456  0.029892463 
number of iterations: 1864 
   14100    44.579803     4083          280         3803 2.8430023e-13 3.6676736e-13          0.1  0.009004049    5.5677304  0.029892362 
number of iterations: 1804 
   14200    44.841775     4212          286         3926 2.8806783e-13 3.7998915e-13          0.1 0.0090041075    5.4647496  0.029892237 
number of iterations: 1816 
   14300    45.095157     4355          291         4064 2.9188535e-13 3.9381816e-13          0.1 0.0090041425     5.355269  0.029892152 
number of iterations: 1780 
   14400    45.342704     4507          293         4214 2.9575347e-13 4.080159e-13          0.1 0.0090041888    5.2394018   0.02989205 
number of iterations: 1771 
   14500    45.578834     4662          293         4369 2.9967285e-13 4.2257467e-13          0.1 0.0090042316    5.1173107  0.029891952 
number of iterations: 1774 
   14600    45.818357     4837          294         4543 3.0364416e-13 4.3748467e-13          0.1 0.0090042796    4.9892123  0.029891847 
number of iterations: 1770 
   14700    46.087487     5022          298         4724 3.0766811e-13 4.526318e-13          0.1 0.0090043193    4.8554643  0.029891755 
number of iterations: 1818 
   14800    46.334767     5199          302         4897 3.1174538e-13 4.6809117e-13          0.1 0.0090043628    4.7164092   0.02989166 
number of iterations: 1793 
   14900    46.619583     5369          303         5066 3.1587668e-13 4.8372876e-13          0.1 0.0090044118    4.5725491  0.029891555 
number of iterations: 1815 
   15000    46.866133     5530          307         5223 3.2006273e-13 4.9987656e-13          0.1 0.0090044584    4.4241696  0.029891454 
number of iterations: 1783 
   15100    47.115555     5722          312         5410 3.2430426e-13 5.1628402e-13          0.1 0.0090045022    4.2718199  0.029891361 
number of iterations: 1809 
   15200    47.349826     5877          320         5557 3.2860199e-13 5.3280205e-13          0.1 0.0090045527    4.1162178  0.029891259 
number of iterations: 1824 
   15300    47.605625     6053          322         5731 3.3295668e-13 5.4964049e-13          0.1 0.0090046088    3.9579692  0.029891148 
number of iterations: 1847 
   15400     47.87587     6239          328         5911 3.3736908e-13 5.6664768e-13          0.1  0.009004664     3.797848  0.029891041 
number of iterations: 1815 
   15500    48.146304     6404          332         6072 3.4183995e-13 5.8368318e-13          0.1 0.0090047166    3.6367753   0.02989094 
number of iterations: 1844 
   15600    48.415305     6594          335         6259 3.4637007e-13 6.0080787e-13          0.1 0.0090047827    3.4756537   0.02989082 
number of iterations: 1849 
   15700    48.698423     6786          340         6446 3.5096023e-13 6.1809651e-13          0.1 0.0090048514     3.315359  0.029890696 
number of iterations: 1833 
   15800     48.97051     6978          346         6632 3.5561121e-13 6.352646e-13          0.1 0.0090049289    3.1569787  0.029890561 
number of iterations: 1874 
   15900    49.268318     7184          355         6829 3.6032383e-13 6.5254468e-13          0.1 0.0090050037    3.0014274  0.029890434 
number of iterations: 1866 
   16000    49.554784     7360          359         7001 3.650989e-13 6.6976376e-13          0.1 0.0090050977    2.8497169  0.029890278 
number of iterations: 1837 
   16100    49.832111     7562          364         7198 3.6993725e-13 6.8676702e-13          0.1 0.0090051716    2.7029093  0.029890156 
number of iterations: 1879 
   16200    50.218686     7752          371         7381 3.7483972e-13 7.0356538e-13          0.1 0.0090052728    2.5619721  0.029889993 
number of iterations: 1898 
   16300    50.525593     7940          378         7562 3.7980716e-13 7.2039633e-13          0.1 0.0090053705    2.4276288  0.029889838 
number of iterations: 1854 
   16400    50.818058     8137          383         7754 3.8484042e-13 7.3705106e-13          0.1 0.0090054673    2.3006232  0.029889686 
number of iterations: 1882 
   16500    51.135303     8318          391         7927 3.8994039e-13 7.5351431e-13          0.1 0.0090055693    2.1815665  0.029889527 
number of iterations: 1881 
   16600    51.432907     8504          395         8109 3.9510794e-13 7.6965178e-13          0.1   0.00900566    2.0709865  0.029889388 
number of iterations: 1865 
   16700    51.770029     8681          401         8280 4.0034398e-13 7.8570737e-13          0.1 0.0090057517    1.9691046  0.029889247 
number of iterations: 1874 
   16800    52.081221     8857          407         8450 4.056494e-13 8.0146213e-13          0.1 0.0090058549    1.8760986  0.029889088 
number of iterations: 1891 
   16900    52.398894     9044          410         8634 4.1102513e-13 8.1712298e-13          0.1 0.0090059537    1.7918755  0.029888935 
number of iterations: 1873 
   17000    52.719661     9223          417         8806 4.164721e-13 8.3261022e-13          0.1 0.0090060547    1.7162444  0.029888778 
number of iterations: 1886 
   17100    53.024367     9380          421         8959 4.2199125e-13 8.4767267e-13          0.1 0.0090061701    1.6490009  0.029888597 
number of iterations: 1882 
   17200    53.376536     9536          427         9109 4.2758355e-13 8.6287271e-13          0.1 0.0090062705    1.5895571  0.029888438 
number of iterations: 1920 
   17300    53.721005     9703          432         9271 4.3324995e-13 8.7784957e-13          0.1 0.0090063808    1.5374384  0.029888261 
number of iterations: 1957 
   17400     54.04962     9870          434         9436 4.3899144e-13 8.9269301e-13          0.1 0.0090064841    1.4920707  0.029888095 
number of iterations: 1992 
   17500    54.434107    10031          438         9593 4.4480903e-13 9.0766778e-13          0.1 0.0090066047    1.4527433  0.029887898 
number of iterations: 2024 
   17600    54.790703    10184          444         9740 4.507037e-13 9.2249074e-13          0.1 0.0090066882    1.4188834  0.029887761 
number of iterations: 2055 
   17700    55.126085    10353          449         9904 4.566765e-13 9.3745557e-13          0.1 0.0090067949    1.3898075  0.029887583 
number of iterations: 2084 
   17800    55.733344    10531          462        10069 4.6272844e-13 9.5235248e-13          0.1 0.0090068755    1.3649673  0.029887447 
number of iterations: 2118 
   17900    56.118338    10702          464        10238 4.6886059e-13 9.6730409e-13          0.1 0.0090069753    1.3438018  0.029887277 
number of iterations: 2147 
   18000    56.460229    10900          469        10431  4.75074e-13 9.8243991e-13          0.1 0.0090070613    1.3257545  0.029887128 
number of iterations: 2189 
   18100    56.821624    11063          475        10588 4.8136975e-13 9.9759287e-13          0.1 0.0090071637    1.3104026  0.029886951 
number of iterations: 2227 
   18200    57.182192    11231          478        10753 4.8774894e-13 1.0127381e-12          0.1 0.0090072658    1.2973794  0.029886772 
number of iterations: 2259 
   18300    57.563749    11395          484        10911 4.9421266e-13 1.028066e-12          0.1 0.0090073661    1.2862906  0.029886596 
number of iterations: 2289 
   18400    57.917661    11576          494        11082 5.0076203e-13 1.043594e-12          0.1  0.009007454    1.2767962  0.029886439 
number of iterations: 2319 
   18500    58.279836    11751          500        11251 5.0739821e-13 1.0591942e-12          0.1 0.0090075559    1.2686582  0.029886259 
number of iterations: 2347 
   18600     58.64221    11926          506        11420 5.1412232e-13 1.0749415e-12          0.1 0.0090076518    1.2616468  0.029886088 
number of iterations: 2376 
   18700    59.021616    12097          509        11588 5.2093554e-13  1.09097e-12          0.1 0.0090077619     1.255523  0.029885892 
number of iterations: 2404 
   18800     59.44304    12275          517        11758 5.2783906e-13 1.1072944e-12          0.1  0.009007851    1.2500873   0.02988573 
number of iterations: 2431 
   18900    59.833147    12464          524        11940 5.3483405e-13 1.123814e-12          0.1 0.0090079476    1.2452172  0.029885555 
number of iterations: 2454 
   19000    60.224094    12641          530        12111 5.4192175e-13 1.1403786e-12          0.1  0.009008048    1.2408691  0.029885373 
number of iterations: 2482 
   19100     60.61935    12809          537        12272 5.4910337e-13 1.1571219e-12          0.1 0.0090081631    1.2369555  0.029885167 
number of iterations: 2508 
   19200    61.066904    12983          548        12435 5.5638017e-13 1.1741733e-12          0.1 0.0090082918    1.2333586  0.029884937 
number of iterations: 2533 
   19300    61.483695    13172          556        12616 5.637534e-13 1.1910047e-12          0.1 0.0090084023     1.230182  0.029884738 
number of iterations: 2557 
   19400    61.874078    13358          563        12795 5.7122433e-13 1.2084614e-12          0.1 0.0090085056    1.2271882   0.02988455 
number of iterations: 2579 
   19500    62.269361    13550          566        12984 5.7879428e-13 1.2261718e-12          0.1 0.0090086155    1.2243369   0.02988435 
number of iterations: 2603 
   19600    62.687621    13730          573        13157 5.8646454e-13 1.2440371e-12          0.1 0.0090087425    1.2216345  0.029884122 
number of iterations: 2629 
   19700    63.129677    13928          585        13343 5.9423644e-13 1.2621167e-12          0.1 0.0090088475    1.2190634   0.02988393 
number of iterations: 2653 
   19800    63.533778    14140          595        13545 6.0211134e-13 1.2801576e-12          0.1 0.0090089656    1.2167015  0.029883717 
number of iterations: 2680 
   19900    63.951682    14342          603        13739 6.100906e-13 1.2987833e-12          0.1  0.009009098    1.2143781  0.029883479 
number of iterations: 2705 
   20000    64.434029    14561          618        13943 6.181756e-13 1.3176694e-12          0.1 0.0090092153    1.2120892  0.029883266 
number of iterations: 2728 
   20100    64.909919    14762          623        14139 6.2636775e-13 1.3366613e-12          0.1 0.0090093407     1.209889  0.029883038 
number of iterations: 2754 
   20200    65.339733    14977          633        14344 6.3466845e-13 1.3561361e-12          0.1 0.0090094692    1.2076794  0.029882806 
number of iterations: 2776 
   20300    65.792662    15202          641        14561 6.4307916e-13 1.3755906e-12          0.1  0.009009577    1.2055748  0.029882608 
number of iterations: 2797 
   20400    66.234907    15412          643        14769 6.5160133e-13 1.3951791e-12          0.1 0.0090097019    1.2036002  0.029882381 
number of iterations: 2820 
   20500    66.660348    15633          647        14986 6.6023643e-13 1.4150648e-12          0.1 0.0090098368    1.2017128  0.029882137 
number of iterations: 2850 
   20600    67.082923    15852          654        15198 6.6898597e-13 1.4355754e-12          0.1 0.0090099725    1.1997662  0.029881892 
number of iterations: 2872 
   20700    67.514043    16087          665        15422 6.7785145e-13 1.4559366e-12          0.1 0.0090100897    1.1979408  0.029881677 
number of iterations: 2898 
   20800    67.968071    16309          674        15635 6.8683443e-13 1.4767991e-12          0.1  0.009010223    1.1961249  0.029881435 
number of iterations: 2921 
   20900    68.450182    16533          684        15849 6.9593644e-13 1.4978715e-12          0.1 0.0090103529    1.1943486  0.029881199 
number of iterations: 2943 
   21000    68.900631    16745          688        16057 7.0515907e-13 1.5193838e-12          0.1 0.0090104727    1.1925517  0.029880979 
number of iterations: 2968 
   21100    69.363905    17017          699        16318 7.1450393e-13 1.5411869e-12          0.1 0.0090106075    1.1907484  0.029880734 
number of iterations: 2993 
   21200    69.830346    17261          709        16552 7.2397262e-13 1.5629336e-12          0.1 0.0090107317    1.1890745  0.029880505 
number of iterations: 3018 
   21300    70.422149    17503          718        16785 7.3356679e-13 1.5852711e-12          0.1 0.0090108766     1.187387  0.029880242 
number of iterations: 3037 
   21400    70.888374    17768          734        17034 7.432881e-13 1.6079046e-12          0.1 0.0090110427    1.1856996  0.029879944 
number of iterations: 3060 
   21500    71.422378    18052          748        17304 7.5313824e-13 1.6306548e-12          0.1 0.0090111805    1.1840883  0.029879692 
number of iterations: 3088 
   21600    71.894975    18361          760        17601 7.6311892e-13 1.6538516e-12          0.1 0.0090113244    1.1824838   0.02987943 
number of iterations: 3111 
   21700    72.391732    18592          765        17827 7.7323186e-13 1.676993e-12          0.1   0.00901148    1.1810221  0.029879149 
number of iterations: 3136 
   21800    72.887222    18875          775        18100 7.8347881e-13 1.7007966e-12          0.1 0.0090116488    1.1795343  0.029878845 
number of iterations: 3161 
   21900    73.396099    19137          785        18352 7.9386156e-13 1.7246719e-12          0.1 0.0090117981    1.1781253  0.029878573 
number of iterations: 3183 
   22000    73.976004    19382          794        18588 8.043819e-13 1.7488297e-12          0.1 0.0090119675    1.1767857  0.029878268 
number of iterations: 3206 
   22100    74.510994    19616          805        18811 8.1504166e-13 1.7733704e-12          0.1 0.0090121303    1.1754755  0.029877973 
number of iterations: 3223 
   22200    75.016604    19940          815        19125 8.2584268e-13 1.7983961e-12          0.1 0.0090123028    1.1741336  0.029877662 
number of iterations: 3247 
   22300    75.554469    20206          819        19387 8.3678683e-13 1.8236527e-12          0.1   0.00901246    1.1728177  0.029877376 
number of iterations: 3267 
   22400    76.147058    20480          831        19649 8.4787602e-13 1.8493874e-12          0.1 0.0090126289    1.1714747  0.029877069 
number of iterations: 3294 
   22500    76.694664    20772          844        19928 8.5911216e-13 1.8752344e-12          0.1 0.0090127965    1.1702056  0.029876765 
number of iterations: 3312 
   22600    77.258379    21061          856        20205 8.704972e-13 1.9013543e-12          0.1 0.0090129573    1.1690129  0.029876472 
number of iterations: 3335 
   22700    77.834083    21356          869        20487 8.8203312e-13 1.9279985e-12          0.1 0.0090131429    1.1678091  0.029876136 
number of iterations: 3358 
   22800    78.401723    21650          885        20765 8.9372191e-13 1.9546989e-12          0.1 0.0090133024    1.1667125  0.029875845 
number of iterations: 3381 
   22900       78.975    21924          889        21035 9.0467039e-13 1.9820891e-12          0.1 0.0090134638    1.1648726  0.029875549 
number of iterations: 3409 
   23000    79.532259    22248          904        21344 9.1665917e-13 2.0095359e-12          0.1 0.0090136381    1.1634263  0.029875232 
number of iterations: 3431 
   23100    80.117935    22540          917        21623 9.2880682e-13 2.0369279e-12          0.1 0.0090138435    1.1623569  0.029874864 
number of iterations: 3455 
   23200     80.68774    22868          936        21932 9.3983294e-13 2.0655297e-12          0.1 0.0090139865    1.1602139  0.029874598 
number of iterations: 3479 
   23300    81.315274    23164          944        22220 9.522877e-13 2.0938123e-12          0.1 0.0090141771    1.1587361  0.029874255 
number of iterations: 3501 
   23400    81.882628    23480          957        22523 9.649075e-13 2.1227779e-12          0.1 0.0090143581    1.1575191  0.029873926 
number of iterations: 3527 
   23500    82.502372    23780          967        22813 9.7769454e-13 2.1525209e-12          0.1 0.0090145372    1.1563114  0.029873599 
number of iterations: 3549 
   23600    83.082813    24092          978        23114 9.9065104e-13 2.1820503e-12          0.1 0.0090147198    1.1553312  0.029873266 
number of iterations: 3572 
   23700    83.678916    24436          999        23437 1.0037792e-12 2.2124605e-12          0.1 0.0090148983    1.1543048   0.02987294 
number of iterations: 3598 
   23800    84.341643    24766         1010        23756 1.0170814e-12 2.2430983e-12          0.1  0.009015074    1.1533242  0.029872617 
number of iterations: 3619 
   23900    84.949681    25106         1023        24083 1.0305599e-12 2.2739576e-12          0.1 0.0090152632    1.1524384  0.029872271 
number of iterations: 3644 
   24000    85.555816    25445         1031        24414 1.0442169e-12 2.3052837e-12          0.1 0.0090154721    1.1515863  0.029871894 
number of iterations: 3662 
   24100    86.195576    25817         1042        24775 1.058055e-12 2.3372879e-12          0.1 0.0090156536    1.1506637  0.029871561 
number of iterations: 3680 
   24200    86.815886    26183         1057        25126 1.0720764e-12 2.3697238e-12          0.1 0.0090158729    1.1497126  0.029871164 
number of iterations: 3704 
   24300    87.462722    26517         1070        25447 1.0862836e-12 2.4022872e-12          0.1 0.0090160705    1.1488618  0.029870803 
number of iterations: 3728 
   24400    88.084974    26895         1084        25811 1.1006791e-12 2.4354778e-12          0.1 0.0090162962    1.1479959  0.029870396 
number of iterations: 3746 
   24500    88.726571    27283         1098        26185 1.1152654e-12 2.4690526e-12          0.1 0.0090164952    1.1471498  0.029870032 
number of iterations: 3769 
   24600    89.380671    27631         1103        26528 1.130045e-12 2.5030272e-12          0.1  0.009016697    1.1463354  0.029869663 
number of iterations: 3797 
   24700    90.028566    27991         1116        26875 1.1450205e-12 2.5375843e-12          0.1 0.0090169061    1.1454955  0.029869282 
number of iterations: 3823 
   24800    90.722037    28367         1130        27237 1.1601943e-12 2.5721838e-12          0.1 0.0090171207    1.1447959  0.029868891 
number of iterations: 3849 
   24900     91.44453    28739         1150        27589 1.1755693e-12 2.6068697e-12          0.1  0.009017356    1.1442934  0.029868466 
number of iterations: 3872 
   25000    92.113644    29155         1169        27986 1.191148e-12 2.6426659e-12          0.1 0.0090175628    1.1436495  0.029868086 
number of iterations: 3882 
   25100    92.792693    29609         1195        28414 1.2057039e-12 2.678822e-12          0.1 0.0090177864    1.1420403  0.029867678 
number of iterations: 3901 
   25200     93.45415    29996         1212        28784 1.221682e-12 2.7154749e-12          0.1 0.0090179877    1.1410046  0.029867309 
number of iterations: 3924 
   25300    94.196637    30389         1225        29164 1.2378718e-12 2.7525696e-12          0.1 0.0090182349    1.1402203  0.029866862 
number of iterations: 3951 
   25400    94.905548    30792         1238        29554 1.2542762e-12 2.7899949e-12          0.1 0.0090184916    1.1395953  0.029866398 
number of iterations: 3971 
   25500    95.597677    31233         1256        29977 1.2708979e-12 2.828022e-12          0.1 0.0090187436    1.1389985  0.029865941 
number of iterations: 3995 
   25600    96.320429    31638         1272        30366 1.2877399e-12 2.8664778e-12          0.1 0.0090189809    1.1384416  0.029865509 
number of iterations: 4017 
   25700    97.019849    32094         1289        30805 1.3048051e-12 2.9051993e-12          0.1 0.0090192167      1.13799  0.029865079 
number of iterations: 4039 
   25800    97.730866    32547         1299        31248 1.3220965e-12 2.9444789e-12          0.1 0.0090194554    1.1375646  0.029864643 
number of iterations: 4058 
   25900    98.481673    33036         1315        31721 1.3396169e-12 2.9843899e-12          0.1 0.0090197272    1.1371127  0.029864151 
number of iterations: 4082 
   26000    99.218358    33479         1338        32141 1.3573696e-12 3.0246489e-12          0.1 0.0090199887      1.13672  0.029863676 
number of iterations: 4097 
   26100    99.993688    33962         1352        32610 1.3729569e-12 3.0655163e-12          0.1  0.009020186    1.1344594  0.029863307 
number of iterations: 4126 
   26200    100.72001    34439         1374        33065 1.3911514e-12 3.1065598e-12          0.1 0.0090204571    1.1336354  0.029862819 
number of iterations: 4154 
   26300    101.52738    34875         1391        33484 1.409587e-12 3.1481137e-12          0.1 0.0090207464    1.1332603  0.029862297 
number of iterations: 4187 
   26400    102.28479    35359         1409        33950 1.4268875e-12 3.1911832e-12          0.1 0.0090209507    1.1316136  0.029861915 
number of iterations: 4217 
   26500    103.05443    35812         1424        34388 1.4457967e-12 3.2341478e-12          0.1 0.0090212551    1.1309362  0.029861369 
number of iterations: 4245 
   26600    103.80653    36233         1438        34795 1.4649565e-12 3.2779679e-12          0.1 0.0090215245    1.1304268  0.029860878 
number of iterations: 4241 
   26700    104.59548    36715         1453        35262 1.4830147e-12 3.3220551e-12          0.1 0.0090217387    1.1290201   0.02986048 
number of iterations: 4265 
   26800    105.47116    37201         1473        35728 1.5026677e-12 3.3670024e-12          0.1 0.0090219976    1.1283641  0.029860008 
number of iterations: 4288 
   26900    106.27467    37726         1499        36227 1.5215245e-12 3.4124927e-12          0.1 0.0090222718    1.1270944  0.029859508 
number of iterations: 4309 
   27000    107.09422    38230         1510        36720 1.5403834e-12 3.4581938e-12          0.1 0.0090225574    1.1256359  0.029858988 
number of iterations: 4336 
   27100    107.89742    38741         1528        37213 1.5607966e-12 3.5048334e-12          0.1 0.0090228553    1.1250565  0.029858449 
number of iterations: 4362 
   27200    108.72738    39272         1554        37718 1.5802497e-12 3.5518834e-12          0.1  0.009023119    1.1237769  0.029857964 
number of iterations: 4388 
   27300    109.54982    39759         1574        38185 1.5974412e-12 3.5995666e-12          0.1  0.009023355    1.1204101  0.029857528 
number of iterations: 4416 
   27400    110.59623    40292         1597        38695 1.6186105e-12 3.6475587e-12          0.1 0.0090236695    1.1197414  0.029856965 
number of iterations: 4445 
   27500    111.61525    40845         1626        39219 1.6400604e-12 3.695756e-12          0.1 0.0090239704    1.1196865  0.029856417 
number of iterations: 4475 
   27600    112.49869    41356         1650        39706 1.6617945e-12 3.7453025e-12          0.1 0.0090242603    1.1194829  0.029855886 
number of iterations: 4500 
   27700    113.36135    41933         1661        40272 1.6838166e-12 3.7952473e-12          0.1 0.0090246054     1.119346  0.029855263 
number of iterations: 4531 
   27800    114.25094    42518         1692        40826 1.7049304e-12 3.8453943e-12          0.1 0.0090249018    1.1184417   0.02985472 
number of iterations: 4559 
   27900    115.10683    43103         1712        41391 1.7263863e-12 3.8971079e-12          0.1 0.0090251968    1.1171989  0.029854181 
number of iterations: 4548 
   28000    116.14695    43660         1736        41924 1.7474069e-12 3.9492008e-12          0.1 0.0090255106    1.1154734   0.02985361 
number of iterations: 4570 
   28100    117.03463    44232         1752        42480 1.7705635e-12 4.0017929e-12          0.1 0.0090258634    1.1152378  0.029852974 
number of iterations: 4595 
   28200    117.98699    44821         1780        43041 1.794027e-12 4.0546436e-12          0.1 0.0090261924    1.1152818  0.029852375 
number of iterations: 4625 
   28300    118.87158    45394         1791        43603 1.8178015e-12 4.1085722e-12          0.1 0.0090265374    1.1152135  0.029851747 
number of iterations: 4653 
   28400     119.7849    45975         1806        44169 1.839834e-12 4.1636568e-12          0.1 0.0090268467    1.1133882  0.029851178 
number of iterations: 4659 
   28500    120.66276    46582         1828        44754 1.8631577e-12 4.2186495e-12          0.1 0.0090271793    1.1125685  0.029850575 
number of iterations: 4680 
   28600    121.70159    47197         1853        45344 1.8867947e-12 4.2744723e-12          0.1 0.0090275128    1.1117587  0.029849967 
number of iterations: 4702 
   28700     122.6278    47836         1880        45956 1.9099294e-12 4.3312654e-12          0.1 0.0090278079    1.1102461  0.029849423 
number of iterations: 4726 
   28800     123.5924    48449         1900        46549 1.9328755e-12 4.3876802e-12          0.1 0.0090280691    1.1087596  0.029848936 
number of iterations: 4748 
   28900    124.56197    49088         1922        47166  1.95849e-12 4.4453704e-12          0.1  0.009028431    1.1089502  0.029848283 
number of iterations: 4771 
   29000    125.85259    49730         1947        47783 1.9833997e-12 4.504143e-12          0.1 0.0090288081    1.1081732  0.029847596 
number of iterations: 4786 
   29100    126.88435    50369         1979        48390 2.0069192e-12 4.5636731e-12          0.1 0.0090291136    1.1061037  0.029847032 
number of iterations: 4807 
   29200    127.84672    51001         2002        48999 2.0316671e-12 4.6244062e-12          0.1 0.0090294779    1.1047146  0.029846372 
number of iterations: 4823 
   29300    128.81209    51649         2027        49622 2.0569255e-12 4.685628e-12          0.1 0.0090298278    1.1035503  0.029845735 
number of iterations: 4851 
   29400    129.78674    52324         2052        50272 2.0828267e-12 4.7468197e-12          0.1 0.0090301449    1.1029172   0.02984515 
number of iterations: 4873 
   29500      130.759    53012         2087        50925 2.1095448e-12 4.8090298e-12          0.1 0.0090305045    1.1025339  0.029844495 
number of iterations: 4908 
   29600    131.84393    53730         2120        51610 2.1375005e-12 4.8718044e-12          0.1 0.0090309141    1.1029081  0.029843752 
number of iterations: 4929 
   29700    132.83467    54497         2150        52347 2.1650038e-12 4.9360699e-12          0.1 0.0090313637    1.1023045   0.02984294 
number of iterations: 4945 
   29800    133.85357    55206         2170        53036 2.1927413e-12 5.0000281e-12          0.1 0.0090317335    1.1021512  0.029842265 
number of iterations: 4972 
   29900    134.91866    55919         2195        53724 2.2217995e-12 5.0659112e-12          0.1 0.0090321367    1.1023047   0.02984153 
number of iterations: 4990 
   30000    135.96061    56688         2209        54479 2.2485092e-12 5.1324341e-12          0.1 0.0090324839    1.1003414  0.029840887 
number of iterations: 5031 
   30100    137.01565    57434         2234        55200 2.2745556e-12 5.1994432e-12          0.1 0.0090328677    1.0981593   0.02984019 
number of iterations: 5042 
   30200    138.06604    58197         2253        55944 2.3015162e-12 5.2675128e-12          0.1 0.0090332311    1.0964445  0.029839526 
number of iterations: 5068 
   30300    139.12398    58962         2288        56674 2.330709e-12 5.335746e-12          0.1  0.009033618    1.0963742  0.029838822 
number of iterations: 5091 
   30400    140.23869    59729         2310        57419 2.3595775e-12 5.4047214e-12          0.1 0.0090339505    1.0954079  0.029838203 
number of iterations: 5119 
   30500     141.3693    60530         2337        58193 2.3871473e-12 5.4753124e-12          0.1 0.0090343125    1.0931343  0.029837538 
number of iterations: 5144 
   30600    142.46249    61299         2376        58923 2.4167525e-12 5.5466349e-12          0.1 0.0090347329    1.0926343  0.029836777 
number of iterations: 5173 
   30700    143.58937    62039         2399        59640 2.4446873e-12 5.6178797e-12          0.1 0.0090350695    1.0903554  0.029836149 
number of iterations: 5211 
   30800    144.73457    62835         2426        60409 2.473484e-12 5.6904436e-12          0.1 0.0090354071    1.0889324  0.029835526 
number of iterations: 5233 
   30900    145.86567    63683         2457        61226 2.5033345e-12 5.7640235e-12          0.1  0.009035802    1.0877543  0.029834804 
number of iterations: 5264 
   31000    147.00335    64491         2491        62000 2.5365085e-12 5.8381512e-12          0.1 0.0090362713    1.0889561  0.029833955 
number of iterations: 5283 
   31100      148.189    65339         2531        62808 2.566961e-12 5.9140174e-12          0.1 0.0090366567    1.0865117  0.029833238 
number of iterations: 5309 
   31200    149.34693    66143         2555        63588 2.600028e-12 5.9898103e-12          0.1 0.0090370929    1.0876367   0.02983245 
number of iterations: 5323 
   31300    150.90013    66986         2586        64400 2.6312446e-12 6.0665916e-12          0.1  0.009037512    1.0854867  0.029831675 
number of iterations: 5384 
   31400    152.15155    67891         2612        65279 2.6642024e-12 6.1452921e-12          0.1 0.0090379326     1.085523  0.029830908 
number of iterations: 5463 
   31500    153.38249    68740         2648        66092 2.6950025e-12 6.2248067e-12          0.1 0.0090383229    1.0826335  0.029830183 
number of iterations: 5528 
   31600    154.64815    69633         2686        66947 2.7300236e-12 6.3032969e-12          0.1 0.0090388068    1.0848525  0.029829314 
number of iterations: 5599 
   31700    155.88038    70487         2719        67768 2.7625447e-12 6.3834508e-12          0.1 0.0090392554    1.0820126  0.029828481 
number of iterations: 5642 
   31800    157.13891    71394         2765        68629 2.798315e-12 6.464559e-12          0.1 0.0090396497    1.0840272   0.02982776 
number of iterations: 5701 
   31900    158.44736    72311         2802        69509 2.832644e-12 6.5478785e-12          0.1 0.0090401275    1.0815643   0.02982688 
number of iterations: 5788 
   32000    159.72635    73250         2824        70426 2.8640006e-12 6.6318391e-12          0.1  0.009040527     1.079066  0.029826146 
number of iterations: 5868 
   32100     161.0177    74151         2867        71284 2.8993374e-12 6.7162078e-12          0.1  0.009041007    1.0796765  0.029825278 
number of iterations: 5944 
   32200    162.36552    75115         2912        72203 2.9357898e-12 6.8008979e-12          0.1  0.009041452    1.0792238  0.029824455 
number of iterations: 6002 
   32300    163.70514    76056         2948        73108 2.9738785e-12 6.8865681e-12          0.1 0.0090419887    1.0803802  0.029823482 
number of iterations: 6075 
   32400    165.13177    77002         2976        74026 3.0088732e-12 6.9746786e-12          0.1 0.0090424309    1.0772296  0.029822658 
number of iterations: 6141 
   32500    166.58934    77914         2996        74918 3.0404321e-12 7.062301e-12          0.1 0.0090428511    1.0744417  0.029821888 
number of iterations: 6219 
   32600    167.99972    78892         3038        75854 3.0759424e-12 7.1500605e-12          0.1  0.009043324    1.0746091   0.02982103 
number of iterations: 6289 
   32700    169.41789    79861         3082        76779 3.1133641e-12 7.2396449e-12          0.1 0.0090437576    1.0736098  0.029820224 
number of iterations: 6394 
   32800    171.09138    80843         3105        77738 3.1470304e-12 7.3292298e-12          0.1  0.009044165    1.0705294  0.029819466 
number of iterations: 6470 
   32900    172.57153    81895         3133        78762 3.182138e-12 7.4219801e-12          0.1 0.0090446304    1.0691789   0.02981862 
number of iterations: 6555 
   33000    174.06806    82914         3170        79744 3.2185033e-12 7.5136449e-12          0.1 0.0090451327    1.0679374  0.029817704 
number of iterations: 6611 
   33100    175.57262    83946         3207        80739 3.2585646e-12 7.6064878e-12          0.1 0.0090456627    1.0691768   0.02981674 
number of iterations: 6662 
   33200      177.093    84966         3254        81712 3.2989871e-12 7.6995864e-12          0.1 0.0090462036    1.0685563  0.029815745 
number of iterations: 6728 
   33300     178.6343    86036         3288        82748 3.3362015e-12 7.7945262e-12          0.1 0.0090467205    1.0663561    0.0298148 
number of iterations: 6736 
   33400    180.18988    87078         3325        83753 3.3701031e-12 7.8889849e-12          0.1 0.0090471589    1.0631466  0.029813993 
number of iterations: 6777 
   33500     181.7688    88145         3356        84789 3.4063156e-12 7.9850334e-12          0.1 0.0090476326    1.0622719  0.029813133 
number of iterations: 6847 
   33600    183.34427    89218         3404        85814 3.4486578e-12 8.0831566e-12          0.1 0.0090482202    1.0634726  0.029812066 
number of iterations: 6891 
   33700     184.9966    90289         3449        86840 3.4905311e-12 8.1805078e-12          0.1 0.0090488279    1.0625763  0.029810956 
number of iterations: 6945 
   33800     186.6082    91394         3493        87901 3.5303388e-12 8.2795238e-12          0.1 0.0090493592    1.0615326  0.029809984 
number of iterations: 6998 
   33900    188.23304    92512         3527        88985 3.5718573e-12 8.3794001e-12          0.1 0.0090499686    1.0617374  0.029808881 
number of iterations: 7062 
   34000    189.88252    93599         3569        90030 3.6142907e-12 8.479398e-12          0.1 0.0090505502    1.0613747  0.029807818 
number of iterations: 7146 
   34100    191.57861    94735         3605        91130 3.650511e-12 8.5807545e-12          0.1  0.009050936    1.0562459  0.029807083 
number of iterations: 7236 
   34200    193.25145    95846         3640        92206 3.6924602e-12 8.6834661e-12          0.1 0.0090515645    1.0604602  0.029805968 
number of iterations: 7286 
   34300     194.9806    96985         3682        93303 3.736535e-12 8.786865e-12          0.1 0.0090521444    1.0558363  0.029804881 
number of iterations: 7352 
   34400    196.69387    98166         3731        94435 3.7809687e-12 8.8909069e-12          0.1 0.0090527371    1.0612675  0.029803824 
number of iterations: 7353 
   34500    198.42428    99270         3776        95494 3.8263308e-12 8.9945085e-12          0.1 0.0090533874    1.0559313  0.029802611 
number of iterations: 7440 
   34600    200.19109   100472         3808        96664 3.8653117e-12 9.099956e-12          0.1 0.0090538491    1.0576615  0.029801776 
number of iterations: 7471 
   34700    202.03114   101694         3848        97846 3.9102283e-12 9.2062911e-12          0.1 0.0090545312    1.0553293  0.029800529 
number of iterations: 7457 
   34800    203.88041   102837         3881        98956 3.9460192e-12 9.3130421e-12          0.1 0.0090549597    1.0506536   0.02979973 
number of iterations: 7538 
   34900    205.76359   103970         3919       100051 3.9907738e-12 9.4199089e-12          0.1 0.0090555783    1.0562271  0.029798627 
number of iterations: 7512 
   35000    207.59366   105156         3958       101198 4.0332076e-12 9.5281044e-12          0.1 0.0090561054    1.0462228  0.029797614 
Loop time of 207.594 on 32 procs for 35000 steps with 105156 atoms

Performance: 145669151.943 tau/day, 168.599 timesteps/s
93.3% CPU use with 32 MPI tasks x no OpenMP threads

MPI task timing breakdown:
Section |  min time  |  avg time  |  max time  |%varavg| %total
---------------------------------------------------------------
Pair    | 0.13748    | 5.339      | 13.555     | 150.1 |  2.57
Neigh   | 0.063952   | 1.7626     | 3.9374     |  74.2 |  0.85
Comm    | 0.77885    | 1.7817     | 2.6336     |  30.8 |  0.86
Output  | 58.053     | 58.053     | 58.062     |   0.0 | 27.96
Modify  | 126.98     | 127.65     | 128.37     |   3.0 | 61.49
Other   |            | 13.01      |            |       |  6.27

Nlocal:    3286.12 ave 5631 max 335 min
Histogram: 2 1 3 0 5 7 7 2 2 3
Nghost:    1768.06 ave 3457 max 465 min
Histogram: 4 1 5 4 7 3 4 1 2 1
Neighs:    27347.4 ave 53644 max 2560 min
Histogram: 3 2 1 4 6 8 2 3 1 2

Total # of neighbors = 875118
Ave neighs/atom = 8.32209
Neighbor list builds = 851
Dangerous builds = 0
Total wall time: 0:03:27
