 NUFEB Simulation

     50 atoms 
     2 atom types 
     4 nutrients 

  0.0e-4   1.00e-04  xlo xhi 
  0.0e-4   1.00e-04  ylo yhi 
  0.0e-4   5.00e-05  zlo zhi 

 Atoms 

     1 1 1.78e-06  370 2.58e-05 7.58e-05 3.89e-05 1.78e-06 
     2 1 1.64e-06  370 8.64e-05 4.21e-05 4.02e-05 1.64e-06 
     3 1 1.62e-06  370 9.37e-05 9.27e-05 4.45e-05 1.62e-06 
     4 1 1.52e-06  370 8.08e-05 2.81e-05 4.22e-05 1.52e-06 
     5 1 1.49e-06  370 7.95e-05 5.29e-05 1.00e-05 1.49e-06 
     6 1 1.56e-06  370 1.03e-05 9.23e-06 4.58e-05 1.56e-06 
     7 1 1.42e-06  370 3.80e-05 5.49e-05 3.02e-05 1.42e-06 
     8 1 1.65e-06  370 8.07e-05 1.63e-05 1.94e-05 1.65e-06 
     9 1 1.69e-06  370 5.82e-05 5.08e-05 1.78e-06 1.69e-06 
     10 1 1.77e-06  370 3.66e-05 5.76e-05 1.23e-05 1.77e-06 
     11 1 1.83e-06  370 6.11e-05 8.52e-05 2.04e-05 1.83e-06 
     12 1 1.88e-06  370 4.15e-05 8.01e-05 2.66e-05 1.88e-06 
     13 1 1.64e-06  370 4.61e-05 7.31e-06 2.93e-05 1.64e-06 
     14 1 1.43e-06  370 1.90e-06 5.25e-05 1.76e-06 1.43e-06 
     15 1 1.65e-06  370 6.25e-05 4.16e-06 5.51e-06 1.65e-06 
     16 1 1.67e-06  370 1.78e-06 2.56e-05 2.51e-05 1.67e-06 
     17 1 1.88e-06  370 3.50e-05 7.35e-05 1.65e-05 1.88e-06 
     18 1 1.56e-06  370 2.14e-05 7.21e-05 2.12e-05 1.56e-06 
     19 1 1.62e-06  370 1.42e-05 2.65e-05 1.86e-05 1.62e-06 
     20 1 1.73e-06  370 6.38e-05 1.87e-05 2.37e-05 1.73e-06 
     21 1 1.74e-06  370 5.03e-05 3.69e-05 4.79e-05 1.74e-06 
     22 1 1.82e-06  370 3.58e-05 7.67e-05 4.49e-05 1.82e-06 
     23 1 1.38e-06  370 5.42e-05 5.44e-05 4.48e-05 1.38e-06 
     24 1 1.43e-06  370 8.93e-05 2.10e-05 2.18e-06 1.43e-06 
     25 1 1.78e-06  370 9.06e-05 7.49e-05 1.69e-05 1.78e-06 
     26 1 1.86e-06  370 8.71e-05 6.09e-05 2.97e-05 1.86e-06 
     27 1 1.47e-06  370 7.20e-05 3.15e-05 2.19e-05 1.47e-06 
     28 1 1.86e-06  370 8.01e-05 3.58e-05 4.07e-05 1.86e-06 
     29 1 1.47e-06  370 7.12e-05 1.92e-05 2.20e-05 1.47e-06 
     30 1 1.52e-06  370 3.28e-05 5.19e-05 5.67e-06 1.52e-06 
     31 1 1.76e-06  370 2.80e-05 8.80e-05 1.06e-05 1.76e-06 
     32 1 1.80e-06  370 7.70e-05 5.90e-05 1.70e-05 1.80e-06 
     33 1 1.45e-06  370 1.20e-05 4.61e-06 3.22e-05 1.45e-06 
     34 1 1.42e-06  370 5.77e-05 9.47e-05 1.88e-05 1.42e-06 
     35 1 1.52e-06  370 4.74e-05 4.33e-05 1.54e-05 1.52e-06 
     36 1 1.65e-06  370 7.09e-06 1.19e-05 2.40e-05 1.65e-06 
     37 1 1.88e-06  370 4.39e-05 5.73e-05 2.05e-05 1.88e-06 
     38 1 1.60e-06  370 7.85e-05 6.82e-05 8.82e-06 1.60e-06 
     39 1 1.72e-06  370 9.15e-05 6.02e-05 9.97e-06 1.72e-06 
     40 1 1.55e-06  370 5.45e-05 4.14e-05 2.91e-05 1.55e-06 
     41 1 1.42e-06  370 5.67e-05 6.00e-05 4.17e-05 1.42e-06 
     42 1 1.54e-06  370 9.11e-05 3.10e-05 1.05e-05 1.54e-06 
     43 1 1.49e-06  370 3.16e-05 3.33e-05 4.69e-05 1.49e-06 
     44 1 1.85e-06  370 4.59e-05 6.34e-06 2.12e-05 1.85e-06 
     45 1 1.83e-06  370 7.51e-05 8.41e-05 3.43e-05 1.83e-06 
     46 1 1.40e-06  370 1.35e-05 6.00e-05 4.17e-05 1.40e-06 
     47 1 1.53e-06  370 3.44e-05 6.37e-05 2.89e-05 1.53e-06 
     48 1 1.74e-06  370 4.02e-05 2.97e-05 2.85e-05 1.74e-06 
     49 1 1.75e-06  370 1.32e-05 8.87e-05 1.40e-05 1.75e-06 
     50 1 1.91e-06  370 7.05e-05 7.09e-05 1.08e-05 1.91e-06 

 Nutrients 

     1 sub g nn nn nn 1.00e-01 1.00e-01 
     2 o2 l nn nn nd 9.00e-03 9.00e-03 
     3 suc l nn nn nn 3.42e-20 3.42e-20 
     4 co2 l nn nn nd 2.99e-02 2.99e-02 

 Type Name 

     1 cyano  
     2 ecw  

 Diffusion Coeffs 

     sub 0 
     o2 2.3e-09 
     suc 5.2e-10 
     co2 1.9e-09 

 Growth Rate 

     cyano 2.047e-05 
     ecw 6.71e-05 

 Ks 

     cyano 0.00035 0.0002 0.01 0.000138 
     ecw 0 0.001 3.6 0.05 

 Yield 

     cyano 0.55 
     ecw 0.43 

 Maintenance 

     cyano 0 
     ecw 9.5e-07 

 Decay 

     cyano 0 
     ecw 0 



