 NUFEB Simulation

     50 atoms 
     2 atom types 
     4 nutrients 

  0.0e-4   1.00e-04  xlo xhi 
  0.0e-4   1.00e-04  ylo yhi 
  0.0e-4   5.00e-05  zlo zhi 

 Atoms 

     1 1 1.76e-06  370 5.76e-05 7.48e-05 3.83e-05 1.76e-06 
     2 1 1.64e-06  370 3.58e-05 8.92e-05 2.02e-05 1.64e-06 
     3 1 1.59e-06  370 2.86e-05 3.91e-06 1.86e-05 1.59e-06 
     4 1 1.93e-06  370 1.56e-05 3.09e-05 2.85e-05 1.93e-06 
     5 1 1.84e-06  370 5.33e-05 2.34e-05 3.20e-05 1.84e-06 
     6 1 1.45e-06  370 6.07e-05 3.48e-06 1.03e-05 1.45e-06 
     7 1 1.43e-06  370 3.33e-06 1.87e-05 4.17e-05 1.43e-06 
     8 1 1.57e-06  370 2.79e-06 4.69e-05 3.97e-05 1.57e-06 
     9 1 1.53e-06  370 2.12e-05 7.82e-05 4.54e-05 1.53e-06 
     10 1 1.93e-06  370 9.44e-05 5.91e-05 9.38e-06 1.93e-06 
     11 1 1.72e-06  370 8.61e-05 6.73e-05 3.82e-05 1.72e-06 
     12 1 1.37e-06  370 2.27e-05 5.03e-05 4.52e-06 1.37e-06 
     13 1 1.74e-06  370 1.42e-05 6.25e-05 3.21e-05 1.74e-06 
     14 1 1.59e-06  370 5.61e-05 2.32e-06 2.75e-05 1.59e-06 
     15 1 1.38e-06  370 1.77e-06 4.08e-05 6.97e-06 1.38e-06 
     16 1 1.81e-06  370 9.24e-05 8.75e-05 4.28e-05 1.81e-06 
     17 1 1.62e-06  370 4.28e-05 2.82e-05 1.11e-05 1.62e-06 
     18 1 1.86e-06  370 5.23e-06 8.34e-05 6.56e-06 1.86e-06 
     19 1 1.70e-06  370 9.20e-05 4.92e-05 7.26e-06 1.70e-06 
     20 1 1.46e-06  370 5.39e-05 4.71e-05 2.54e-05 1.46e-06 
     21 1 1.56e-06  370 5.00e-05 5.85e-05 8.56e-06 1.56e-06 
     22 1 1.51e-06  370 5.12e-05 1.30e-05 1.44e-05 1.51e-06 
     23 1 1.89e-06  370 4.94e-05 1.76e-05 1.36e-05 1.89e-06 
     24 1 1.90e-06  370 5.68e-05 5.45e-05 3.89e-06 1.90e-06 
     25 1 1.75e-06  370 4.30e-05 6.69e-05 1.58e-05 1.75e-06 
     26 1 1.47e-06  370 6.28e-05 5.93e-05 1.86e-05 1.47e-06 
     27 1 1.87e-06  370 6.32e-05 3.11e-05 3.85e-06 1.87e-06 
     28 1 1.48e-06  370 6.71e-05 9.43e-05 2.41e-06 1.48e-06 
     29 1 1.62e-06  370 8.38e-05 5.27e-05 3.44e-05 1.62e-06 
     30 1 1.53e-06  370 4.83e-05 6.47e-05 9.78e-06 1.53e-06 
     31 1 1.45e-06  370 5.41e-05 6.20e-06 4.27e-05 1.45e-06 
     32 1 1.53e-06  370 5.04e-05 7.59e-05 3.17e-05 1.53e-06 
     33 1 1.58e-06  370 9.27e-05 2.30e-05 1.40e-05 1.58e-06 
     34 1 1.81e-06  370 3.36e-05 1.67e-05 2.02e-05 1.81e-06 
     35 1 1.89e-06  370 6.20e-05 9.41e-06 4.19e-05 1.89e-06 
     36 1 1.70e-06  370 2.59e-05 7.84e-05 4.45e-05 1.70e-06 
     37 1 1.61e-06  370 4.72e-05 4.76e-05 3.39e-05 1.61e-06 
     38 1 1.56e-06  370 8.48e-05 3.18e-05 5.28e-06 1.56e-06 
     39 1 1.53e-06  370 1.22e-05 5.11e-05 2.23e-05 1.53e-06 
     40 1 1.61e-06  370 5.67e-05 9.23e-05 9.76e-06 1.61e-06 
     41 1 1.40e-06  370 4.56e-05 6.44e-06 4.46e-05 1.40e-06 
     42 1 1.62e-06  370 4.35e-05 6.66e-05 1.45e-05 1.62e-06 
     43 1 1.86e-06  370 1.79e-05 3.60e-05 2.28e-05 1.86e-06 
     44 1 1.84e-06  370 1.61e-05 5.82e-05 3.98e-05 1.84e-06 
     45 1 1.42e-06  370 7.41e-05 3.19e-05 1.47e-05 1.42e-06 
     46 1 1.63e-06  370 9.69e-05 2.49e-05 1.36e-05 1.63e-06 
     47 1 1.85e-06  370 1.26e-05 3.04e-05 4.31e-05 1.85e-06 
     48 1 1.46e-06  370 1.93e-05 9.52e-05 3.63e-05 1.46e-06 
     49 1 1.86e-06  370 6.70e-05 6.17e-05 8.31e-06 1.86e-06 
     50 1 1.52e-06  370 1.78e-05 8.75e-05 6.17e-06 1.52e-06 

 Nutrients 

     1 sub g nn nn nn 1.00e-01 1.00e-01 
     2 o2 l nn nn nd 9.00e-03 9.00e-03 
     3 suc l nn nn nn 3.42e-20 3.42e-20 
     4 co2 l nn nn nd 2.99e-02 2.99e-02 

 Type Name 

     1 cyano  
     2 ecw  

 Diffusion Coeffs 

     sub 0 
     o2 2.3e-09 
     suc 5.2e-10 
     co2 1.9e-09 

 Growth Rate 

     cyano 2.047e-05 
     ecw 6.71e-05 

 Ks 

     cyano 0.00035 0.0002 0.01 0.000138 
     ecw 0 0.001 3.6 0.05 

 Yield 

     cyano 0.55 
     ecw 0.43 

 Maintenance 

     cyano 0 
     ecw 9.5e-07 

 Decay 

     cyano 0 
     ecw 0 



