ITEM: TIMESTEP
0
ITEM: NUMBER OF ATOMS
50
ITEM: BOX BOUNDS ff ff ff
0.0000000000000000e+00 1.0000000000000000e-04
0.0000000000000000e+00 1.0000000000000000e-04
0.0000000000000000e+00 5.0000000000000002e-05
ITEM: ATOMS id type diameter x y z 
15 1 1.38e-06 1.77e-06 4.08e-05 6.97e-06 
17 1 1.62e-06 4.28e-05 2.82e-05 1.11e-05 
23 1 1.89e-06 4.94e-05 1.76e-05 1.36e-05 
3 1 1.59e-06 2.86e-05 3.91e-06 1.86e-05 
34 1 1.81e-06 3.36e-05 1.67e-05 2.02e-05 
43 1 1.86e-06 1.79e-05 3.6e-05 2.28e-05 
4 1 1.93e-06 1.56e-05 3.09e-05 2.85e-05 
37 1 1.61e-06 4.72e-05 4.76e-05 3.39e-05 
8 1 1.57e-06 2.79e-06 4.69e-05 3.97e-05 
7 1 1.43e-06 3.33e-06 1.87e-05 4.17e-05 
47 1 1.85e-06 1.26e-05 3.04e-05 4.31e-05 
41 1 1.4e-06 4.56e-05 6.44e-06 4.46e-05 
12 1 1.37e-06 2.27e-05 5.03e-05 4.52e-06 
50 1 1.52e-06 1.78e-05 8.75e-05 6.17e-06 
18 1 1.86e-06 5.23e-06 8.34e-05 6.56e-06 
30 1 1.53e-06 4.83e-05 6.47e-05 9.78e-06 
42 1 1.62e-06 4.35e-05 6.66e-05 1.45e-05 
25 1 1.75e-06 4.3e-05 6.69e-05 1.58e-05 
2 1 1.64e-06 3.58e-05 8.92e-05 2.02e-05 
39 1 1.53e-06 1.22e-05 5.11e-05 2.23e-05 
13 1 1.74e-06 1.42e-05 6.25e-05 3.21e-05 
48 1 1.46e-06 1.93e-05 9.52e-05 3.63e-05 
44 1 1.84e-06 1.61e-05 5.82e-05 3.98e-05 
36 1 1.7e-06 2.59e-05 7.84e-05 4.45e-05 
9 1 1.53e-06 2.12e-05 7.82e-05 4.54e-05 
27 1 1.87e-06 6.32e-05 3.11e-05 3.85e-06 
38 1 1.56e-06 8.48e-05 3.18e-05 5.28e-06 
19 1 1.7e-06 9.2e-05 4.92e-05 7.26e-06 
6 1 1.45e-06 6.07e-05 3.48e-06 1.03e-05 
33 1 1.58e-06 9.27e-05 2.3e-05 1.4e-05 
46 1 1.63e-06 9.69e-05 2.49e-05 1.36e-05 
22 1 1.51e-06 5.12e-05 1.3e-05 1.44e-05 
45 1 1.42e-06 7.41e-05 3.19e-05 1.47e-05 
20 1 1.46e-06 5.39e-05 4.71e-05 2.54e-05 
14 1 1.59e-06 5.61e-05 2.32e-06 2.75e-05 
5 1 1.84e-06 5.33e-05 2.34e-05 3.2e-05 
35 1 1.89e-06 6.2e-05 9.41e-06 4.19e-05 
31 1 1.45e-06 5.41e-05 6.2e-06 4.27e-05 
28 1 1.48e-06 6.71e-05 9.43e-05 2.41e-06 
24 1 1.9e-06 5.68e-05 5.45e-05 3.89e-06 
49 1 1.86e-06 6.7e-05 6.17e-05 8.31e-06 
21 1 1.56e-06 5e-05 5.85e-05 8.56e-06 
10 1 1.93e-06 9.44e-05 5.91e-05 9.38e-06 
40 1 1.61e-06 5.67e-05 9.23e-05 9.76e-06 
26 1 1.47e-06 6.28e-05 5.93e-05 1.86e-05 
32 1 1.53e-06 5.04e-05 7.59e-05 3.17e-05 
29 1 1.62e-06 8.38e-05 5.27e-05 3.44e-05 
11 1 1.72e-06 8.61e-05 6.73e-05 3.82e-05 
1 1 1.76e-06 5.76e-05 7.48e-05 3.83e-05 
16 1 1.81e-06 9.24e-05 8.75e-05 4.28e-05 
ITEM: TIMESTEP
100
ITEM: NUMBER OF ATOMS
50
ITEM: BOX BOUNDS ff ff ff
0.0000000000000000e+00 1.0000000000000000e-04
0.0000000000000000e+00 1.0000000000000000e-04
0.0000000000000000e+00 5.0000000000000002e-05
ITEM: ATOMS id type diameter x y z 
15 1 1.38928e-06 1.77e-06 4.08e-05 6.97e-06 
17 1 1.63089e-06 4.28e-05 2.82e-05 1.11e-05 
23 1 1.90271e-06 4.94e-05 1.76e-05 1.36e-05 
3 1 1.60069e-06 2.86e-05 3.91e-06 1.86e-05 
34 1 1.82217e-06 3.36e-05 1.67e-05 2.02e-05 
43 1 1.8725e-06 1.79e-05 3.6e-05 2.28e-05 
4 1 1.94298e-06 1.56e-05 3.09e-05 2.85e-05 
37 1 1.62082e-06 4.72e-05 4.76e-05 3.39e-05 
8 1 1.58056e-06 2.79e-06 4.69e-05 3.97e-05 
7 1 1.43961e-06 3.33e-06 1.87e-05 4.17e-05 
47 1 1.86244e-06 1.26e-05 3.04e-05 4.31e-05 
41 1 1.40941e-06 4.56e-05 6.44e-06 4.46e-05 
12 1 1.37921e-06 2.27e-05 5.03e-05 4.52e-06 
50 1 1.53022e-06 1.78e-05 8.75e-05 6.17e-06 
18 1 1.8725e-06 5.23e-06 8.34e-05 6.56e-06 
30 1 1.54029e-06 4.83e-05 6.47e-05 9.78e-06 
42 1 1.63089e-06 4.35491e-05 6.65705e-05 1.43723e-05 
25 1 1.76177e-06 4.29509e-05 6.69295e-05 1.59277e-05 
2 1 1.65103e-06 3.58e-05 8.92e-05 2.02e-05 
39 1 1.54029e-06 1.22e-05 5.11e-05 2.23e-05 
13 1 1.7517e-06 1.42e-05 6.25e-05 3.21e-05 
48 1 1.46982e-06 1.93e-05 9.52e-05 3.63e-05 
44 1 1.85237e-06 1.61e-05 5.82e-05 3.98e-05 
36 1 1.71143e-06 2.59e-05 7.84e-05 4.45e-05 
9 1 1.54029e-06 2.12e-05 7.82e-05 4.54e-05 
27 1 1.88257e-06 6.32e-05 3.11e-05 3.85e-06 
38 1 1.57049e-06 8.48e-05 3.18e-05 5.28e-06 
19 1 1.71143e-06 9.2e-05 4.92e-05 7.26e-06 
6 1 1.45975e-06 6.07e-05 3.48e-06 1.03e-05 
33 1 1.59062e-06 9.27e-05 2.3e-05 1.4e-05 
46 1 1.64096e-06 9.69e-05 2.49e-05 1.36e-05 
22 1 1.52015e-06 5.12e-05 1.3e-05 1.44e-05 
45 1 1.42955e-06 7.41e-05 3.19e-05 1.47e-05 
20 1 1.46982e-06 5.39e-05 4.71e-05 2.54e-05 
14 1 1.60069e-06 5.61e-05 2.32e-06 2.75e-05 
5 1 1.85237e-06 5.33e-05 2.34e-05 3.2e-05 
35 1 1.90271e-06 6.2e-05 9.41e-06 4.19e-05 
31 1 1.45975e-06 5.41e-05 6.2e-06 4.27e-05 
28 1 1.48995e-06 6.71e-05 9.43e-05 2.41e-06 
24 1 1.91277e-06 5.68e-05 5.45e-05 3.89e-06 
49 1 1.8725e-06 6.7e-05 6.17e-05 8.31e-06 
21 1 1.57049e-06 5e-05 5.85e-05 8.56e-06 
10 1 1.94298e-06 9.44e-05 5.91e-05 9.38e-06 
40 1 1.62082e-06 5.67e-05 9.23e-05 9.76e-06 
26 1 1.47988e-06 6.28e-05 5.93e-05 1.86e-05 
32 1 1.54029e-06 5.04e-05 7.59e-05 3.17e-05 
29 1 1.63089e-06 8.38e-05 5.27e-05 3.44e-05 
11 1 1.73156e-06 8.61e-05 6.73e-05 3.82e-05 
1 1 1.77183e-06 5.76e-05 7.48e-05 3.83e-05 
16 1 1.82217e-06 9.24e-05 8.75e-05 4.28e-05 
ITEM: TIMESTEP
200
ITEM: NUMBER OF ATOMS
50
ITEM: BOX BOUNDS ff ff ff
0.0000000000000000e+00 1.0000000000000000e-04
0.0000000000000000e+00 1.0000000000000000e-04
0.0000000000000000e+00 5.0000000000000002e-05
ITEM: ATOMS id type diameter x y z 
15 1 1.39862e-06 1.77e-06 4.08e-05 6.97e-06 
17 1 1.64186e-06 4.28e-05 2.82e-05 1.11e-05 
23 1 1.9155e-06 4.94e-05 1.76e-05 1.36e-05 
3 1 1.61145e-06 2.86e-05 3.91e-06 1.86e-05 
34 1 1.83442e-06 3.36e-05 1.67e-05 2.02e-05 
43 1 1.88509e-06 1.79e-05 3.6e-05 2.28e-05 
4 1 1.95604e-06 1.56e-05 3.09e-05 2.85e-05 
37 1 1.63172e-06 4.72e-05 4.76e-05 3.39e-05 
8 1 1.59118e-06 2.79e-06 4.69e-05 3.97e-05 
7 1 1.44929e-06 3.33e-06 1.87e-05 4.17e-05 
47 1 1.87496e-06 1.26e-05 3.04e-05 4.31e-05 
41 1 1.41889e-06 4.56e-05 6.44e-06 4.46e-05 
12 1 1.38848e-06 2.27e-05 5.03e-05 4.52e-06 
50 1 1.54051e-06 1.78e-05 8.75e-05 6.17e-06 
18 1 1.88509e-06 5.23e-06 8.34e-05 6.56e-06 
30 1 1.55064e-06 4.83e-05 6.47e-05 9.78e-06 
42 1 1.64186e-06 4.35491e-05 6.65705e-05 1.43723e-05 
25 1 1.77361e-06 4.29509e-05 6.69295e-05 1.59277e-05 
2 1 1.66213e-06 3.58e-05 8.92e-05 2.02e-05 
39 1 1.55064e-06 1.22e-05 5.11e-05 2.23e-05 
13 1 1.76347e-06 1.42e-05 6.25e-05 3.21e-05 
48 1 1.4797e-06 1.93e-05 9.52e-05 3.63e-05 
44 1 1.86482e-06 1.61e-05 5.82e-05 3.98e-05 
36 1 1.72294e-06 2.59e-05 7.84e-05 4.45e-05 
9 1 1.55064e-06 2.12e-05 7.82e-05 4.54e-05 
27 1 1.89523e-06 6.32e-05 3.11e-05 3.85e-06 
38 1 1.58105e-06 8.48e-05 3.18e-05 5.28e-06 
19 1 1.72294e-06 9.2e-05 4.92e-05 7.26e-06 
6 1 1.46956e-06 6.07e-05 3.48e-06 1.03e-05 
33 1 1.60132e-06 9.27e-05 2.3e-05 1.4e-05 
46 1 1.65199e-06 9.69e-05 2.49e-05 1.36e-05 
22 1 1.53037e-06 5.12e-05 1.3e-05 1.44e-05 
45 1 1.43916e-06 7.41e-05 3.19e-05 1.47e-05 
20 1 1.4797e-06 5.39e-05 4.71e-05 2.54e-05 
14 1 1.61145e-06 5.61e-05 2.32e-06 2.75e-05 
5 1 1.86482e-06 5.33e-05 2.34e-05 3.2e-05 
35 1 1.9155e-06 6.2e-05 9.41e-06 4.19e-05 
31 1 1.46956e-06 5.41e-05 6.2e-06 4.27e-05 
28 1 1.49997e-06 6.71e-05 9.43e-05 2.41e-06 
24 1 1.92563e-06 5.68e-05 5.45e-05 3.89e-06 
49 1 1.88509e-06 6.7e-05 6.17e-05 8.31e-06 
21 1 1.58105e-06 5e-05 5.85e-05 8.56e-06 
10 1 1.95604e-06 9.44e-05 5.91e-05 9.38e-06 
40 1 1.63172e-06 5.67e-05 9.23e-05 9.76e-06 
26 1 1.48983e-06 6.28e-05 5.93e-05 1.86e-05 
32 1 1.55064e-06 5.04e-05 7.59e-05 3.17e-05 
29 1 1.64186e-06 8.38e-05 5.27e-05 3.44e-05 
11 1 1.7432e-06 8.61e-05 6.73e-05 3.82e-05 
1 1 1.78374e-06 5.76e-05 7.48e-05 3.83e-05 
16 1 1.83442e-06 9.24e-05 8.75e-05 4.28e-05 
ITEM: TIMESTEP
300
ITEM: NUMBER OF ATOMS
50
ITEM: BOX BOUNDS ff ff ff
0.0000000000000000e+00 1.0000000000000000e-04
0.0000000000000000e+00 1.0000000000000000e-04
0.0000000000000000e+00 5.0000000000000002e-05
ITEM: ATOMS id type diameter x y z 
15 1 1.40802e-06 1.77e-06 4.08e-05 6.97e-06 
17 1 1.65289e-06 4.28e-05 2.82e-05 1.11e-05 
23 1 1.92838e-06 4.94e-05 1.76e-05 1.36e-05 
3 1 1.62228e-06 2.86e-05 3.91e-06 1.86e-05 
34 1 1.84675e-06 3.36e-05 1.67e-05 2.02e-05 
43 1 1.89777e-06 1.79e-05 3.6e-05 2.28e-05 
4 1 1.96919e-06 1.56e-05 3.09e-05 2.85e-05 
37 1 1.64269e-06 4.72e-05 4.76e-05 3.39e-05 
8 1 1.60188e-06 2.79e-06 4.69e-05 3.97e-05 
7 1 1.45904e-06 3.33e-06 1.87e-05 4.17e-05 
47 1 1.88756e-06 1.26e-05 3.04e-05 4.31e-05 
41 1 1.42843e-06 4.56e-05 6.44e-06 4.46e-05 
12 1 1.39782e-06 2.27e-05 5.03e-05 4.52e-06 
50 1 1.55086e-06 1.78e-05 8.75e-05 6.17e-06 
18 1 1.89777e-06 5.23e-06 8.34e-05 6.56e-06 
30 1 1.56107e-06 4.83e-05 6.47e-05 9.78e-06 
42 1 1.65289e-06 4.35491e-05 6.65705e-05 1.43723e-05 
25 1 1.78553e-06 4.29509e-05 6.69295e-05 1.59277e-05 
2 1 1.6733e-06 3.58e-05 8.92e-05 2.02e-05 
39 1 1.56107e-06 1.22e-05 5.11e-05 2.23e-05 
13 1 1.77533e-06 1.42e-05 6.25e-05 3.21e-05 
48 1 1.48965e-06 1.93e-05 9.52e-05 3.63e-05 
44 1 1.87736e-06 1.61e-05 5.82e-05 3.98e-05 
36 1 1.73452e-06 2.59e-05 7.84e-05 4.45e-05 
9 1 1.56107e-06 2.12e-05 7.82e-05 4.54e-05 
27 1 1.90797e-06 6.32e-05 3.11e-05 3.85e-06 
38 1 1.59168e-06 8.48e-05 3.18e-05 5.28e-06 
19 1 1.73452e-06 9.2e-05 4.92e-05 7.26e-06 
6 1 1.47944e-06 6.07e-05 3.48e-06 1.03e-05 
33 1 1.61208e-06 9.27e-05 2.3e-05 1.4e-05 
46 1 1.6631e-06 9.69e-05 2.49e-05 1.36e-05 
22 1 1.54066e-06 5.12e-05 1.3e-05 1.44e-05 
45 1 1.44883e-06 7.41e-05 3.19e-05 1.47e-05 
20 1 1.48965e-06 5.39e-05 4.71e-05 2.54e-05 
14 1 1.62228e-06 5.61e-05 2.32e-06 2.75e-05 
5 1 1.87736e-06 5.33e-05 2.34e-05 3.2e-05 
35 1 1.92838e-06 6.2e-05 9.41e-06 4.19e-05 
31 1 1.47944e-06 5.41e-05 6.2e-06 4.27e-05 
28 1 1.51005e-06 6.71e-05 9.43e-05 2.41e-06 
24 1 1.93858e-06 5.68e-05 5.45e-05 3.89e-06 
49 1 1.89777e-06 6.7e-05 6.17e-05 8.31e-06 
21 1 1.59168e-06 5e-05 5.85e-05 8.56e-06 
10 1 1.96919e-06 9.44e-05 5.91e-05 9.38e-06 
40 1 1.64269e-06 5.67e-05 9.23e-05 9.76e-06 
26 1 1.49985e-06 6.28e-05 5.93e-05 1.86e-05 
32 1 1.56107e-06 5.04e-05 7.59e-05 3.17e-05 
29 1 1.65289e-06 8.38e-05 5.27e-05 3.44e-05 
11 1 1.75492e-06 8.61e-05 6.73e-05 3.82e-05 
1 1 1.79574e-06 5.76e-05 7.48e-05 3.83e-05 
16 1 1.84675e-06 9.24e-05 8.75e-05 4.28e-05 
ITEM: TIMESTEP
400
ITEM: NUMBER OF ATOMS
52
ITEM: BOX BOUNDS ff ff ff
0.0000000000000000e+00 1.0000000000000000e-04
0.0000000000000000e+00 1.0000000000000000e-04
0.0000000000000000e+00 5.0000000000000002e-05
ITEM: ATOMS id type diameter x y z 
15 1 1.41749e-06 1.77e-06 4.08e-05 6.97e-06 
17 1 1.66401e-06 4.28e-05 2.82e-05 1.11e-05 
23 1 1.94134e-06 4.94e-05 1.76e-05 1.36e-05 
3 1 1.63319e-06 2.86e-05 3.91e-06 1.86e-05 
34 1 1.85917e-06 3.36e-05 1.67e-05 2.02e-05 
43 1 1.91053e-06 1.79e-05 3.6e-05 2.28e-05 
4 1 1.62891e-06 1.53993e-05 3.0921e-05 2.77124e-05 
37 1 1.65373e-06 4.72e-05 4.76e-05 3.39e-05 
8 1 1.61265e-06 2.79e-06 4.69e-05 3.97e-05 
7 1 1.46885e-06 3.33e-06 1.87e-05 4.17e-05 
47 1 1.90025e-06 1.26e-05 3.04e-05 4.31e-05 
41 1 1.43803e-06 4.56e-05 6.44e-06 4.46e-05 
51 1 1.51379e-06 1.57865e-05 3.08805e-05 2.9232e-05 
12 1 1.40722e-06 2.27e-05 5.03e-05 4.52e-06 
50 1 1.56129e-06 1.78e-05 8.75e-05 6.17e-06 
18 1 1.91053e-06 5.23e-06 8.34e-05 6.56e-06 
30 1 1.57156e-06 4.83e-05 6.47e-05 9.78e-06 
42 1 1.66401e-06 4.35491e-05 6.65705e-05 1.43723e-05 
25 1 1.79754e-06 4.29509e-05 6.69295e-05 1.59277e-05 
2 1 1.68455e-06 3.58e-05 8.92e-05 2.02e-05 
39 1 1.57156e-06 1.22e-05 5.11e-05 2.23e-05 
13 1 1.78727e-06 1.42e-05 6.25e-05 3.21e-05 
48 1 1.49966e-06 1.93e-05 9.52e-05 3.63e-05 
44 1 1.88998e-06 1.61e-05 5.82e-05 3.98e-05 
36 1 1.74618e-06 2.59e-05 7.84e-05 4.45e-05 
9 1 1.57156e-06 2.12e-05 7.82e-05 4.54e-05 
27 1 1.9208e-06 6.32e-05 3.11e-05 3.85e-06 
38 1 1.60238e-06 8.48e-05 3.18e-05 5.28e-06 
19 1 1.74618e-06 9.2e-05 4.92e-05 7.26e-06 
6 1 1.48939e-06 6.07e-05 3.48e-06 1.03e-05 
33 1 1.62292e-06 9.27e-05 2.3e-05 1.4e-05 
46 1 1.67428e-06 9.69e-05 2.49e-05 1.36e-05 
22 1 1.55102e-06 5.12e-05 1.3e-05 1.44e-05 
45 1 1.45857e-06 7.41e-05 3.19e-05 1.47e-05 
20 1 1.49966e-06 5.39e-05 4.71e-05 2.54e-05 
14 1 1.63319e-06 5.61e-05 2.32e-06 2.75e-05 
5 1 1.88998e-06 5.33e-05 2.34e-05 3.2e-05 
35 1 1.94134e-06 6.2e-05 9.41e-06 4.19e-05 
31 1 1.48939e-06 5.41e-05 6.2e-06 4.27e-05 
28 1 1.5202e-06 6.71e-05 9.43e-05 2.41e-06 
24 1 1.95161e-06 5.68e-05 5.45e-05 3.89e-06 
49 1 1.91053e-06 6.7e-05 6.17e-05 8.31e-06 
21 1 1.60238e-06 5e-05 5.85e-05 8.56e-06 
10 1 1.62891e-06 9.41993e-05 5.9121e-05 8.59237e-06 
40 1 1.65373e-06 5.67e-05 9.23e-05 9.76e-06 
26 1 1.50993e-06 6.28e-05 5.93e-05 1.86e-05 
52 1 1.51379e-06 9.45865e-05 5.90805e-05 1.0112e-05 
32 1 1.57156e-06 5.04e-05 7.59e-05 3.17e-05 
29 1 1.66401e-06 8.38e-05 5.27e-05 3.44e-05 
11 1 1.76672e-06 8.61e-05 6.73e-05 3.82e-05 
1 1 1.80781e-06 5.76e-05 7.48e-05 3.83e-05 
16 1 1.85917e-06 9.24e-05 8.75e-05 4.28e-05 
ITEM: TIMESTEP
500
ITEM: NUMBER OF ATOMS
52
ITEM: BOX BOUNDS ff ff ff
0.0000000000000000e+00 1.0000000000000000e-04
0.0000000000000000e+00 1.0000000000000000e-04
0.0000000000000000e+00 5.0000000000000002e-05
ITEM: ATOMS id type diameter x y z 
15 1 1.42702e-06 1.77e-06 4.08e-05 6.97e-06 
17 1 1.67519e-06 4.28e-05 2.82e-05 1.11e-05 
23 1 1.95439e-06 4.94e-05 1.76e-05 1.36e-05 
3 1 1.64417e-06 2.86e-05 3.91e-06 1.86e-05 
34 1 1.87167e-06 3.36e-05 1.67e-05 2.02e-05 
43 1 1.92337e-06 1.79e-05 3.6e-05 2.28e-05 
4 1 1.63986e-06 1.53993e-05 3.0921e-05 2.77124e-05 
37 1 1.66485e-06 4.72e-05 4.76e-05 3.39e-05 
8 1 1.62349e-06 2.79e-06 4.69e-05 3.97e-05 
7 1 1.47872e-06 3.33e-06 1.87e-05 4.17e-05 
47 1 1.91303e-06 1.26e-05 3.04e-05 4.31e-05 
41 1 1.4477e-06 4.56e-05 6.44e-06 4.46e-05 
51 1 1.52396e-06 1.57865e-05 3.08805e-05 2.9232e-05 
12 1 1.41668e-06 2.27e-05 5.03e-05 4.52e-06 
50 1 1.57179e-06 1.78e-05 8.75e-05 6.17e-06 
18 1 1.92337e-06 5.23e-06 8.34e-05 6.56e-06 
30 1 1.58213e-06 4.83e-05 6.47e-05 9.78e-06 
42 1 1.67519e-06 4.35561e-05 6.65663e-05 1.4354e-05 
25 1 1.80962e-06 4.29439e-05 6.69337e-05 1.5946e-05 
2 1 1.69587e-06 3.58e-05 8.92e-05 2.02e-05 
39 1 1.58213e-06 1.22e-05 5.11e-05 2.23e-05 
13 1 1.79928e-06 1.42e-05 6.25e-05 3.21e-05 
48 1 1.50974e-06 1.93e-05 9.52e-05 3.63e-05 
44 1 1.90269e-06 1.61e-05 5.82e-05 3.98e-05 
36 1 1.75792e-06 2.59e-05 7.84e-05 4.45e-05 
9 1 1.58213e-06 2.12e-05 7.82e-05 4.54e-05 
27 1 1.93371e-06 6.32e-05 3.11e-05 3.85e-06 
38 1 1.61315e-06 8.48e-05 3.18e-05 5.28e-06 
19 1 1.75792e-06 9.2e-05 4.92e-05 7.26e-06 
6 1 1.4994e-06 6.07e-05 3.48e-06 1.03e-05 
33 1 1.63383e-06 9.27e-05 2.3e-05 1.4e-05 
46 1 1.68553e-06 9.69e-05 2.49e-05 1.36e-05 
22 1 1.56145e-06 5.12e-05 1.3e-05 1.44e-05 
45 1 1.46838e-06 7.41e-05 3.19e-05 1.47e-05 
20 1 1.50974e-06 5.39e-05 4.71e-05 2.54e-05 
14 1 1.64417e-06 5.61e-05 2.32e-06 2.75e-05 
5 1 1.90269e-06 5.33e-05 2.34e-05 3.2e-05 
35 1 1.95439e-06 6.2e-05 9.41e-06 4.19e-05 
31 1 1.4994e-06 5.41e-05 6.2e-06 4.27e-05 
28 1 1.53042e-06 6.71e-05 9.43e-05 2.41e-06 
24 1 1.96473e-06 5.68e-05 5.45e-05 3.89e-06 
49 1 1.92337e-06 6.7e-05 6.17e-05 8.31e-06 
21 1 1.61315e-06 5e-05 5.85e-05 8.56e-06 
10 1 1.63986e-06 9.41993e-05 5.9121e-05 8.59237e-06 
40 1 1.66485e-06 5.67e-05 9.23e-05 9.76e-06 
26 1 1.52008e-06 6.28e-05 5.93e-05 1.86e-05 
52 1 1.52396e-06 9.45865e-05 5.90805e-05 1.0112e-05 
32 1 1.58213e-06 5.04e-05 7.59e-05 3.17e-05 
29 1 1.67519e-06 8.38e-05 5.27e-05 3.44e-05 
11 1 1.7786e-06 8.61e-05 6.73e-05 3.82e-05 
1 1 1.81996e-06 5.76e-05 7.48e-05 3.83e-05 
16 1 1.87167e-06 9.24e-05 8.75e-05 4.28e-05 
ITEM: TIMESTEP
600
ITEM: NUMBER OF ATOMS
53
ITEM: BOX BOUNDS ff ff ff
0.0000000000000000e+00 1.0000000000000000e-04
0.0000000000000000e+00 1.0000000000000000e-04
0.0000000000000000e+00 5.0000000000000002e-05
ITEM: ATOMS id type diameter x y z 
15 1 1.43661e-06 1.77e-06 4.08e-05 6.97e-06 
17 1 1.68646e-06 4.28e-05 2.82e-05 1.11e-05 
23 1 1.96753e-06 4.94e-05 1.76e-05 1.36e-05 
3 1 1.65523e-06 2.86e-05 3.91e-06 1.86e-05 
34 1 1.88425e-06 3.36e-05 1.67e-05 2.02e-05 
43 1 1.9363e-06 1.79e-05 3.6e-05 2.28e-05 
4 1 1.65088e-06 1.53993e-05 3.0921e-05 2.77124e-05 
37 1 1.67605e-06 4.72e-05 4.76e-05 3.39e-05 
8 1 1.6344e-06 2.79e-06 4.69e-05 3.97e-05 
7 1 1.48866e-06 3.33e-06 1.87e-05 4.17e-05 
47 1 1.92589e-06 1.26e-05 3.04e-05 4.31e-05 
41 1 1.45743e-06 4.56e-05 6.44e-06 4.46e-05 
51 1 1.53421e-06 1.57865e-05 3.08805e-05 2.9232e-05 
12 1 1.4262e-06 2.27e-05 5.03e-05 4.52e-06 
50 1 1.58235e-06 1.78e-05 8.75e-05 6.17e-06 
18 1 1.9363e-06 5.23e-06 8.34e-05 6.56e-06 
30 1 1.59276e-06 4.83e-05 6.47e-05 9.78e-06 
42 1 1.68646e-06 4.35561e-05 6.65663e-05 1.4354e-05 
25 1 1.82179e-06 4.29439e-05 6.69337e-05 1.5946e-05 
2 1 1.70728e-06 3.58e-05 8.92e-05 2.02e-05 
39 1 1.59276e-06 1.22e-05 5.11e-05 2.23e-05 
13 1 1.81138e-06 1.42e-05 6.25e-05 3.21e-05 
48 1 1.51989e-06 1.93e-05 9.52e-05 3.63e-05 
44 1 1.91548e-06 1.61e-05 5.82e-05 3.98e-05 
36 1 1.76974e-06 2.59e-05 7.84e-05 4.45e-05 
9 1 1.59276e-06 2.12e-05 7.82e-05 4.54e-05 
27 1 1.94671e-06 6.32e-05 3.11e-05 3.85e-06 
38 1 1.62399e-06 8.48e-05 3.18e-05 5.28e-06 
19 1 1.76974e-06 9.2e-05 4.92e-05 7.26e-06 
6 1 1.50948e-06 6.07e-05 3.48e-06 1.03e-05 
33 1 1.64481e-06 9.27e-05 2.3e-05 1.4e-05 
46 1 1.69687e-06 9.69e-05 2.49e-05 1.36e-05 
22 1 1.57194e-06 5.12e-05 1.3e-05 1.44e-05 
45 1 1.47825e-06 7.41e-05 3.19e-05 1.47e-05 
20 1 1.51989e-06 5.39e-05 4.71e-05 2.54e-05 
14 1 1.65523e-06 5.61e-05 2.32e-06 2.75e-05 
5 1 1.91548e-06 5.33e-05 2.34e-05 3.2e-05 
35 1 1.96753e-06 6.2e-05 9.41e-06 4.19e-05 
31 1 1.50948e-06 5.41e-05 6.2e-06 4.27e-05 
28 1 1.54071e-06 6.71e-05 9.43e-05 2.41e-06 
24 1 1.55836e-06 5.7524e-05 5.4652e-05 4.13047e-06 
49 1 1.9363e-06 6.7e-05 6.17e-05 8.31e-06 
21 1 1.62399e-06 5e-05 5.85e-05 8.56e-06 
10 1 1.65088e-06 9.41993e-05 5.9121e-05 8.59237e-06 
40 1 1.67605e-06 5.67e-05 9.23e-05 9.76e-06 
26 1 1.5303e-06 6.28e-05 5.93e-05 1.86e-05 
52 1 1.53421e-06 9.45865e-05 5.90805e-05 1.0112e-05 
53 1 1.58126e-06 5.60654e-05 5.43458e-05 3.646e-06 
32 1 1.59276e-06 5.04e-05 7.59e-05 3.17e-05 
29 1 1.68646e-06 8.38e-05 5.27e-05 3.44e-05 
11 1 1.79056e-06 8.61e-05 6.73e-05 3.82e-05 
1 1 1.8322e-06 5.76e-05 7.48e-05 3.83e-05 
16 1 1.88425e-06 9.24e-05 8.75e-05 4.28e-05 
ITEM: TIMESTEP
700
ITEM: NUMBER OF ATOMS
55
ITEM: BOX BOUNDS ff ff ff
0.0000000000000000e+00 1.0000000000000000e-04
0.0000000000000000e+00 1.0000000000000000e-04
0.0000000000000000e+00 5.0000000000000002e-05
ITEM: ATOMS id type diameter x y z 
15 1 1.44627e-06 1.77e-06 4.08e-05 6.97e-06 
17 1 1.69779e-06 4.28e-05 2.82e-05 1.11e-05 
23 1 1.62754e-06 4.91995e-05 1.7621e-05 1.2813e-05 
3 1 1.66635e-06 2.86e-05 3.91e-06 1.86e-05 
54 1 1.51251e-06 4.95863e-05 1.75805e-05 1.43313e-05 
34 1 1.89692e-06 3.36e-05 1.67e-05 2.02e-05 
43 1 1.94932e-06 1.79e-05 3.6e-05 2.28e-05 
4 1 1.66198e-06 1.53944e-05 3.09215e-05 2.7693e-05 
37 1 1.68731e-06 4.72e-05 4.76e-05 3.39e-05 
8 1 1.64539e-06 2.79e-06 4.69e-05 3.97e-05 
7 1 1.49867e-06 3.33e-06 1.87e-05 4.17e-05 
47 1 1.93884e-06 1.26e-05 3.04e-05 4.31e-05 
41 1 1.46723e-06 4.56e-05 6.44e-06 4.46e-05 
51 1 1.54452e-06 1.57914e-05 3.088e-05 2.92513e-05 
12 1 1.43579e-06 2.27e-05 5.03e-05 4.52e-06 
50 1 1.59299e-06 1.78e-05 8.75e-05 6.17e-06 
18 1 1.94932e-06 5.23e-06 8.34e-05 6.56e-06 
30 1 1.60347e-06 4.83e-05 6.47e-05 9.78e-06 
42 1 1.69779e-06 4.35561e-05 6.65663e-05 1.4354e-05 
25 1 1.83404e-06 4.29439e-05 6.69337e-05 1.5946e-05 
2 1 1.71875e-06 3.58e-05 8.92e-05 2.02e-05 
39 1 1.60347e-06 1.22e-05 5.11e-05 2.23e-05 
13 1 1.82356e-06 1.42e-05 6.25e-05 3.21e-05 
48 1 1.53011e-06 1.93e-05 9.52e-05 3.63e-05 
44 1 1.92836e-06 1.61e-05 5.82e-05 3.98e-05 
36 1 1.78164e-06 2.59e-05 7.84e-05 4.45e-05 
9 1 1.60347e-06 2.12e-05 7.82e-05 4.54e-05 
27 1 1.9598e-06 6.32e-05 3.11e-05 3.85e-06 
38 1 1.63491e-06 8.48e-05 3.18e-05 5.28e-06 
19 1 1.78164e-06 9.2e-05 4.92e-05 7.26e-06 
6 1 1.51963e-06 6.07e-05 3.48e-06 1.03e-05 
33 1 1.65587e-06 9.27e-05 2.3e-05 1.4e-05 
46 1 1.70827e-06 9.69e-05 2.49e-05 1.36e-05 
22 1 1.58251e-06 5.12e-05 1.3e-05 1.44e-05 
45 1 1.48819e-06 7.41e-05 3.19e-05 1.47e-05 
20 1 1.53011e-06 5.39e-05 4.71e-05 2.54e-05 
14 1 1.66635e-06 5.61e-05 2.32e-06 2.75e-05 
5 1 1.92836e-06 5.33e-05 2.34e-05 3.2e-05 
35 1 1.62754e-06 6.17995e-05 9.43096e-06 4.1113e-05 
31 1 1.51963e-06 5.41e-05 6.2e-06 4.27e-05 
55 1 1.51251e-06 6.21863e-05 9.39052e-06 4.26313e-05 
28 1 1.55107e-06 6.71e-05 9.43e-05 2.41e-06 
24 1 1.56883e-06 5.7524e-05 5.4652e-05 4.13047e-06 
49 1 1.94932e-06 6.7e-05 6.17e-05 8.31e-06 
21 1 1.63491e-06 5e-05 5.85e-05 8.56e-06 
10 1 1.66198e-06 9.41944e-05 5.91215e-05 8.573e-06 
40 1 1.68731e-06 5.67e-05 9.23e-05 9.76e-06 
26 1 1.54059e-06 6.28e-05 5.93e-05 1.86e-05 
52 1 1.54452e-06 9.45914e-05 5.908e-05 1.01313e-05 
53 1 1.59189e-06 5.60654e-05 5.43458e-05 3.646e-06 
32 1 1.60347e-06 5.04e-05 7.59e-05 3.17e-05 
29 1 1.69779e-06 8.38e-05 5.27e-05 3.44e-05 
11 1 1.8026e-06 8.61e-05 6.73e-05 3.82e-05 
1 1 1.84452e-06 5.76e-05 7.48e-05 3.83e-05 
16 1 1.89692e-06 9.24e-05 8.75e-05 4.28e-05 
ITEM: TIMESTEP
800
ITEM: NUMBER OF ATOMS
55
ITEM: BOX BOUNDS ff ff ff
0.0000000000000000e+00 1.0000000000000000e-04
0.0000000000000000e+00 1.0000000000000000e-04
0.0000000000000000e+00 5.0000000000000002e-05
ITEM: ATOMS id type diameter x y z 
15 1 1.45599e-06 1.77e-06 4.08e-05 6.97e-06 
17 1 1.70921e-06 4.28e-05 2.82e-05 1.11e-05 
23 1 1.63848e-06 4.91995e-05 1.7621e-05 1.2813e-05 
3 1 1.67756e-06 2.86e-05 3.91e-06 1.86e-05 
54 1 1.52268e-06 4.95863e-05 1.75805e-05 1.43313e-05 
34 1 1.90967e-06 3.36e-05 1.67e-05 2.02e-05 
43 1 1.96242e-06 1.79e-05 3.6e-05 2.28e-05 
4 1 1.67316e-06 1.53944e-05 3.09215e-05 2.7693e-05 
37 1 1.69866e-06 4.72e-05 4.76e-05 3.39e-05 
8 1 1.65645e-06 2.79e-06 4.69e-05 3.97e-05 
7 1 1.50875e-06 3.33e-06 1.87e-05 4.17e-05 
47 1 1.95187e-06 1.26e-05 3.04e-05 4.31e-05 
41 1 1.47709e-06 4.56e-05 6.44e-06 4.46e-05 
51 1 1.55491e-06 1.57914e-05 3.088e-05 2.92513e-05 
12 1 1.44544e-06 2.27e-05 5.03e-05 4.52e-06 
50 1 1.6037e-06 1.78e-05 8.75e-05 6.17e-06 
18 1 1.96242e-06 5.23e-06 8.34e-05 6.56e-06 
30 1 1.61425e-06 4.83e-05 6.47e-05 9.78e-06 
42 1 1.70921e-06 4.35632e-05 6.65621e-05 1.43358e-05 
25 1 1.84637e-06 4.29368e-05 6.69379e-05 1.59642e-05 
2 1 1.73031e-06 3.58e-05 8.92e-05 2.02e-05 
39 1 1.61425e-06 1.22e-05 5.11e-05 2.23e-05 
13 1 1.83582e-06 1.42e-05 6.25e-05 3.21e-05 
48 1 1.5404e-06 1.93e-05 9.52e-05 3.63e-05 
44 1 1.94132e-06 1.61e-05 5.82e-05 3.98e-05 
36 1 1.79361e-06 2.59e-05 7.84e-05 4.45e-05 
9 1 1.61425e-06 2.12e-05 7.82e-05 4.54e-05 
27 1 1.97297e-06 6.32e-05 3.11e-05 3.85e-06 
38 1 1.6459e-06 8.48e-05 3.18e-05 5.28e-06 
19 1 1.79361e-06 9.2e-05 4.92e-05 7.26e-06 
6 1 1.52985e-06 6.07e-05 3.48e-06 1.03e-05 
33 1 1.66701e-06 9.27e-05 2.3e-05 1.4e-05 
46 1 1.71976e-06 9.69e-05 2.49e-05 1.36e-05 
22 1 1.59315e-06 5.12e-05 1.3e-05 1.44e-05 
45 1 1.49819e-06 7.41e-05 3.19e-05 1.47e-05 
20 1 1.5404e-06 5.39e-05 4.71e-05 2.54e-05 
14 1 1.67756e-06 5.61e-05 2.32e-06 2.75e-05 
5 1 1.94132e-06 5.33e-05 2.34e-05 3.2e-05 
35 1 1.63848e-06 6.17995e-05 9.43096e-06 4.1113e-05 
31 1 1.52985e-06 5.41e-05 6.2e-06 4.27e-05 
55 1 1.52268e-06 6.21863e-05 9.39052e-06 4.26313e-05 
28 1 1.5615e-06 6.71e-05 9.43e-05 2.41e-06 
24 1 1.57938e-06 5.7524e-05 5.4652e-05 4.13047e-06 
49 1 1.96242e-06 6.7e-05 6.17e-05 8.31e-06 
21 1 1.6459e-06 5e-05 5.85e-05 8.56e-06 
10 1 1.67316e-06 9.41944e-05 5.91215e-05 8.573e-06 
40 1 1.69866e-06 5.67e-05 9.23e-05 9.76e-06 
26 1 1.55095e-06 6.28e-05 5.93e-05 1.86e-05 
52 1 1.55491e-06 9.45914e-05 5.908e-05 1.01313e-05 
53 1 1.6026e-06 5.60654e-05 5.43458e-05 3.646e-06 
32 1 1.61425e-06 5.04e-05 7.59e-05 3.17e-05 
29 1 1.70921e-06 8.38e-05 5.27e-05 3.44e-05 
11 1 1.81471e-06 8.61e-05 6.73e-05 3.82e-05 
1 1 1.85692e-06 5.76e-05 7.48e-05 3.83e-05 
16 1 1.90967e-06 9.24e-05 8.75e-05 4.28e-05 
ITEM: TIMESTEP
900
ITEM: NUMBER OF ATOMS
59
ITEM: BOX BOUNDS ff ff ff
0.0000000000000000e+00 1.0000000000000000e-04
0.0000000000000000e+00 1.0000000000000000e-04
0.0000000000000000e+00 5.0000000000000002e-05
ITEM: ATOMS id type diameter x y z 
15 1 1.46578e-06 1.77e-06 4.08e-05 6.97e-06 
17 1 1.7207e-06 4.28e-05 2.82e-05 1.11e-05 
23 1 1.6495e-06 4.91995e-05 1.7621e-05 1.2813e-05 
3 1 1.68883e-06 2.86e-05 3.91e-06 1.86e-05 
54 1 1.53292e-06 4.95863e-05 1.75805e-05 1.43313e-05 
34 1 1.92251e-06 3.36e-05 1.67e-05 2.02e-05 
43 1 1.55653e-06 1.86231e-05 3.61518e-05 2.30402e-05 
4 1 1.6844e-06 1.53944e-05 3.09215e-05 2.7693e-05 
37 1 1.71008e-06 4.72e-05 4.76e-05 3.39e-05 
8 1 1.66759e-06 2.79e-06 4.69e-05 3.97e-05 
7 1 1.51889e-06 3.33e-06 1.87e-05 4.17e-05 
47 1 1.965e-06 1.26e-05 3.04e-05 4.31e-05 
41 1 1.48702e-06 4.56e-05 6.44e-06 4.46e-05 
51 1 1.56536e-06 1.57914e-05 3.088e-05 2.92513e-05 
56 1 1.5794e-06 1.71663e-05 3.5846e-05 2.25563e-05 
12 1 1.45516e-06 2.27e-05 5.03e-05 4.52e-06 
50 1 1.61448e-06 1.78e-05 8.75e-05 6.17e-06 
18 1 1.62331e-06 5.03003e-06 8.34209e-05 5.77508e-06 
30 1 1.6251e-06 4.83e-05 6.47e-05 9.78e-06 
42 1 1.7207e-06 4.35632e-05 6.65621e-05 1.43358e-05 
25 1 1.85878e-06 4.29368e-05 6.69379e-05 1.59642e-05 
57 1 1.50859e-06 5.41584e-06 8.33806e-05 7.28945e-06 
2 1 1.74194e-06 3.58e-05 8.92e-05 2.02e-05 
39 1 1.6251e-06 1.22e-05 5.11e-05 2.23e-05 
13 1 1.84816e-06 1.42e-05 6.25e-05 3.21e-05 
48 1 1.55075e-06 1.93e-05 9.52e-05 3.63e-05 
44 1 1.95437e-06 1.61e-05 5.82e-05 3.98e-05 
36 1 1.80567e-06 2.59e-05 7.84e-05 4.45e-05 
9 1 1.6251e-06 2.12e-05 7.82e-05 4.54e-05 
27 1 1.63204e-06 6.29989e-05 3.1121e-05 3.06086e-06 
38 1 1.65697e-06 8.48e-05 3.18e-05 5.28e-06 
19 1 1.80567e-06 9.2e-05 4.92e-05 7.26e-06 
6 1 1.54013e-06 6.07e-05 3.48e-06 1.03e-05 
33 1 1.67821e-06 9.27e-05 2.3e-05 1.4e-05 
46 1 1.73132e-06 9.69e-05 2.49e-05 1.36e-05 
22 1 1.60386e-06 5.12e-05 1.3e-05 1.44e-05 
45 1 1.50827e-06 7.41e-05 3.19e-05 1.47e-05 
58 1 1.5167e-06 6.33868e-05 3.10805e-05 4.58337e-06 
20 1 1.55075e-06 5.39e-05 4.71e-05 2.54e-05 
14 1 1.68883e-06 5.61e-05 2.32e-06 2.75e-05 
5 1 1.95437e-06 5.33e-05 2.34e-05 3.2e-05 
35 1 1.6495e-06 6.17995e-05 9.43096e-06 4.1113e-05 
31 1 1.54013e-06 5.41e-05 6.2e-06 4.27e-05 
55 1 1.53292e-06 6.21863e-05 9.39052e-06 4.26313e-05 
28 1 1.572e-06 6.71e-05 9.43e-05 2.41e-06 
24 1 1.59e-06 5.75426e-05 5.46559e-05 4.13665e-06 
49 1 1.47148e-06 6.76447e-05 6.15355e-05 7.99902e-06 
21 1 1.65697e-06 5e-05 5.85e-05 8.56e-06 
10 1 1.6844e-06 9.41944e-05 5.91215e-05 8.573e-06 
40 1 1.71008e-06 5.67e-05 9.23e-05 9.76e-06 
26 1 1.56138e-06 6.28e-05 5.93e-05 1.86e-05 
52 1 1.56536e-06 9.45914e-05 5.908e-05 1.01313e-05 
53 1 1.61337e-06 5.60468e-05 5.43419e-05 3.63981e-06 
59 1 1.65399e-06 6.62753e-05 6.18849e-05 8.65955e-06 
32 1 1.6251e-06 5.04e-05 7.59e-05 3.17e-05 
29 1 1.7207e-06 8.38e-05 5.27e-05 3.44e-05 
11 1 1.82692e-06 8.61e-05 6.73e-05 3.82e-05 
1 1 1.8694e-06 5.76e-05 7.48e-05 3.83e-05 
16 1 1.92251e-06 9.24e-05 8.75e-05 4.28e-05 
ITEM: TIMESTEP
1000
ITEM: NUMBER OF ATOMS
60
ITEM: BOX BOUNDS ff ff ff
0.0000000000000000e+00 1.0000000000000000e-04
0.0000000000000000e+00 1.0000000000000000e-04
0.0000000000000000e+00 5.0000000000000002e-05
ITEM: ATOMS id type diameter x y z 
15 1 1.47564e-06 1.77e-06 4.08e-05 6.97e-06 
17 1 1.73227e-06 4.28e-05 2.82e-05 1.11e-05 
23 1 1.66058e-06 4.91946e-05 1.76215e-05 1.27937e-05 
54 1 1.54323e-06 4.95913e-05 1.758e-05 1.43507e-05 
3 1 1.70019e-06 2.86e-05 3.91e-06 1.86e-05 
34 1 1.93543e-06 3.36e-05 1.67e-05 2.02e-05 
56 1 1.59002e-06 1.71663e-05 3.5846e-05 2.25563e-05 
43 1 1.56699e-06 1.86231e-05 3.61518e-05 2.30402e-05 
4 1 1.69573e-06 1.53944e-05 3.09215e-05 2.7693e-05 
51 1 1.57589e-06 1.57914e-05 3.088e-05 2.92513e-05 
37 1 1.72157e-06 4.72e-05 4.76e-05 3.39e-05 
8 1 1.6788e-06 2.79e-06 4.69e-05 3.97e-05 
7 1 1.5291e-06 3.33e-06 1.87e-05 4.17e-05 
47 1 1.47341e-06 1.32456e-05 3.02353e-05 4.27886e-05 
60 1 1.65616e-06 1.18743e-05 3.05852e-05 4.345e-05 
41 1 1.49702e-06 4.56e-05 6.44e-06 4.46e-05 
12 1 1.46494e-06 2.27e-05 5.03e-05 4.52e-06 
18 1 1.63423e-06 5.03003e-06 8.34209e-05 5.77508e-06 
50 1 1.62534e-06 1.78e-05 8.75e-05 6.17e-06 
57 1 1.51873e-06 5.41584e-06 8.33806e-05 7.28945e-06 
30 1 1.63603e-06 4.83e-05 6.47e-05 9.78e-06 
42 1 1.73227e-06 4.35632e-05 6.65621e-05 1.43358e-05 
25 1 1.87128e-06 4.29368e-05 6.69379e-05 1.59642e-05 
2 1 1.75365e-06 3.58e-05 8.92e-05 2.02e-05 
39 1 1.63603e-06 1.22e-05 5.11e-05 2.23e-05 
13 1 1.86058e-06 1.42e-05 6.25e-05 3.21e-05 
48 1 1.56118e-06 1.93e-05 9.52e-05 3.63e-05 
44 1 1.96751e-06 1.61e-05 5.82e-05 3.98e-05 
36 1 1.81781e-06 2.59e-05 7.84e-05 4.45e-05 
9 1 1.63603e-06 2.12e-05 7.82e-05 4.54e-05 
27 1 1.64301e-06 6.29989e-05 3.1121e-05 3.06086e-06 
58 1 1.5269e-06 6.33868e-05 3.10805e-05 4.58337e-06 
38 1 1.66811e-06 8.48e-05 3.18e-05 5.28e-06 
19 1 1.81781e-06 9.2e-05 4.92e-05 7.26e-06 
6 1 1.55049e-06 6.07e-05 3.48e-06 1.03e-05 
33 1 1.6895e-06 9.27e-05 2.3e-05 1.4e-05 
46 1 1.74296e-06 9.69e-05 2.49e-05 1.36e-05 
22 1 1.61464e-06 5.12e-05 1.3e-05 1.44e-05 
45 1 1.51841e-06 7.41e-05 3.19e-05 1.47e-05 
20 1 1.56118e-06 5.39e-05 4.71e-05 2.54e-05 
14 1 1.70019e-06 5.61e-05 2.32e-06 2.75e-05 
5 1 1.96751e-06 5.33e-05 2.34e-05 3.2e-05 
35 1 1.66058e-06 6.17946e-05 9.43147e-06 4.10937e-05 
31 1 1.55049e-06 5.41e-05 6.2e-06 4.27e-05 
55 1 1.54323e-06 6.21913e-05 9.39001e-06 4.26507e-05 
28 1 1.58257e-06 6.71e-05 9.43e-05 2.41e-06 
53 1 1.62422e-06 5.60468e-05 5.43419e-05 3.63981e-06 
24 1 1.60069e-06 5.75426e-05 5.46559e-05 4.13665e-06 
49 1 1.48137e-06 6.76447e-05 6.15355e-05 7.99902e-06 
21 1 1.66811e-06 5e-05 5.85e-05 8.56e-06 
10 1 1.69573e-06 9.41944e-05 5.91215e-05 8.573e-06 
59 1 1.66511e-06 6.62753e-05 6.18849e-05 8.65955e-06 
40 1 1.72157e-06 5.67e-05 9.23e-05 9.76e-06 
52 1 1.57589e-06 9.45914e-05 5.908e-05 1.01313e-05 
26 1 1.57187e-06 6.28e-05 5.93e-05 1.86e-05 
32 1 1.63603e-06 5.04e-05 7.59e-05 3.17e-05 
29 1 1.73227e-06 8.38e-05 5.27e-05 3.44e-05 
11 1 1.8392e-06 8.61e-05 6.73e-05 3.82e-05 
1 1 1.88197e-06 5.76e-05 7.48e-05 3.83e-05 
16 1 1.93543e-06 9.24e-05 8.75e-05 4.28e-05 
ITEM: TIMESTEP
1100
ITEM: NUMBER OF ATOMS
62
ITEM: BOX BOUNDS ff ff ff
0.0000000000000000e+00 1.0000000000000000e-04
0.0000000000000000e+00 1.0000000000000000e-04
0.0000000000000000e+00 5.0000000000000002e-05
ITEM: ATOMS id type diameter x y z 
15 1 1.48556e-06 1.77e-06 4.08e-05 6.97e-06 
17 1 1.74391e-06 4.28e-05 2.82e-05 1.11e-05 
23 1 1.67175e-06 4.91946e-05 1.76215e-05 1.27937e-05 
54 1 1.5536e-06 4.95913e-05 1.758e-05 1.43507e-05 
3 1 1.71162e-06 2.86e-05 3.91e-06 1.86e-05 
34 1 1.94845e-06 3.36e-05 1.67e-05 2.02e-05 
56 1 1.60071e-06 1.71663e-05 3.5846e-05 2.25563e-05 