 NUFEB Simulation

     100 atoms 
     2 atom types 
     4 nutrients 

  0.0e-4   1.00e-04  xlo xhi 
  0.0e-4   1.00e-04  ylo yhi 
  0.0e-4   1.00e-05  zlo zhi 

 Atoms 

     1 1 1.71e-06  370 7.59e-05 9.81e-05 4.22e-06 1.71e-06 
     2 1 1.87e-06  370 9.42e-05 3.09e-05 3.92e-06 1.87e-06 
     3 1 1.47e-06  370 1.27e-05 2.85e-05 6.87e-06 1.47e-06 
     4 1 1.73e-06  370 5.25e-05 7.83e-05 6.36e-06 1.73e-06 
     5 1 1.40e-06  370 4.81e-05 1.01e-05 8.04e-06 1.40e-06 
     6 1 1.62e-06  370 9.49e-06 4.47e-05 3.90e-06 1.62e-06 
     7 1 1.62e-06  370 4.88e-05 6.84e-05 1.66e-06 1.62e-06 
     8 1 1.83e-06  370 2.62e-05 8.44e-05 3.09e-06 1.83e-06 
     9 1 1.90e-06  370 5.05e-05 2.48e-05 4.52e-06 1.90e-06 
     10 1 1.56e-06  370 4.13e-05 3.61e-05 3.22e-06 1.56e-06 
     11 1 1.70e-06  370 2.69e-05 8.87e-05 5.78e-06 1.70e-06 
     12 1 1.75e-06  370 3.19e-06 2.98e-05 2.30e-06 1.75e-06 
     13 1 1.90e-06  370 3.53e-05 3.14e-05 3.87e-06 1.90e-06 
     14 1 1.68e-06  370 8.82e-05 3.58e-05 3.63e-06 1.68e-06 
     15 1 1.59e-06  370 8.07e-05 7.45e-05 4.77e-06 1.59e-06 
     16 1 1.73e-06  370 4.35e-05 7.45e-05 6.17e-06 1.73e-06 
     17 1 1.37e-06  370 8.58e-05 8.00e-05 4.98e-06 1.37e-06 
     18 1 1.45e-06  370 6.57e-05 5.07e-05 5.14e-06 1.45e-06 
     19 1 1.54e-06  370 1.67e-05 6.38e-05 3.06e-06 1.54e-06 
     20 1 1.55e-06  370 1.47e-05 6.74e-05 6.95e-06 1.55e-06 
     21 1 1.66e-06  370 2.09e-05 7.47e-05 4.80e-06 1.66e-06 
     22 1 1.38e-06  370 6.83e-05 5.64e-05 3.90e-06 1.38e-06 
     23 1 1.68e-06  370 3.44e-05 1.16e-05 4.13e-06 1.68e-06 
     24 1 1.58e-06  370 5.45e-05 4.70e-05 7.29e-06 1.58e-06 
     25 1 1.65e-06  370 1.53e-05 8.81e-05 2.43e-06 1.65e-06 
     26 1 1.70e-06  370 3.47e-05 1.61e-05 7.32e-06 1.70e-06 
     27 1 1.84e-06  370 8.66e-05 2.78e-05 4.76e-06 1.84e-06 
     28 1 1.45e-06  370 1.38e-05 3.13e-05 3.31e-06 1.45e-06 
     29 1 1.44e-06  370 9.82e-05 3.83e-05 7.72e-06 1.44e-06 
     30 1 1.88e-06  370 1.51e-05 9.04e-05 3.80e-06 1.88e-06 
     31 1 1.91e-06  370 1.72e-05 5.36e-05 6.26e-06 1.91e-06 
     32 1 1.66e-06  370 5.08e-05 4.23e-05 7.51e-06 1.66e-06 
     33 1 1.53e-06  370 4.26e-05 1.36e-05 8.41e-06 1.53e-06 
     34 1 1.76e-06  370 3.17e-05 4.77e-05 4.03e-06 1.76e-06 
     35 1 1.85e-06  370 9.64e-05 7.54e-05 4.62e-06 1.85e-06 
     36 1 1.39e-06  370 7.33e-05 4.69e-05 6.23e-06 1.39e-06 
     37 1 1.79e-06  370 1.71e-05 8.67e-05 8.11e-06 1.79e-06 
     38 1 1.89e-06  370 2.54e-05 9.30e-05 4.18e-06 1.89e-06 
     39 1 1.57e-06  370 2.22e-05 7.13e-05 5.02e-06 1.57e-06 
     40 1 1.79e-06  370 8.39e-05 7.53e-05 5.42e-06 1.79e-06 
     41 1 1.61e-06  370 8.37e-05 9.39e-05 5.74e-06 1.61e-06 
     42 1 1.41e-06  370 1.11e-05 7.63e-05 1.83e-06 1.41e-06 
     43 1 1.90e-06  370 6.28e-05 6.80e-05 2.17e-06 1.90e-06 
     44 1 1.48e-06  370 2.66e-05 5.79e-05 6.48e-06 1.48e-06 
     45 1 1.49e-06  370 5.88e-05 2.63e-05 2.44e-06 1.49e-06 
     46 1 1.53e-06  370 2.17e-05 5.37e-05 6.11e-06 1.53e-06 
     47 1 1.83e-06  370 4.44e-05 7.22e-05 4.32e-06 1.83e-06 
     48 1 1.48e-06  370 1.22e-05 7.28e-06 2.99e-06 1.48e-06 
     49 1 1.59e-06  370 2.24e-05 1.21e-05 5.89e-06 1.59e-06 
     50 1 1.76e-06  370 9.14e-05 4.31e-05 1.98e-06 1.76e-06 
     51 2 8.86e-07  230 9.27e-05 9.75e-05 2.74e-06 8.86e-07 
     52 2 1.04e-06  230 8.62e-05 6.55e-05 8.76e-06 1.04e-06 
     53 2 1.15e-06  230 4.87e-05 8.40e-05 7.56e-06 1.15e-06 
     54 2 1.32e-06  230 9.48e-05 7.30e-05 5.13e-06 1.32e-06 
     55 2 1.37e-06  230 4.92e-05 4.10e-05 3.98e-06 1.37e-06 
     56 2 1.06e-06  230 2.90e-05 6.90e-05 1.68e-06 1.06e-06 
     57 2 1.33e-06  230 5.74e-05 4.24e-05 5.65e-06 1.33e-06 
     58 2 1.29e-06  230 9.83e-05 7.76e-05 8.21e-06 1.29e-06 
     59 2 1.07e-06  230 4.99e-05 6.26e-05 1.59e-06 1.07e-06 
     60 2 1.38e-06  230 3.03e-05 7.03e-05 6.59e-06 1.38e-06 
     61 2 1.01e-06  230 3.49e-05 2.00e-05 8.93e-06 1.01e-06 
     62 2 1.09e-06  230 5.15e-05 7.93e-05 7.59e-06 1.09e-06 
     63 2 1.26e-06  230 8.60e-05 6.34e-05 2.78e-06 1.26e-06 
     64 2 1.13e-06  230 8.61e-05 8.13e-05 8.87e-06 1.13e-06 
     65 2 1.25e-06  230 7.20e-05 6.94e-05 8.04e-06 1.25e-06 
     66 2 1.19e-06  230 8.04e-05 7.05e-05 8.57e-06 1.19e-06 
     67 2 1.20e-06  230 6.95e-06 6.78e-05 2.75e-06 1.20e-06 
     68 2 1.31e-06  230 7.59e-05 6.39e-05 5.87e-06 1.31e-06 
     69 2 1.18e-06  230 2.76e-05 6.48e-05 3.93e-06 1.18e-06 
     70 2 9.87e-07  230 1.33e-05 7.74e-05 4.09e-06 9.87e-07 
     71 2 1.24e-06  230 1.13e-05 9.32e-05 2.03e-06 1.24e-06 
     72 2 1.13e-06  230 3.24e-05 4.79e-05 1.97e-06 1.13e-06 
     73 2 1.33e-06  230 4.89e-05 6.69e-05 3.16e-06 1.33e-06 
     74 2 1.22e-06  230 6.68e-05 6.67e-05 2.26e-06 1.22e-06 
     75 2 1.04e-06  230 8.20e-05 5.40e-05 8.84e-06 1.04e-06 
     76 2 1.25e-06  230 4.54e-05 6.65e-05 6.03e-06 1.25e-06 
     77 2 1.22e-06  230 2.70e-05 7.49e-05 1.42e-06 1.22e-06 
     78 2 1.08e-06  230 6.70e-06 7.73e-05 1.68e-06 1.08e-06 
     79 2 9.28e-07  230 1.33e-05 1.54e-05 7.78e-06 9.28e-07 
     80 2 1.22e-06  230 7.18e-05 7.53e-05 3.03e-06 1.22e-06 
     81 2 1.05e-06  230 9.07e-05 6.01e-06 1.21e-06 1.05e-06 
     82 2 9.52e-07  230 7.47e-05 5.15e-05 2.81e-06 9.52e-07 
     83 2 1.06e-06  230 2.79e-05 1.37e-05 4.48e-06 1.06e-06 
     84 2 1.15e-06  230 1.02e-05 9.43e-05 7.77e-06 1.15e-06 
     85 2 1.17e-06  230 8.70e-05 2.63e-05 5.42e-06 1.17e-06 
     86 2 9.43e-07  230 6.18e-05 7.46e-05 1.36e-06 9.43e-07 
     87 2 1.06e-06  230 7.84e-05 6.19e-05 5.10e-06 1.06e-06 
     88 2 1.20e-06  230 5.57e-05 5.57e-05 2.19e-06 1.20e-06 
     89 2 1.16e-06  230 1.29e-05 3.34e-06 7.04e-06 1.16e-06 
     90 2 1.35e-06  230 2.49e-06 5.18e-05 7.67e-06 1.35e-06 
     91 2 1.26e-06  230 9.07e-06 1.30e-05 4.01e-06 1.26e-06 
     92 2 1.28e-06  230 3.60e-05 2.64e-05 6.39e-06 1.28e-06 
     93 2 1.38e-06  230 4.76e-05 2.10e-05 1.71e-06 1.38e-06 
     94 2 1.03e-06  230 9.71e-05 3.52e-06 3.09e-06 1.03e-06 
     95 2 1.37e-06  230 2.21e-05 5.55e-05 2.58e-06 1.37e-06 
     96 2 1.18e-06  230 3.42e-05 9.66e-05 5.65e-06 1.18e-06 
     97 2 1.14e-06  230 1.43e-05 6.39e-06 2.81e-06 1.14e-06 
     98 2 9.98e-07  230 9.13e-05 4.61e-05 4.77e-06 9.98e-07 
     99 2 1.26e-06  230 9.68e-06 1.81e-06 3.98e-06 1.26e-06 
     100 2 9.72e-07  230 3.62e-05 7.05e-05 4.33e-06 9.72e-07 

 Nutrients 

     1 sub g nn nn nn 1.00e-01 1.00e-01 
     2 o2 l nn nn nd 9.00e-03 9.00e-03 
     3 suc l nn nn nn 3.42e-20 3.42e-20 
     4 co2 l nn nn nd 2.99e-02 2.99e-02 

 Type Name 

     1 cyano  
     2 ecw  

 Diffusion Coeffs 

     sub 0 
     o2 2.3e-09 
     suc 5.2e-10 
     co2 1.9e-09 

 Growth Rate 

     cyano 1.67e-05 
     ecw 1e-06 

 Ks 

     cyano 0.00035 0.0002 0.01 0.000138 
     ecw 0 0.001 3.6 0.05 

 Yield 

     cyano 0.55 
     ecw 0.43 

 Maintenance 

     cyano 0 
     ecw 9.5e-07 

 Decay 

     cyano 0 
     ecw 0 



