LAMMPS (20 Nov 2019)
Reading data file ...
  orthogonal box = (0 0 0) to (0.0001 0.0001 1e-05)
  8 by 4 by 1 MPI processor grid
  reading atoms ...
  100 atoms
  4 nutrients
Lattice spacing in x,y,z = 100 100 100
50 atoms in group CYANO
50 atoms in group ECW
Model is defined as a closed system. 
Neighbor list info ...
  update every 1 steps, delay 0 steps, check yes
  max neighbors/atom: 5000, page size: 100000
  master list distance cutoff = 2.41e-06
  ghost atom cutoff = 2.41e-06
  binsize = 1.205e-06, bins = 83 83 9
  1 neighbor lists, perpetual/occasional/extra = 1 0 0
  (1) pair gran/hooke/history, perpetual
      attributes: half, newton off, size, history
      pair build: half/size/bin/newtoff
      stencil: half/bin/3d/newtoff
      bin: standard
Setting up Verlet run ...
  Unit style    : lj
  Current step  : 0
  Time step     : 10
Per MPI rank memory allocation (min/avg/max) = 5.79 | 10.7 | 12.11 Mbytes
Step CPU Atoms c_myNtypes[1] c_myNtypes[2] c_myMass[1] c_myMass[2] c_myCon[1] c_myCon[2] c_myCon[3] c_myCon[4] 
       0            0      100           50           50 4.4691255e-14 9.8232737e-15          0.1        0.009     3.42e-20       0.0299 
number of iterations: 327748 
     100    15.690838      141           50           91 4.5283513e-14 9.8149621e-15          0.1 0.0090007878  0.035919893  0.029898688 
number of iterations: 3892 
     200    16.006944      157           50          107 4.588362e-14 9.8067455e-15          0.1 0.0090007983  0.071173877   0.02989867 
number of iterations: 2927 
     300    16.282676      157           50          107 4.649168e-14 9.7986194e-15          0.1 0.0090008089   0.10689036  0.029898653 
number of iterations: 2428 
     400    16.536843      157           50          107 4.7107798e-14 9.790583e-15          0.1 0.0090008196   0.14307707  0.029898635 
number of iterations: 2096 
     500    16.802361      157           50          107 4.773208e-14 9.7826355e-15          0.1 0.0090008305   0.17974083  0.029898617 
number of iterations: 1853 
     600    17.038373      157           50          107 4.8364636e-14 9.7747762e-15          0.1 0.0090008415   0.21688828  0.029898598 
number of iterations: 1662 
     700    17.276549      158           51          107 4.9005575e-14 9.7670043e-15          0.1 0.0090008567   0.25452606  0.029898573 
number of iterations: 1509 
     800    17.495438      158           51          107 4.9655007e-14 9.7593192e-15          0.1 0.0090008681   0.29266081  0.029898554 
number of iterations: 1456 
     900    17.716518      161           54          107 5.0313046e-14 9.7517202e-15          0.1 0.0090008809   0.33129922  0.029898533 
number of iterations: 1615 
    1000    17.962139      162           55          107 5.0979805e-14 9.7442064e-15          0.1 0.0090008954   0.37044809  0.029898508 
number of iterations: 1387 
    1100    18.174998      163           56          107  5.16554e-14 9.7367772e-15          0.1 0.0090009044   0.41011424  0.029898493 
number of iterations: 1451 
    1200    18.385503      164           57          107 5.2339949e-14 9.7294318e-15          0.1 0.0090009136   0.45030475  0.029898478 
number of iterations: 1454 
    1300     18.59682      164           57          107 5.3033569e-14 9.7221695e-15          0.1 0.0090009257   0.49102644  0.029898458 
number of iterations: 1457 
    1400    18.821355      164           57          107 5.3736381e-14 9.7149896e-15          0.1  0.009000938   0.53228641  0.029898438 
number of iterations: 1460 
    1500    19.022037      165           58          107 5.4448507e-14 9.7078912e-15          0.1 0.0090009504   0.57409192  0.029898417 
number of iterations: 1463 
    1600     19.22037      166           59          107 5.5170071e-14 9.7008738e-15          0.1  0.009000963   0.61645016  0.029898396 
number of iterations: 1532 
    1700     19.41852      168           61          107 5.5901196e-14 9.6939367e-15          0.1 0.0090009786   0.65936848   0.02989837 
number of iterations: 1469 
    1800    19.603483      168           61          107 5.6642011e-14 9.687079e-15          0.1 0.0090009915   0.70285435  0.029898348 
number of iterations: 1472 
    1900    19.834215      168           61          107 5.7392643e-14 9.6803001e-15          0.1 0.0090010047   0.74691533  0.029898327 
number of iterations: 1475 
    2000    20.036858      168           61          107 5.8153222e-14 9.6735994e-15          0.1  0.009001018   0.79155907  0.029898304 
number of iterations: 1536 
    2100    20.245438      168           61          107 5.8923881e-14 9.666976e-15          0.1 0.0090010341   0.83679333  0.029898278 
number of iterations: 1689 
    2200    20.447028      170           63          107 5.9704753e-14 9.6604294e-15          0.1 0.0090010526   0.88262585  0.029898247 
number of iterations: 1488 
    2300    20.625796      170           63          107 6.0495973e-14 9.6539589e-15          0.1 0.0090010665   0.92906472  0.029898224 
number of iterations: 1491 
    2400     20.80138      170           63          107 6.1297679e-14 9.6475636e-15          0.1 0.0090010807   0.97611801    0.0298982 
number of iterations: 1494 
    2500    21.002807      170           63          107 6.2110009e-14 9.6412431e-15          0.1  0.009001095    1.0237939  0.029898176 
number of iterations: 1508 
    2600    21.198659      172           65          107 6.2933104e-14 9.6349965e-15          0.1 0.0090011108    1.0721007   0.02989815 
number of iterations: 1521 
    2700    21.395878      173           66          107 6.3767106e-14 9.6288233e-15          0.1 0.0090011224    1.1210467   0.02989813 
number of iterations: 1503 
    2800    21.606562      173           66          107 6.4612162e-14 9.6227227e-15          0.1 0.0090011372    1.1706405  0.029898106 
number of iterations: 1506 
    2900    21.806068      173           66          107 6.5468416e-14 9.6166941e-15          0.1 0.0090011523    1.2208907  0.029898081 
number of iterations: 1658 
    3000    22.032958      175           68          107 6.6336017e-14 9.6107369e-15          0.1 0.0090011759    1.2718061  0.029898041 
number of iterations: 1512 
    3100    22.212373      175           68          107 6.7215116e-14 9.6048503e-15          0.1 0.0090011915    1.3233954  0.029898015 
number of iterations: 1515 
    3200    22.396118      175           68          107 6.8105865e-14 9.5990337e-15          0.1 0.0090012073    1.3756677  0.029897989 
number of iterations: 1585 
    3300    22.586528      176           69          107 6.9008418e-14 9.5932864e-15          0.1 0.0090012257     1.428632  0.029897958 
number of iterations: 1417 
    3400    22.802163      178           71          107 6.9922932e-14 9.5876078e-15          0.1 0.0090012386    1.4822975  0.029897937 
number of iterations: 1521 
    3500    22.972365      178           71          107 7.0849565e-14 9.5819972e-15          0.1  0.009001255    1.5366736   0.02989791 
number of iterations: 1642 
    3600    23.203084      178           71          107 7.1788479e-14 9.576454e-15          0.1 0.0090012753    1.5917696  0.029897876 
number of iterations: 1543 
    3700    23.386687      180           73          107 7.2739835e-14 9.5709776e-15          0.1 0.0090012918    1.6475955  0.029897848 
number of iterations: 1530 
    3800     23.56313      180           73          107 7.3703798e-14 9.5655673e-15          0.1 0.0090013089    1.7041606   0.02989782 
number of iterations: 1529 
    3900     23.75451      182           75          107 7.4680536e-14 9.5602224e-15          0.1   0.00900132    1.7614749  0.029897801 
number of iterations: 1535 
    4000    23.994774      182           75          107 7.5670219e-14 9.5549425e-15          0.1 0.0090013375    1.8195483  0.029897772 
number of iterations: 1514 
    4100    24.213428      183           76          107 7.6673016e-14 9.5497268e-15          0.1 0.0090013552     1.878391  0.029897743 
number of iterations: 1532 
    4200    24.397024      183           76          107 7.7689103e-14 9.5445748e-15          0.1 0.0090013732    1.9380134  0.029897713 
number of iterations: 1442 
    4300    24.573697      183           76          107 7.8718655e-14 9.5394858e-15          0.1 0.0090013869    1.9984258   0.02989769 
number of iterations: 1542 
    4400    24.746861      183           76          107 7.9761851e-14 9.5344592e-15          0.1 0.0090014053    2.0596385  0.029897659 
number of iterations: 1512 
    4500    24.913844      185           78          107 8.0818872e-14 9.5294945e-15          0.1 0.0090014191    2.1216621  0.029897636 
number of iterations: 1546 
    4600     25.11454      186           79          107  8.18899e-14 9.524591e-15          0.1 0.0090014346    2.1845071  0.029897611 
number of iterations: 1550 
    4700    25.311546      186           79          107 8.2975122e-14 9.519748e-15          0.1 0.0090014536    2.2481847  0.029897579 
number of iterations: 1553 
    4800    25.517321      186           79          107 8.4074726e-14 9.5149651e-15          0.1 0.0090014728    2.3127059  0.029897547 
number of iterations: 1555 
    4900    25.716196      188           81          107 8.5188902e-14 9.5102418e-15          0.1 0.0090014881    2.3780818  0.029897521 
number of iterations: 1559 
    5000    25.899046      188           81          107 8.6317843e-14 9.5055773e-15          0.1 0.0090015079    2.4443238  0.029897489 
number of iterations: 1562 
    5100    26.106172      189           82          107 8.7461744e-14 9.5009711e-15          0.1 0.0090015279    2.5114436  0.029897455 
number of iterations: 1564 
    5200    26.284635      190           83          107 8.8620806e-14 9.4964224e-15          0.1 0.0090015481    2.5794527  0.029897421 
number of iterations: 1567 
    5300    26.479111      190           83          107 8.9795227e-14 9.4919309e-15          0.1 0.0090015686     2.648363  0.029897387 
number of iterations: 1568 
    5400    26.702504      191           84          107 9.0985212e-14 9.4874958e-15          0.1 0.0090015894    2.7181865  0.029897353 
number of iterations: 1573 
    5500    26.900868      192           85          107 9.2190966e-14 9.4831166e-15          0.1 0.0090016105    2.7889352  0.029897318 
number of iterations: 1610 
    5600    27.112136      193           86          107  9.34127e-14 9.4787928e-15          0.1 0.0090016318    2.8606215  0.029897282 
number of iterations: 1579 
    5700    27.338716      193           86          107 9.4650624e-14 9.4745238e-15          0.1 0.0090016535    2.9332578  0.029897246 
number of iterations: 1623 
    5800     27.51708      195           88          107 9.5904953e-14 9.4703091e-15          0.1 0.0090016809    3.0068568    0.0298972 
number of iterations: 1585 
    5900      27.7031      197           90          107 9.7175905e-14 9.4661481e-15          0.1 0.0090017032    3.0814313  0.029897163 
number of iterations: 1740 
    6000     27.89728      201           94          107  9.84637e-14 9.4620402e-15          0.1 0.0090017257    3.1569942  0.029897126 
number of iterations: 1557 
    6100    28.087362      202           95          107 9.9768561e-14 9.4579849e-15          0.1  0.009001744    3.2335586  0.029897095 
number of iterations: 1598 
    6200    28.297351      206           99          107 1.0109071e-13 9.4539817e-15          0.1 0.0090017643    3.3111378  0.029897061 
number of iterations: 1528 
    6300    28.491868      208          101          107 1.0243039e-13 9.4500299e-15          0.1 0.0090017853    3.3897453  0.029897027 
number of iterations: 1623 
    6400     28.67612      211          104          107 1.0378782e-13 9.4461291e-15          0.1 0.0090018121    3.4693947  0.029896982 
number of iterations: 1604 
    6500    28.931265      213          106          107 1.0516323e-13 9.4422787e-15          0.1 0.0090018346    3.5500998  0.029896944 
number of iterations: 1774 
    6600    29.145179      216          109          107 1.0655688e-13 9.4384784e-15          0.1 0.0090018683    3.6318747  0.029896888 
number of iterations: 1613 
    6700    29.336294      218          111          107 1.0796899e-13 9.4347275e-15          0.1 0.0090018883    3.7147336  0.029896855 
number of iterations: 1611 
    6800    29.518194      219          112          107 1.0939982e-13 9.4310256e-15          0.1  0.009001911    3.7986909  0.029896817 
number of iterations: 1601 
    6900    29.721027      221          114          107 1.1084961e-13 9.4273722e-15          0.1 0.0090019364     3.883761  0.029896775 
number of iterations: 1613 
    7000    29.935706      223          116          107 1.1231861e-13 9.4237667e-15          0.1 0.0090019589    3.9699589  0.029896738 
number of iterations: 1593 
    7100    30.148081      224          117          107 1.1380708e-13 9.4202087e-15          0.1 0.0090019848    4.0572998  0.029896694 
number of iterations: 1626 
    7200     30.35174      225          118          107 1.1531527e-13 9.4166975e-15          0.1 0.0090020111    4.1457989   0.02989665 
number of iterations: 1523 
    7300    30.530856      226          119          107 1.1684345e-13 9.4132327e-15          0.1 0.0090020332     4.235471  0.029896614 
number of iterations: 1630 
    7400    30.718085      227          120          107 1.1839189e-13 9.4098137e-15          0.1 0.0090020602    4.3263318  0.029896569 
number of iterations: 1668 
    7500    30.908336      228          121          107 1.1996084e-13 9.4064401e-15          0.1 0.0090020875    4.4183973  0.029896523 
number of iterations: 1570 
    7600    31.092012      229          122          107 1.2155058e-13 9.4031114e-15          0.1 0.0090021042    4.5116832  0.029896495 
number of iterations: 1570 
    7700    31.269758      230          123          107 1.231614e-13 9.399827e-15          0.1 0.0090021307    4.6062059  0.029896451 
number of iterations: 1638 
    7800    31.453784      231          124          107 1.2479356e-13 9.3965866e-15          0.1 0.0090021638    4.7019818  0.029896396 
number of iterations: 1717 
    7900    31.653093      234          127          107 1.2644735e-13 9.3933896e-15          0.1 0.0090021949    4.7990276  0.029896344 
number of iterations: 1647 
    8000    31.846977      236          129          107 1.2812305e-13 9.3902356e-15          0.1 0.0090022253    4.8973599  0.029896294 
number of iterations: 1716 
    8100    32.068545      239          132          107 1.2982096e-13 9.387124e-15          0.1  0.009002256     4.996996  0.029896243 
number of iterations: 1622 
    8200    32.274059      242          135          107 1.3154138e-13 9.3840545e-15          0.1 0.0090022885    5.0979533  0.029896189 
number of iterations: 1665 
    8300    32.474544      245          138          107 1.3328459e-13 9.3810267e-15          0.1 0.0090023188    5.2002489  0.029896138 
number of iterations: 1658 
    8400    32.659533      245          138          107 1.350509e-13 9.3780401e-15          0.1 0.0090023496    5.3039009  0.029896087 
number of iterations: 1661 
    8500    32.849503      245          138          107 1.3684062e-13 9.3750941e-15          0.1 0.0090023807    5.4089273  0.029896035 
number of iterations: 1766 
    8600    33.088795      248          141          107 1.3865406e-13 9.3721883e-15          0.1 0.0090024216    5.5153458  0.029895967 
number of iterations: 1750 
    8700    33.277115      249          142          107 1.4049153e-13 9.3693223e-15          0.1 0.0090024559    5.6231752   0.02989591 
number of iterations: 1671 
    8800    33.462847      251          144          107 1.4235335e-13 9.3664956e-15          0.1 0.0090024884    5.7324346  0.029895856 
number of iterations: 1676 
    8900    33.637517      252          145          107 1.4423985e-13 9.3637079e-15          0.1 0.0090025214    5.8431426  0.029895801 
number of iterations: 1670 
    9000    33.816466      255          148          107 1.4615134e-13 9.3609586e-15          0.1 0.0090025571    5.9553187  0.029895741 
number of iterations: 1672 
    9100    34.166007      255          148          107 1.4808817e-13 9.3582474e-15          0.1  0.009002591    6.0689823  0.029895685 
number of iterations: 1684 
    9200    34.364549      255          148          107 1.5005066e-13 9.3555739e-15          0.1 0.0090026254    6.1841529  0.029895628 
number of iterations: 1687 
    9300     34.54386      256          149          107 1.5203916e-13 9.3529376e-15          0.1 0.0090026602    6.3008507   0.02989557 
number of iterations: 1663 
    9400    34.737974      258          151          107 1.5405402e-13 9.3503381e-15          0.1 0.0090026954    6.4190958  0.029895511 
number of iterations: 1633 
    9500     34.93792      260          153          107 1.5609557e-13 9.3477749e-15          0.1 0.0090027281    6.5389088  0.029895457 
number of iterations: 1694 
    9600    35.127148      260          153          107 1.5816418e-13 9.3452478e-15          0.1 0.0090027642    6.6603105  0.029895396 
number of iterations: 1695 
    9700    35.342505      261          154          107 1.602602e-13 9.3427562e-15          0.1 0.0090028009    6.7833221  0.029895335 
number of iterations: 1706 
    9800    35.563829      261          154          107  1.62384e-13 9.3402999e-15          0.1  0.009002838    6.9079649  0.029895274 
number of iterations: 1703 
    9900    35.753107      261          154          107 1.6453594e-13 9.3378784e-15          0.1 0.0090028756    7.0342604  0.029895211 
number of iterations: 1707 
   10000    35.957013      262          155          107 1.667164e-13 9.3354913e-15          0.1 0.0090029169    7.1622306  0.029895142 
number of iterations: 1711 
   10100    36.190361      267          160          107 1.6892576e-13 9.3331381e-15          0.1 0.0090029583    7.2918975  0.029895073 
number of iterations: 1734 
   10200    36.413819      269          162          107 1.711644e-13 9.3308187e-15          0.1 0.0090030009    7.4232841  0.029895002 
number of iterations: 1686 
   10300    36.612309      274          167          107 1.734327e-13 9.3285324e-15          0.1 0.0090030328    7.5564127  0.029894949 
number of iterations: 1719 
   10400    36.818317      274          167          107 1.7573106e-13 9.3262791e-15          0.1 0.0090030751    7.6913066  0.029894879 
number of iterations: 1718 
   10500    36.990161      275          168          107 1.7805989e-13 9.3240582e-15          0.1 0.0090031096    7.8279892  0.029894821 
number of iterations: 1745 
   10600    37.186319      276          169          107 1.8041957e-13 9.3218696e-15          0.1 0.0090031508    7.9664841  0.029894753 
number of iterations: 1714 
   10700    37.385824      280          173          107 1.8281052e-13 9.3197126e-15          0.1 0.0090031861    8.1068154  0.029894694 
number of iterations: 1726 
   10800    37.568841      285          178          107 1.8523316e-13 9.3175871e-15          0.1 0.0090032311    8.2490075  0.029894619 
number of iterations: 1661 
   10900    37.761982      290          183          107 1.8768791e-13 9.3154926e-15          0.1 0.0090032634    8.3930853  0.029894565 
number of iterations: 1712 
   11000    37.938722      293          186          107 1.9017518e-13 9.3134289e-15          0.1 0.0090033019    8.5390737  0.029894501 
number of iterations: 1718 
   11100    38.142347      297          190          107 1.9269542e-13 9.3113956e-15          0.1 0.0090033383    8.6869977   0.02989444 
number of iterations: 1766 
   11200    38.327935      299          192          107 1.9524906e-13 9.3093923e-15          0.1 0.0090033857    8.8368836  0.029894362 
number of iterations: 1797 
   11300    38.516885      303          196          107 1.9783653e-13 9.3074187e-15          0.1 0.0090034356    8.9887571  0.029894279 
number of iterations: 1744 
   11400    38.722146      306          199          107 2.004583e-13 9.3054744e-15          0.1 0.0090034814    9.1426444  0.029894202 
number of iterations: 1747 
   11500    39.008018      308          201          107 2.0311481e-13 9.303559e-15          0.1 0.0090035302    9.2985722  0.029894121 
number of iterations: 1781 
   11600    39.199434      309          202          107 2.0580653e-13 9.3016722e-15          0.1 0.0090035794    9.4565676  0.029894039 
number of iterations: 1721 
   11700     39.37074      311          204          107 2.0853391e-13 9.2998138e-15          0.1 0.0090036205    9.6166581  0.029893971 
number of iterations: 1807 
   11800    39.567936      313          206          107 2.1129744e-13 9.2979832e-15          0.1 0.0090036673    9.7788714  0.029893893 
number of iterations: 1801 
   11900    39.752333      319          212          107 2.140976e-13 9.2961804e-15          0.1 0.0090037128    9.9432356  0.029893817 
number of iterations: 1779 
   12000    39.993963      321          214          107 2.1693486e-13 9.2944048e-15          0.1 0.0090037704    10.109779  0.029893721 
number of iterations: 1789 
   12100    40.219811      324          217          107 2.1980972e-13 9.2926563e-15          0.1 0.0090038262    10.278531  0.029893628 
number of iterations: 1758 
   12200    40.399753      327          220          107 2.2272268e-13 9.2909345e-15          0.1  0.009003874    10.449521  0.029893548 
number of iterations: 1822 
   12300    40.607127      333          226          107 2.2567424e-13 9.2892391e-15          0.1 0.0090039274    10.622778   0.02989346 
number of iterations: 1762 
   12400    40.783484      339          232          107 2.2866492e-13 9.2875699e-15          0.1 0.0090039875    10.798333   0.02989336 
number of iterations: 1654 
   12500    40.965993      344          237          107 2.3169523e-13 9.2859264e-15          0.1 0.0090040222    10.976216  0.029893302 
number of iterations: 1818 
   12600    41.194613      345          238          107 2.3476569e-13 9.2843085e-15          0.1 0.0090040834    11.156458    0.0298932 
number of iterations: 1811 
   12700    41.385591      347          240          107 2.3787685e-13 9.2827157e-15          0.1 0.0090041416     11.33909  0.029893103 
number of iterations: 1885 
   12800    41.631718      351          244          107 2.4102924e-13 9.2811478e-15          0.1 0.0090041962    11.524143  0.029893012 
number of iterations: 1780 
   12900    41.829227      354          247          107 2.442234e-13 9.2796045e-15          0.1 0.0090042598     11.71165  0.029892906 
number of iterations: 1751 
   13000    42.009985      357          250          107 2.4745989e-13 9.2780855e-15          0.1 0.0090043152    11.901643  0.029892814 
number of iterations: 1801 
   13100    42.214495      362          255          107 2.5073928e-13 9.2765906e-15          0.1 0.0090043848    12.094155  0.029892698 
number of iterations: 1750 
   13200    42.397793      364          257          107 2.5406212e-13 9.2751193e-15          0.1 0.0090044418    12.289221  0.029892603 
number of iterations: 1875 
   13300    42.593984      368          261          107  2.57429e-13 9.2736714e-15          0.1 0.0090045077    12.486873  0.029892493 
number of iterations: 1749 
   13400    42.778832      371          264          107 2.6084049e-13 9.2722468e-15          0.1 0.0090045661    12.687146  0.029892396 
number of iterations: 1787 
   13500    42.957308      373          266          107 2.642972e-13 9.270845e-15          0.1 0.0090046148    12.890074  0.029892315 
number of iterations: 1818 
   13600    43.132644      374          267          107 2.6779971e-13 9.2694658e-15          0.1 0.0090046696    13.095693  0.029892224 
number of iterations: 1817 
   13700    43.329583      377          270          107 2.7134864e-13 9.2681089e-15          0.1 0.0090047363    13.304039  0.029892113 
number of iterations: 1796 
   13800    43.510612      381          274          107 2.749446e-13 9.2667742e-15          0.1 0.0090047859    13.515146   0.02989203 
number of iterations: 1827 
   13900    43.733852      383          276          107 2.7858821e-13 9.2654612e-15          0.1 0.0090048647    13.729054  0.029891899 
number of iterations: 1806 
   14000    43.992439      387          280          107 2.8228011e-13 9.2641699e-15          0.1  0.009004933    13.945797  0.029891785 
number of iterations: 1820 
   14100     44.22052      388          281          107 2.8602094e-13 9.2628998e-15          0.1 0.0090049909    14.165415  0.029891689 
number of iterations: 1894 
   14200    44.428153      390          283          107 2.8981134e-13 9.2616507e-15          0.1 0.0090050642    14.387944  0.029891567 
number of iterations: 1787 
   14300    44.639756      395          288          107 2.9365197e-13 9.2604225e-15          0.1 0.0090051248    14.613424  0.029891466 
number of iterations: 1786 
   14400    44.847434      398          291          107 2.9754349e-13 9.2592148e-15          0.1 0.0090051934    14.841894  0.029891352 
number of iterations: 1852 
   14500    45.056337      401          294          107 3.0148659e-13 9.2580273e-15          0.1 0.0090052691    15.073394  0.029891226 
number of iterations: 1869 
   14600    45.254708      404          297          107 3.0548194e-13  9.25686e-15          0.1 0.0090053375    15.307964  0.029891112 
number of iterations: 1773 
   14700    45.480551      408          301          107 3.0953024e-13 9.2557125e-15          0.1 0.0090054027    15.545644  0.029891003 
number of iterations: 1850 
   14800     45.66629      413          306          107 3.1363219e-13 9.2545845e-15          0.1 0.0090054743    15.786476  0.029890884 
number of iterations: 1781 
   14900      45.8583      417          310          107 3.177885e-13 9.2534758e-15          0.1 0.0090055437    16.030502  0.029890768 
number of iterations: 1803 
   15000    46.076698      421          314          107 3.2199988e-13 9.2523862e-15          0.1 0.0090056092    16.277763  0.029890659 
number of iterations: 1815 
   15100    46.293502      424          317          107 3.2626708e-13 9.2513155e-15          0.1 0.0090056826    16.528303  0.029890537 
number of iterations: 1842 
   15200    46.506934      431          324          107 3.3059083e-13 9.2502635e-15          0.1 0.0090057527    16.782164   0.02989042 
number of iterations: 1838 
   15300    46.716473      438          331          107 3.3497187e-13 9.2492298e-15          0.1 0.0090058244    17.039392  0.029890301 
number of iterations: 1857 
   15400    46.909367      439          332          107 3.3941097e-13 9.2482144e-15          0.1 0.0090059016     17.30003  0.029890172 
number of iterations: 1854 
   15500    47.096899      445          338          107 3.439089e-13 9.2472169e-15          0.1 0.0090059766    17.564124  0.029890047 
number of iterations: 1818 
   15600    47.302018      450          343          107 3.4846644e-13 9.2462371e-15          0.1 0.0090060566     17.83172  0.029889914 
number of iterations: 1840 
   15700     47.48992      452          345          107 3.5308438e-13 9.2452749e-15          0.1 0.0090061327    18.102864  0.029889788 
number of iterations: 1888 
   15800     47.70724      456          349          107 3.5776351e-13 9.2443301e-15          0.1  0.009006216    18.377603  0.029889649 
number of iterations: 1880 
   15900    47.915339      461          354          107 3.6250465e-13 9.2434023e-15          0.1 0.0090062875    18.655985   0.02988953 
number of iterations: 1868 
   16000    48.099563      464          357          107 3.6730862e-13 9.2424915e-15          0.1 0.0090063664    18.938059  0.029889398 
number of iterations: 1782 
   16100    48.304579      467          360          107 3.7217625e-13 9.2415973e-15          0.1 0.0090064426    19.223873  0.029889272 
number of iterations: 1799 
   16200    48.501557      471          364          107 3.7710839e-13 9.2407197e-15          0.1 0.0090065189    19.513477  0.029889145 
number of iterations: 1857 
   16300    48.714227      476          369          107 3.8210589e-13 9.2398583e-15          0.1 0.0090066066    19.806922  0.029888998 
number of iterations: 1857 
   16400     48.94256      485          378          107 3.8716962e-13 9.239013e-15          0.1  0.009006682    20.104258  0.029888873 
number of iterations: 1893 
   16500    49.231262      494          387          107 3.9230046e-13 9.2381836e-15          0.1 0.0090067554    20.405536  0.029888751 
number of iterations: 1889 
   16600    49.453451      497          390          107 3.9749928e-13 9.2373699e-15          0.1 0.0090068554    20.710808  0.029888584 
number of iterations: 1878 
   16700    49.642312      503          396          107 4.0276701e-13 9.2365717e-15          0.1 0.0090069433    21.020127  0.029888438 
number of iterations: 1979 
   16800    49.866575      510          403          107 4.0810454e-13 9.2357888e-15          0.1 0.0090070469    21.333546  0.029888265 
number of iterations: 1913 
   16900    50.105788      517          410          107 4.135128e-13 9.235021e-15          0.1 0.0090071396     21.65112  0.029888111 
number of iterations: 1869 
   17000    50.345791      523          416          107 4.1899274e-13 9.2342682e-15          0.1 0.0090072338    21.972904  0.029887954 
number of iterations: 1851 
   17100    50.569866      531          424          107 4.245453e-13 9.2335302e-15          0.1 0.0090073261    22.298955    0.0298878 
number of iterations: 1915 
   17200    50.773371      536          429          107 4.3017144e-13 9.2328068e-15          0.1 0.0090074176    22.629327  0.029887648 
number of iterations: 1952 
   17300    50.991148      539          432          107 4.3587213e-13 9.2320977e-15          0.1 0.0090075205    22.964081  0.029887477 
number of iterations: 1905 
   17400    51.186079      543          436          107 4.4164838e-13 9.2314029e-15          0.1 0.0090076174    23.303272  0.029887315 
number of iterations: 1892 
   17500    51.401898      550          443          107 4.4750117e-13 9.2307222e-15          0.1 0.0090077206    23.646959  0.029887143 
number of iterations: 1938 
   17600    51.597818      558          451          107 4.5343152e-13 9.2300553e-15          0.1 0.0090078219    23.995202  0.029886975 
number of iterations: 1911 
   17700    51.812476      562          455          107 4.5944046e-13 9.2294022e-15          0.1 0.0090079182    24.348062  0.029886814 
number of iterations: 1941 
   17800    52.008397      573          466          107 4.6552904e-13 9.2287626e-15          0.1 0.0090080286    24.705598  0.029886631 
number of iterations: 1929 
   17900    52.227831      579          472          107 4.716983e-13 9.2281363e-15          0.1 0.0090081462    25.067875  0.029886435 
number of iterations: 1938 
   18000    52.441799      588          481          107 4.7794931e-13 9.2275233e-15          0.1 0.0090082498    25.434955  0.029886262 
number of iterations: 1933 
   18100    52.711337      593          486          107 4.8428316e-13 9.2269233e-15          0.1 0.0090083561    25.806901  0.029886085 
number of iterations: 1922 
   18200    52.911064      598          491          107 4.9070095e-13 9.2263362e-15          0.1 0.0090084656    26.183777  0.029885903 
number of iterations: 1911 
   18300    53.113264      607          500          107 4.9720379e-13 9.2257618e-15          0.1 0.0090085736    26.565648  0.029885723 
number of iterations: 1946 
   18400     53.30722      611          504          107 5.0379281e-13   9.2252e-15          0.1 0.0090086927    26.952582  0.029885525 
number of iterations: 1937 
   18500    53.499257      617          510          107 5.1046914e-13 9.2246506e-15          0.1 0.0090088105    27.344645  0.029885329 
number of iterations: 1979 
   18600    53.707726      624          517          107 5.1723395e-13 9.2241134e-15          0.1 0.0090089293    27.741906  0.029885131 
number of iterations: 1956 
   18700    53.910241      627          520          107 5.2408841e-13 9.2235884e-15          0.1 0.0090090526    28.144434  0.029884926 
number of iterations: 1941 
   18800    54.170239      636          529          107 5.310337e-13 9.2230753e-15          0.1 0.0090091534    28.552298  0.029884758 
number of iterations: 1975 
   18900    54.410484      640          533          107 5.3807103e-13 9.222574e-15          0.1 0.0090092934    28.965569  0.029884525 
number of iterations: 1960 
   19000    54.625621      645          538          107 5.4520162e-13 9.2220844e-15          0.1 0.0090094053    29.384319  0.029884338 
number of iterations: 1878 
   19100    54.836506      649          542          107 5.5242671e-13 9.2216062e-15          0.1 0.0090095165    29.808621  0.029884153 
number of iterations: 1966 
   19200    55.081559      656          549          107 5.5974754e-13 9.2211395e-15          0.1   0.00900963    30.238547  0.029883964 
number of iterations: 1965 
   19300    55.307837      664          557          107 5.6716539e-13 9.220684e-15          0.1 0.0090097594    30.674173  0.029883749 
number of iterations: 1967 
   19400    55.515156      672          565          107 5.7468154e-13 9.2202395e-15          0.1 0.0090098693    31.115575  0.029883566 
number of iterations: 1917 
   19500    55.712321      677          570          107 5.822973e-13 9.2198061e-15          0.1 0.0090099963    31.562828  0.029883354 
number of iterations: 2015 
   19600    55.928865      690          583          107 5.9001398e-13 9.2193834e-15          0.1 0.0090101298    32.016009  0.029883132 
number of iterations: 1989 
   19700    56.153786      695          588          107 5.9783292e-13 9.2189714e-15          0.1 0.0090102701    32.475198  0.029882898 
number of iterations: 1989 
   19800    56.365084      705          598          107 6.0575548e-13 9.2185699e-15          0.1 0.0090104007    32.940473  0.029882681 
number of iterations: 1944 
   19900    56.579683      715          608          107 6.1378303e-13 9.2181789e-15          0.1 0.0090105314    33.411917  0.029882463 
number of iterations: 1984 
   20000    56.867809      721          614          107 6.2191696e-13 9.2177981e-15          0.1 0.0090106718     33.88961  0.029882229 
number of iterations: 1975 
   20100    57.084766      729          622          107 6.3015868e-13 9.2174275e-15          0.1 0.0090108072    34.373635  0.029882004 
number of iterations: 2001 
   20200    57.297361      735          628          107 6.3850963e-13 9.217067e-15          0.1 0.0090109546    34.864077  0.029881759 
number of iterations: 2012 
   20300    57.511215      742          635          107 6.4697123e-13 9.2167163e-15          0.1 0.0090111048     35.36102  0.029881508 
number of iterations: 2004 
   20400    57.732992      745          638          107 6.5554498e-13 9.2163755e-15          0.1 0.0090112514     35.86455  0.029881264 
number of iterations: 2032 
   20500    57.941571      754          647          107 6.6423234e-13 9.2160443e-15          0.1 0.0090114033    36.374754  0.029881011 
number of iterations: 1967 
   20600    58.165256      762          655          107 6.7303483e-13 9.2157226e-15          0.1 0.0090115621    36.891725  0.029880747 
number of iterations: 2038 
   20700    58.379443      768          661          107 6.8195396e-13 9.2154104e-15          0.1 0.0090117217    37.415547  0.029880481 
number of iterations: 2009 
   20800    58.596422      777          670          107 6.909913e-13 9.2151074e-15          0.1 0.0090118683    37.946314  0.029880237 
number of iterations: 1996 
   20900    58.805223      785          678          107 7.001484e-13 9.2148137e-15          0.1 0.0090120191    38.484117  0.029879986 
number of iterations: 2012 
   21000    59.388479      796          689          107 7.0942684e-13 9.214529e-15          0.1 0.0090121803     39.02905  0.029879718 
number of iterations: 2008 
   21100    59.599177      811          704          107 7.1882825e-13 9.2142532e-15          0.1 0.0090123286    39.581207  0.029879471 
number of iterations: 2033 
   21200    59.840879      821          714          107 7.2835424e-13 9.2139863e-15          0.1 0.0090124876    40.140682  0.029879206 
number of iterations: 2012 
   21300    60.089441      833          726          107 7.3800648e-13 9.2137281e-15          0.1 0.0090126617    40.707574  0.029878916 
number of iterations: 2027 
   21400    60.311522      839          732          107 7.4778662e-13 9.2134786e-15          0.1 0.0090128503     41.28198  0.029878602 
number of iterations: 2061 
   21500    60.544404      853          746          107 7.5769637e-13 9.2132375e-15          0.1 0.0090130255    41.864002   0.02987831 
number of iterations: 2034 
   21600    60.753078      875          768          107 7.6773745e-13 9.2130049e-15          0.1 0.0090131819    42.453739   0.02987805 
number of iterations: 2041 
   21700      60.9734      884          777          107 7.7791159e-13 9.2127805e-15          0.1 0.0090133591    43.051292  0.029877755 
number of iterations: 2042 
   21800    61.194014      894          787          107 7.8822055e-13 9.2125644e-15          0.1 0.0090135396    43.656764  0.029877454 
number of iterations: 2026 
   21900    61.455825      899          792          107 7.9866614e-13 9.2123564e-15          0.1 0.0090137068    44.270264  0.029877176 
number of iterations: 2052 
   22000    61.670213      906          799          107 8.0925014e-13 9.2121563e-15          0.1 0.0090138872    44.891895  0.029876875 
number of iterations: 2056 
   22100    61.871785      920          813          107 8.1997441e-13 9.2119641e-15          0.1 0.0090140725    45.521766  0.029876567 
number of iterations: 2063 
   22200    62.099905      929          822          107 8.3084079e-13 9.2117797e-15          0.1 0.0090142565    46.159986  0.029876261 
number of iterations: 2022 
   22300    62.328412      939          832          107 8.4185118e-13 9.211603e-15          0.1 0.0090144363    46.806666  0.029875961 
number of iterations: 2029 
   22400    62.532575      951          844          107 8.5300747e-13 9.2114339e-15          0.1 0.0090146016    47.461919  0.029875686 
number of iterations: 2070 
   22500    62.739492      960          853          107 8.6431161e-13 9.2112723e-15          0.1 0.0090147895    48.125857  0.029875373 
number of iterations: 2073 
   22600    62.957612      973          866          107 8.7576555e-13 9.2111181e-15          0.1 0.0090149883    48.798596  0.029875042 
number of iterations: 2075 
   22700    63.189804      981          874          107 8.8737128e-13 9.2109712e-15          0.1 0.0090151882    49.480252  0.029874709 
number of iterations: 2054 
   22800    63.411671      993          886          107 8.9913081e-13 9.2108315e-15          0.1 0.0090153825    50.170943  0.029874386 
number of iterations: 2057 
   22900    63.662853     1004          897          107 9.1104617e-13 9.2106989e-15          0.1 0.0090155891    50.870788  0.029874042 
number of iterations: 2073 
   23000    63.903407     1012          905          107 9.2311944e-13 9.2105733e-15          0.1 0.0090157829    51.579911  0.029873719 
number of iterations: 2070 
   23100    64.215748     1026          919          107 9.353527e-13 9.2104548e-15          0.1 0.0090159972    52.298434  0.029873362 
number of iterations: 2089 
   23200    64.435651     1048          941          107 9.4774808e-13 9.210343e-15          0.1 0.0090162051     53.02648  0.029873016 
number of iterations: 2097 
   23300    64.644385     1065          958          107 9.6030772e-13 9.2102381e-15          0.1 0.0090164356    53.764178  0.029872632 
number of iterations: 2085 
   23400    64.870417     1077          970          107 9.730338e-13 9.2101398e-15          0.1 0.0090166297    54.511653  0.029872309 
number of iterations: 2104 
   23500    65.084268     1083          976          107 9.8592852e-13 9.2100481e-15          0.1 0.0090168534    55.269036  0.029871936 
number of iterations: 2043 
   23600    65.314325     1097          990          107 9.9899413e-13 9.2099629e-15          0.1 0.0090170533    56.036457  0.029871604 
number of iterations: 2069 
   23700    65.553259     1107         1000          107 1.0122329e-12 9.2098842e-15          0.1 0.0090172772    56.814051  0.029871231 
number of iterations: 2106 
   23800     65.80034     1112         1005          107 1.0256471e-12 9.2098118e-15          0.1 0.0090175143    57.601952  0.029870836 
number of iterations: 2072 
   23900    66.025677     1122         1015          107 1.039239e-12 9.2097457e-15          0.1 0.0090177355    58.400297  0.029870468 
number of iterations: 2115 
   24000    66.264348     1136         1029          107 1.0530111e-12 9.2096858e-15          0.1 0.0090179687    59.209225  0.029870079 
number of iterations: 2066 
   24100    66.507927     1144         1037          107 1.0669657e-12 9.209632e-15          0.1 0.0090181863    60.028876  0.029869717 
number of iterations: 2081 
   24200    66.746277     1166         1059          107 1.0811052e-12 9.2095842e-15          0.1 0.0090184256     60.85939  0.029869318 
number of iterations: 2118 
   24300    66.971022     1183         1076          107 1.0954321e-12 9.2095424e-15          0.1 0.0090186812    61.700914  0.029868893 
number of iterations: 2087 
   24400     67.20344     1194         1087          107 1.1099488e-12 9.2095064e-15          0.1 0.0090189073    62.553592  0.029868517 
number of iterations: 2120 
   24500    67.434066     1215         1108          107 1.1246579e-12 9.2094763e-15          0.1 0.0090191659    63.417573  0.029868086 
number of iterations: 2104 
   24600    67.649267     1233         1126          107 1.139562e-12 9.2094519e-15          0.1 0.0090194025    64.293006  0.029867692 
number of iterations: 2128 
   24700    67.899174     1247         1140          107 1.1546635e-12 9.2094332e-15          0.1 0.0090196763    65.180043  0.029867236 
number of iterations: 2085 
   24800    68.114816     1265         1158          107 1.1699652e-12 9.2094201e-15          0.1 0.0090199219    66.078839  0.029866827 
number of iterations: 2120 
   24900    68.332504     1277         1170          107 1.1854696e-12 9.2094125e-15          0.1 0.0090202053    66.989547  0.029866355 
number of iterations: 2148 
   25000    68.593753     1293         1186          107 1.2011795e-12 9.2094103e-15          0.1 0.0090204745    67.912325  0.029865907 
number of iterations: 2109 
   25100     68.81785     1302         1195          107 1.2170976e-12 9.2094136e-15          0.1 0.0090207366    68.847334   0.02986547 
number of iterations: 2095 
   25200    69.119821     1315         1208          107 1.2332267e-12 9.2094221e-15          0.1 0.0090209882    69.794735  0.029865052 
number of iterations: 2141 
   25300    69.372355     1332         1225          107 1.2495695e-12 9.2094358e-15          0.1 0.0090212499    70.754692  0.029864616 
number of iterations: 2155 
   25400    69.602143     1351         1244          107 1.2661288e-12 9.2094548e-15          0.1 0.0090215185    71.727372  0.029864168 
number of iterations: 2116 
   25500    69.873505     1368         1261          107 1.2829076e-12 9.2094789e-15          0.1 0.0090217874    72.712945  0.029863721 
number of iterations: 2159 
   25600    70.131995     1386         1279          107 1.2999088e-12 9.209508e-15          0.1 0.0090220957    73.711583  0.029863207 
number of iterations: 2089 
   25700    70.364039     1411         1304          107 1.3171352e-12 9.2095421e-15          0.1 0.0090223573    74.723458  0.029862772 
number of iterations: 2159 
   25800    70.612583     1425         1318          107  1.33459e-12 9.2095811e-15          0.1 0.0090226501    75.748743  0.029862284 
number of iterations: 2131 
   25900    70.836245     1438         1331          107 1.352276e-12 9.2096249e-15          0.1 0.0090229489    76.787617  0.029861787 
number of iterations: 2194 
   26000    71.065528     1459         1352          107 1.3701964e-12 9.2096735e-15          0.1 0.0090232776    77.840261  0.029861239 
number of iterations: 2067 
   26100    71.283332     1474         1367          107 1.3883543e-12 9.2097269e-15          0.1 0.0090235531    78.906859  0.029860781 
number of iterations: 2135 
   26200    71.527738     1491         1384          107 1.4067529e-12 9.2097849e-15          0.1 0.0090238424    79.987595  0.029860299 
number of iterations: 2139 
   26300    71.756021     1506         1399          107 1.4253952e-12 9.2098476e-15          0.1  0.009024144    81.082657  0.029859797 
number of iterations: 2135 
   26400    71.991005     1526         1419          107 1.4442846e-12 9.2099148e-15          0.1  0.009024448    82.192234  0.029859291 
number of iterations: 2150 
   26500    72.240761     1548         1441          107 1.4634243e-12 9.2099865e-15          0.1 0.0090247549    83.316516   0.02985878 
number of iterations: 2173 
   26600    72.517773     1564         1457          107 1.4828176e-12 9.2100626e-15          0.1 0.0090250874    84.455701  0.029858226 
number of iterations: 2183 
   26700    72.766151     1583         1476          107 1.502468e-12 9.2101431e-15          0.1 0.0090253984    85.609984  0.029857708 
number of iterations: 2198 
   26800     73.01989     1600         1493          107 1.5223787e-12 9.210228e-15          0.1 0.0090257632    86.779564  0.029857101 
number of iterations: 2170 
   26900    73.251479     1624         1517          107 1.5425533e-12 9.2103171e-15          0.1 0.0090261129    87.964646  0.029856518 
number of iterations: 2171 
   27000    73.480805     1651         1544          107 1.5629953e-12 9.2104104e-15          0.1 0.0090264449    89.165433  0.029855966 
number of iterations: 2194 
   27100    73.725782     1676         1569          107 1.5822996e-12 9.2105079e-15          0.1 0.0090267645    90.381056  0.029855433 
number of iterations: 2196 
   27200    73.971428     1701         1594          107 1.6032682e-12 9.2106095e-15          0.1 0.0090271198    91.612793  0.029854842 
number of iterations: 2165 
   27300    74.294114     1717         1610          107 1.6245148e-12 9.2107151e-15          0.1 0.0090274531    92.860855  0.029854287 
number of iterations: 2221 
   27400     74.60702     1742         1635          107 1.6460429e-12 9.2108247e-15          0.1 0.0090278324     94.12546  0.029853655 
number of iterations: 2142 
   27500    74.848947     1751         1644          107 1.6678562e-12 9.2109383e-15          0.1 0.0090281834    95.406826  0.029853071 
number of iterations: 2219 
   27600    75.106592     1782         1675          107 1.6899587e-12 9.2110558e-15          0.1 0.0090285747    96.705175  0.029852419 
number of iterations: 2175 
   27700    75.340306     1799         1692          107 1.712354e-12 9.2111771e-15          0.1 0.0090289313    98.020731  0.029851826 
number of iterations: 2168 
   27800    75.569632     1834         1727          107 1.7350461e-12 9.2113022e-15          0.1 0.0090293228    99.353724  0.029851174 
number of iterations: 2214 
   27900    75.799411     1857         1750          107 1.758039e-12 9.2114311e-15          0.1 0.0090296819    100.70439  0.029850576 
number of iterations: 2218 
   28000    76.038681     1880         1773          107 1.7813365e-12 9.2115637e-15          0.1 0.0090301021    102.07295  0.029849876 
number of iterations: 2208 
   28100    76.286948     1907         1800          107 1.8049428e-12 9.2116999e-15          0.1 0.0090305071    103.45965  0.029849202 
number of iterations: 2212 
   28200    76.542893     1921         1814          107 1.8288619e-12 9.2118397e-15          0.1 0.0090309286    104.86473    0.0298485 
number of iterations: 2202 
   28300     76.81827     1936         1829          107 1.8530979e-12 9.2119831e-15          0.1 0.0090313374    106.28843  0.029847819 
number of iterations: 2220 
   28400    77.047999     1953         1846          107 1.8776552e-12 9.2121301e-15          0.1 0.0090317323      107.731  0.029847162 
number of iterations: 2231 
   28500    77.347246     1976         1869          107 1.9014739e-12 9.2122805e-15          0.1 0.0090321276    109.19187  0.029846503 
number of iterations: 2248 
   28600    77.603587     2002         1895          107 1.9266722e-12 9.2124343e-15          0.1 0.0090325786    110.67211  0.029845752 
number of iterations: 2225 
   28700    77.879718     2028         1921          107 1.9522044e-12 9.2125915e-15          0.1 0.0090330454    112.17197  0.029844975 
number of iterations: 2241 
   28800    78.144228     2044         1937          107 1.978075e-12 9.2127521e-15          0.1 0.0090334866     113.6917   0.02984424 
number of iterations: 2243 
   28900    78.388853     2070         1963          107 2.0042884e-12 9.2129159e-15          0.1  0.009033923    115.23157  0.029843514 
number of iterations: 2251 
   29000    78.628177     2092         1985          107 2.0308491e-12 9.213083e-15          0.1 0.0090343733    116.79186  0.029842764 
number of iterations: 2225 
   29100    78.883585     2124         2017          107 2.0577619e-12 9.2132534e-15          0.1  0.009034794    118.37282  0.029842063 
number of iterations: 2263 
   29200    79.255873     2153         2046          107 2.0841205e-12 9.2134269e-15          0.1 0.0090352511    119.97405  0.029841302 
number of iterations: 2206 
   29300    79.492824     2184         2077          107 2.1117392e-12 9.2136035e-15          0.1 0.0090356907    121.59649   0.02984057 
number of iterations: 2281 
   29400    79.743548     2210         2103          107 2.1397239e-12 9.2137832e-15          0.1 0.0090361643    123.24043  0.029839782 
number of iterations: 2206 
   29500    80.022507     2237         2130          107 2.1680794e-12 9.213966e-15          0.1 0.0090366158    124.90617   0.02983903 
number of iterations: 2218 
   29600    80.255602     2270         2163          107 2.1968107e-12 9.2141518e-15          0.1 0.0090370499    126.59398  0.029838307 
number of iterations: 2209 
   29700    80.499492     2303         2196          107 2.2259227e-12 9.2143406e-15          0.1 0.0090375285    128.30416   0.02983751 
number of iterations: 2252 
   29800    80.761169     2325         2218          107 2.2534807e-12 9.2145323e-15          0.1 0.0090379743    130.03553  0.029836768 
number of iterations: 2273 
   29900    80.992594     2354         2247          107 2.2833437e-12 9.2147269e-15          0.1 0.0090384821    131.78984  0.029835923 
number of iterations: 2257 
   30000    81.271269     2372         2265          107 2.3136024e-12 9.2149243e-15          0.1 0.0090389837    133.56741  0.029835087 
number of iterations: 2254 
   30100    81.516896     2407         2300          107 2.3442622e-12 9.2151246e-15          0.1 0.0090394709    135.36853  0.029834276 
number of iterations: 2251 
   30200    81.760397     2429         2322          107 2.3742918e-12 9.2153277e-15          0.1 0.0090399536    137.19273  0.029833472 
number of iterations: 2297 
   30300    82.016319     2458         2351          107 2.4057558e-12 9.2155335e-15          0.1 0.0090404816    139.04111  0.029832593 
number of iterations: 2264 
   30400    82.263218     2482         2375          107 2.4376367e-12 9.2157421e-15          0.1 0.0090409995    140.91398  0.029831731 
number of iterations: 2287 
   30500    82.521411     2517         2410          107 2.4699401e-12 9.2159533e-15          0.1 0.0090415646    142.81167   0.02983079 
number of iterations: 2264 
   30600    82.771065     2556         2449          107 2.5026715e-12 9.2161672e-15          0.1 0.0090420811     144.7345   0.02982993 
number of iterations: 2282 
   30700    83.032177     2587         2480          107 2.534583e-12 9.2163836e-15          0.1 0.0090426158    146.68187  0.029829039 
number of iterations: 2258 
   30800     83.27411     2630         2523          107 2.5681711e-12 9.2166027e-15          0.1 0.0090431601    148.65504  0.029828133 
number of iterations: 2286 
   30900     83.56477     2680         2573          107 2.6022043e-12 9.2168243e-15          0.1 0.0090437142    150.65436  0.029827211 
number of iterations: 2312 
   31000    83.826803     2719         2612          107 2.6340586e-12 9.2170484e-15          0.1 0.0090442433    152.67817  0.029826329 
number of iterations: 2306 
   31100    84.095328     2754         2647          107 2.6689649e-12 9.217275e-15          0.1 0.0090448513     154.7288  0.029825317 
number of iterations: 2309 
   31200    84.362276     2789         2682          107 2.7043338e-12 9.217504e-15          0.1 0.0090454398    156.80661  0.029824337 
number of iterations: 2223 
   31300    84.607104     2824         2717          107 2.7401714e-12 9.2177355e-15          0.1 0.0090459998    158.91195  0.029823405 
number of iterations: 2278 
   31400    84.861046     2864         2757          107 2.7764839e-12 9.2179693e-15          0.1 0.0090465689     161.0452  0.029822457 
number of iterations: 2316 
   31500     85.12262     2900         2793          107 2.8109003e-12 9.2182055e-15          0.1 0.0090471611    163.20491  0.029821471 
number of iterations: 2283 
   31600    85.384602     2936         2829          107  2.84815e-12 9.218444e-15          0.1  0.009047772    165.39325  0.029820454 
number of iterations: 2299 
   31700    85.657336     2964         2857          107 2.8858934e-12 9.2186848e-15          0.1 0.0090484163    167.61058  0.029819381 
number of iterations: 2324 
   31800    85.926125     3002         2895          107 2.9227527e-12 9.2189279e-15          0.1  0.009049066    169.85623  0.029818299 
number of iterations: 2313 
   31900    86.186529     3040         2933          107 2.9614847e-12 9.2191732e-15          0.1 0.0090497282    172.13166  0.029817197 
number of iterations: 2327 
   32000    86.444753     3085         2978          107 3.0007299e-12 9.2194207e-15          0.1 0.0090503497    174.43725  0.029816162 
number of iterations: 2287 
   32100    86.734105     3117         3010          107 3.0404952e-12 9.2196704e-15          0.1 0.0090509852    176.77338  0.029815104 
number of iterations: 2340 
   32200    87.002189     3158         3051          107 3.0807875e-12 9.2199223e-15          0.1 0.0090516683    179.14048  0.029813966 
number of iterations: 2268 
   32300    87.277163     3191         3084          107 3.1205061e-12 9.2201763e-15          0.1 0.0090523091    181.53811  0.029812899 
number of iterations: 2320 
   32400    87.567625     3227         3120          107 3.1593107e-12 9.2204323e-15          0.1  0.009052935    183.96556  0.029811857 
number of iterations: 2309 
   32500    87.876398     3271         3164          107 3.2001228e-12 9.2206905e-15          0.1  0.009053579    186.42437  0.029810785 
number of iterations: 2357 
   32600    88.139444     3303         3196          107 3.2425304e-12 9.2209507e-15          0.1 0.0090543082    188.91577  0.029809571 
number of iterations: 2348 
   32700    88.392328     3340         3233          107   3.2855e-12 9.2212129e-15          0.1 0.0090550116    191.44017  0.029808399 
number of iterations: 2350 
   32800    88.649722     3374         3267          107 3.3290389e-12 9.2214771e-15          0.1 0.0090557561    193.99804   0.02980716 
number of iterations: 2322 
   32900    88.942149     3413         3306          107 3.3708148e-12 9.2217432e-15          0.1 0.0090564208    196.58801  0.029806053 
number of iterations: 2345 
   33000    89.216842     3461         3354          107 3.4154843e-12 9.2220114e-15          0.1 0.0090571308     199.2123  0.029804871 
number of iterations: 2351 
   33100    89.497676     3512         3405          107 3.4600871e-12 9.2222814e-15          0.1 0.0090578858    201.87087  0.029803613 
number of iterations: 2320 
   33200     89.78895     3558         3451          107 3.5039144e-12 9.2225533e-15          0.1 0.0090585976    204.56312  0.029802428 
number of iterations: 2340 
   33300    90.134769     3610         3503          107 3.5503477e-12 9.222827e-15          0.1 0.0090592998    207.29104  0.029801259 
number of iterations: 2333 
   33400    90.424963     3662         3555          107 3.5973963e-12 9.2231027e-15          0.1 0.0090600628    210.05512  0.029799989 
number of iterations: 2337 
   33500    90.704028     3700         3593          107 3.6450684e-12 9.2233801e-15          0.1 0.0090608258    212.85583  0.029798718 
number of iterations: 2364 
   33600    90.978904     3763         3656          107 3.6933722e-12 9.2236593e-15          0.1 0.0090615758    215.69364  0.029797469 
number of iterations: 2377 
   33700    91.243268     3808         3701          107 3.7423161e-12 9.2239403e-15          0.1 0.0090624011    218.56907  0.029796095 
number of iterations: 2321 
   33800    91.524307     3854         3747          107 3.7908674e-12 9.2242231e-15          0.1 0.0090631524    221.48181  0.029794844 
number of iterations: 2349 
   33900    91.785423     3904         3797          107 3.8401431e-12 9.2245076e-15          0.1 0.0090639246    224.43241  0.029793558 
number of iterations: 2379 
   34000    92.096536     3937         3830          107 3.8896551e-12 9.2247937e-15          0.1 0.0090647163    227.42107   0.02979224 
number of iterations: 2376 
   34100     92.38589     3977         3870          107 3.9412001e-12 9.2250816e-15          0.1 0.0090655803    230.44933  0.029790801 
number of iterations: 2368 
   34200    92.658438     4034         3927          107 3.9934281e-12 9.2253711e-15          0.1 0.0090664156    233.51774  0.029789411 
number of iterations: 2360 
   34300     92.96296     4085         3978          107 4.0463482e-12 9.2256623e-15          0.1 0.0090672084     236.6268   0.02978809 
number of iterations: 2339 
   34400     93.27011     4126         4019          107 4.0999696e-12 9.2259551e-15          0.1  0.009068045    239.77707  0.029786697 
number of iterations: 2383 
   34500    93.568184     4183         4076          107 4.1543015e-12 9.2262495e-15          0.1 0.0090689619    242.96909  0.029785171 
number of iterations: 2398 
   34600    93.859727     4238         4131          107 4.2081417e-12 9.2265455e-15          0.1  0.009069828    246.20249  0.029783729 
number of iterations: 2369 
   34700    94.184274     4294         4187          107 4.2610825e-12 9.226843e-15          0.1 0.0090706401    249.47659  0.029782376 
number of iterations: 2373 
   34800    94.491211     4362         4255          107 4.3175494e-12 9.2271421e-15          0.1 0.0090716118    252.79408  0.029780758 
number of iterations: 2356 
   34900    94.766236     4420         4313          107 4.3747646e-12 9.2274427e-15          0.1 0.0090724829    256.15554  0.029779308 
number of iterations: 2410 
   35000     95.07386     4465         4358          107 4.432738e-12 9.2277448e-15          0.1 0.0090734273    259.56154  0.029777735 
Loop time of 95.0739 on 32 procs for 35000 steps with 4465 atoms

Performance: 318068367.881 tau/day, 368.135 timesteps/s
92.7% CPU use with 32 MPI tasks x no OpenMP threads

MPI task timing breakdown:
Section |  min time  |  avg time  |  max time  |%varavg| %total
---------------------------------------------------------------
Pair    | 0.0016974  | 0.067111   | 0.26808    |  23.9 |  0.07
Neigh   | 0.002941   | 0.019425   | 0.06145    |  10.8 |  0.02
Comm    | 0.10545    | 0.19255    | 0.27423    |  11.7 |  0.20
Output  | 23.171     | 23.172     | 23.182     |   0.0 | 24.37
Modify  | 71.01      | 71.058     | 71.149     |   0.4 | 74.74
Other   |            | 0.5649     |            |       |  0.59

Nlocal:    139.531 ave 429 max 0 min
Histogram: 6 5 7 3 5 2 1 0 1 2
Nghost:    92.125 ave 205 max 12 min
Histogram: 2 3 5 6 4 8 0 3 0 1
Neighs:    522.312 ave 1911 max 0 min
Histogram: 9 6 7 3 3 1 0 1 1 1

Total # of neighbors = 16714
Ave neighs/atom = 3.74334
Neighbor list builds = 673
Dangerous builds = 0
Total wall time: 0:01:35
