 NUFEB Simulation

     100 atoms 
     2 atom types 
     4 nutrients 

  0.0e-4   1.00e-04  xlo xhi 
  0.0e-4   1.00e-04  ylo yhi 
  0.0e-4   1.00e-05  zlo zhi 

 Atoms 

     1 1 1.69e-06  370 9.54e-06 4.00e-05 2.98e-06 1.69e-06 
     2 1 1.61e-06  370 8.57e-05 1.85e-05 8.32e-06 1.61e-06 
     3 1 1.47e-06  370 5.40e-05 1.53e-05 7.44e-06 1.47e-06 
     4 1 1.44e-06  370 7.45e-05 6.51e-05 6.80e-06 1.44e-06 
     5 1 1.43e-06  370 2.05e-06 8.31e-05 7.01e-06 1.43e-06 
     6 1 1.65e-06  370 8.38e-05 3.59e-05 4.17e-06 1.65e-06 
     7 1 1.92e-06  370 6.21e-05 3.76e-05 2.04e-06 1.92e-06 
     8 1 1.50e-06  370 4.09e-05 6.33e-05 1.69e-06 1.50e-06 
     9 1 1.51e-06  370 4.38e-06 2.57e-05 3.04e-06 1.51e-06 
     10 1 1.87e-06  370 8.26e-05 6.49e-05 7.66e-06 1.87e-06 
     11 1 1.40e-06  370 2.66e-05 7.13e-05 1.56e-06 1.40e-06 
     12 1 1.92e-06  370 8.16e-05 9.45e-05 2.40e-06 1.92e-06 
     13 1 1.80e-06  370 1.18e-05 5.88e-05 7.79e-06 1.80e-06 
     14 1 1.84e-06  370 5.82e-05 9.77e-05 5.52e-06 1.84e-06 
     15 1 1.55e-06  370 2.68e-05 8.14e-05 3.77e-06 1.55e-06 
     16 1 1.44e-06  370 5.63e-05 1.86e-05 4.73e-06 1.44e-06 
     17 1 1.93e-06  370 6.83e-05 4.21e-05 3.09e-06 1.93e-06 
     18 1 1.79e-06  370 6.23e-05 2.11e-05 4.82e-06 1.79e-06 
     19 1 1.52e-06  370 1.21e-05 2.73e-05 1.83e-06 1.52e-06 
     20 1 1.51e-06  370 7.41e-05 3.47e-06 6.09e-06 1.51e-06 
     21 1 1.90e-06  370 6.45e-05 4.08e-05 7.72e-06 1.90e-06 
     22 1 1.76e-06  370 5.30e-05 4.88e-05 5.06e-06 1.76e-06 
     23 1 1.41e-06  370 6.22e-05 8.57e-05 6.76e-06 1.41e-06 
     24 1 1.49e-06  370 9.31e-05 8.30e-05 4.92e-06 1.49e-06 
     25 1 1.88e-06  370 7.48e-05 2.65e-05 2.44e-06 1.88e-06 
     26 1 1.84e-06  370 8.31e-05 8.32e-05 3.01e-06 1.84e-06 
     27 1 1.56e-06  370 9.56e-06 1.01e-05 5.06e-06 1.56e-06 
     28 1 1.57e-06  370 8.46e-06 8.21e-05 3.85e-06 1.57e-06 
     29 1 1.62e-06  370 9.45e-05 5.35e-05 4.24e-06 1.62e-06 
     30 1 1.77e-06  370 7.58e-05 4.20e-06 2.56e-06 1.77e-06 
     31 1 1.77e-06  370 9.91e-06 6.28e-05 5.30e-06 1.77e-06 
     32 1 1.88e-06  370 4.52e-05 1.11e-05 7.11e-06 1.88e-06 
     33 1 1.74e-06  370 2.34e-05 2.52e-05 5.55e-06 1.74e-06 
     34 1 1.87e-06  370 8.58e-05 5.37e-05 3.68e-06 1.87e-06 
     35 1 1.45e-06  370 4.83e-05 3.76e-05 2.97e-06 1.45e-06 
     36 1 1.41e-06  370 6.13e-05 1.52e-05 6.88e-06 1.41e-06 
     37 1 1.48e-06  370 4.80e-05 2.26e-05 3.50e-06 1.48e-06 
     38 1 1.51e-06  370 9.75e-05 1.98e-05 6.23e-06 1.51e-06 
     39 1 1.46e-06  370 8.32e-05 3.43e-05 2.85e-06 1.46e-06 
     40 1 1.56e-06  370 5.94e-05 2.80e-05 4.17e-06 1.56e-06 
     41 1 1.41e-06  370 9.55e-06 9.73e-05 4.38e-06 1.41e-06 
     42 1 1.54e-06  370 5.72e-05 7.79e-05 4.63e-06 1.54e-06 
     43 1 1.79e-06  370 2.53e-05 9.42e-05 2.68e-06 1.79e-06 
     44 1 1.69e-06  370 2.45e-05 1.44e-05 4.31e-06 1.69e-06 
     45 1 1.46e-06  370 2.14e-05 2.65e-05 6.61e-06 1.46e-06 
     46 1 1.42e-06  370 7.67e-05 2.88e-05 6.09e-06 1.42e-06 
     47 1 1.70e-06  370 6.41e-05 1.09e-05 2.61e-06 1.70e-06 
     48 1 1.92e-06  370 1.15e-05 3.85e-05 5.00e-06 1.92e-06 
     49 1 1.74e-06  370 1.81e-05 1.13e-05 8.05e-06 1.74e-06 
     50 1 1.50e-06  370 3.14e-05 4.84e-05 4.57e-06 1.50e-06 
     51 2 8.99e-07  230 8.74e-05 3.85e-05 5.02e-06 8.99e-07 
     52 2 1.08e-06  230 8.54e-05 1.35e-05 1.25e-06 1.08e-06 
     53 2 8.98e-07  230 8.62e-05 7.82e-05 6.32e-06 8.98e-07 
     54 2 1.02e-06  230 8.02e-05 2.10e-05 6.87e-06 1.02e-06 
     55 2 1.36e-06  230 8.84e-05 3.54e-05 2.71e-06 1.36e-06 
     56 2 9.84e-07  230 6.85e-05 6.36e-05 5.20e-06 9.84e-07 
     57 2 9.40e-07  230 4.53e-05 3.43e-05 5.48e-06 9.40e-07 
     58 2 1.31e-06  230 9.20e-05 9.10e-06 5.05e-06 1.31e-06 
     59 2 9.12e-07  230 1.95e-05 8.39e-05 3.16e-06 9.12e-07 
     60 2 8.91e-07  230 7.93e-05 4.26e-05 7.30e-06 8.91e-07 
     61 2 1.01e-06  230 6.09e-05 7.79e-06 2.39e-06 1.01e-06 
     62 2 1.33e-06  230 6.11e-06 8.56e-05 6.24e-06 1.33e-06 
     63 2 1.23e-06  230 3.97e-05 2.90e-05 5.91e-06 1.23e-06 
     64 2 1.01e-06  230 5.50e-05 5.07e-05 1.33e-06 1.01e-06 
     65 2 1.17e-06  230 3.93e-05 3.61e-05 8.14e-06 1.17e-06 
     66 2 8.91e-07  230 5.16e-05 4.14e-05 7.12e-06 8.91e-07 
     67 2 1.13e-06  230 3.97e-05 2.36e-05 4.76e-06 1.13e-06 
     68 2 9.81e-07  230 3.44e-05 8.60e-05 1.20e-06 9.81e-07 
     69 2 9.15e-07  230 9.19e-05 4.86e-05 6.65e-06 9.15e-07 
     70 2 1.03e-06  230 7.35e-06 2.56e-05 5.91e-06 1.03e-06 
     71 2 1.37e-06  230 4.05e-05 8.64e-05 1.62e-06 1.37e-06 
     72 2 1.39e-06  230 4.61e-05 1.39e-05 7.80e-06 1.39e-06 
     73 2 1.01e-06  230 9.46e-05 3.53e-05 7.45e-06 1.01e-06 
     74 2 1.08e-06  230 6.14e-05 2.65e-05 2.49e-06 1.08e-06 
     75 2 1.02e-06  230 1.20e-05 5.04e-05 1.79e-06 1.02e-06 
     76 2 1.10e-06  230 9.78e-05 3.34e-05 5.06e-06 1.10e-06 
     77 2 1.01e-06  230 5.19e-05 7.87e-05 7.63e-06 1.01e-06 
     78 2 1.35e-06  230 4.99e-05 8.38e-05 4.44e-06 1.35e-06 
     79 2 9.91e-07  230 9.50e-06 6.85e-05 7.79e-06 9.91e-07 
     80 2 9.24e-07  230 1.48e-05 5.42e-05 8.15e-06 9.24e-07 
     81 2 1.20e-06  230 1.89e-05 4.15e-06 6.35e-06 1.20e-06 
     82 2 1.22e-06  230 9.59e-05 6.23e-05 1.81e-06 1.22e-06 
     83 2 1.18e-06  230 5.46e-05 6.86e-05 4.45e-06 1.18e-06 
     84 2 1.01e-06  230 2.60e-05 3.53e-05 3.31e-06 1.01e-06 
     85 2 1.31e-06  230 3.62e-05 1.27e-05 5.20e-06 1.31e-06 
     86 2 1.24e-06  230 7.01e-06 5.44e-05 5.15e-06 1.24e-06 
     87 2 1.05e-06  230 2.54e-05 1.93e-05 2.48e-06 1.05e-06 
     88 2 1.16e-06  230 9.83e-05 1.31e-05 1.86e-06 1.16e-06 
     89 2 1.31e-06  230 4.15e-05 6.87e-05 2.02e-06 1.31e-06 
     90 2 1.04e-06  230 9.52e-06 5.10e-05 8.14e-06 1.04e-06 
     91 2 1.30e-06  230 7.54e-05 5.94e-05 5.72e-06 1.30e-06 
     92 2 1.31e-06  230 9.44e-05 5.70e-05 1.62e-06 1.31e-06 
     93 2 1.38e-06  230 4.56e-05 2.90e-05 3.79e-06 1.38e-06 
     94 2 1.22e-06  230 2.17e-05 4.09e-05 6.33e-06 1.22e-06 
     95 2 1.22e-06  230 7.67e-05 4.70e-05 3.70e-06 1.22e-06 
     96 2 1.26e-06  230 9.63e-05 4.05e-05 6.33e-06 1.26e-06 
     97 2 9.68e-07  230 3.29e-05 3.68e-05 6.24e-06 9.68e-07 
     98 2 1.21e-06  230 4.41e-05 4.06e-05 4.17e-06 1.21e-06 
     99 2 1.18e-06  230 4.59e-05 5.28e-05 3.62e-06 1.18e-06 
     100 2 1.21e-06  230 9.86e-05 5.42e-05 3.00e-06 1.21e-06 

 Nutrients 

     1 sub g nn nn nn 1.00e-01 1.00e-01 
     2 o2 l nn nn nd 9.00e-03 9.00e-03 
     3 suc l nn nn nn 3.42e-20 3.42e-20 
     4 co2 l nn nn nd 2.99e-02 2.99e-02 

 Type Name 

     1 cyano  
     2 ecw  

 Diffusion Coeffs 

     sub 0 
     o2 2.3e-09 
     suc 5.2e-10 
     co2 1.9e-09 

 Growth Rate 

     cyano 1.67e-05 
     ecw 2e-06 

 Ks 

     cyano 0.00035 0.0002 0.01 0.000138 
     ecw 0 0.001 3.6 0.05 

 Yield 

     cyano 0.55 
     ecw 0.43 

 Maintenance 

     cyano 0 
     ecw 9.5e-07 

 Decay 

     cyano 0 
     ecw 0 



