LAMMPS (20 Nov 2019)
Reading data file ...
  orthogonal box = (0 0 0) to (0.0001 0.0001 1e-05)
  8 by 4 by 1 MPI processor grid
  reading atoms ...
  100 atoms
  4 nutrients
Lattice spacing in x,y,z = 100 100 100
50 atoms in group CYANO
50 atoms in group ECW
Model is defined as a closed system. 
Neighbor list info ...
  update every 1 steps, delay 0 steps, check yes
  max neighbors/atom: 5000, page size: 100000
  master list distance cutoff = 2.43e-06
  ghost atom cutoff = 2.43e-06
  binsize = 1.215e-06, bins = 83 83 9
  1 neighbor lists, perpetual/occasional/extra = 1 0 0
  (1) pair gran/hooke/history, perpetual
      attributes: half, newton off, size, history
      pair build: half/size/bin/newtoff
      stencil: half/bin/3d/newtoff
      bin: standard
Setting up Verlet run ...
  Unit style    : lj
  Current step  : 0
  Time step     : 10
Per MPI rank memory allocation (min/avg/max) = 6.792 | 10.66 | 12.11 Mbytes
Step CPU Atoms c_myNtypes[1] c_myNtypes[2] c_myMass[1] c_myMass[2] c_myCon[1] c_myCon[2] c_myCon[3] c_myCon[4] 
       0            0      100           50           50 4.403805e-14 9.0401554e-15          0.1        0.009     3.42e-20       0.0299 
number of iterations: 323565 
     100    15.757908      130           50           80 4.4621652e-14 9.0325844e-15          0.1 0.0090007839  0.035380502  0.029898694 
number of iterations: 4086 
     200    16.079957      145           50           95 4.5212988e-14 9.0251751e-15          0.1 0.0090007942  0.070116958  0.029898677 
number of iterations: 2787 
     300    16.353473      145           50           95 4.581216e-14 9.0179201e-15          0.1 0.0090008048   0.10530609  0.029898659 
number of iterations: 2123 
     400    16.599973      145           50           95 4.6419273e-14 9.0108184e-15          0.1 0.0090008154    0.1409563  0.029898642 
number of iterations: 1720 
     500    16.821069      146           51           95 4.7034431e-14 9.0038687e-15          0.1 0.0090008262   0.17707472  0.029898624 
number of iterations: 1542 
     600    17.064473      149           54           95 4.7657741e-14 8.9970702e-15          0.1 0.0090008401    0.2136681  0.029898601 
number of iterations: 1384 
     700    17.254582      149           54           95 4.8289312e-14 8.9904223e-15          0.1 0.0090008512    0.2507431  0.029898582 
number of iterations: 1387 
     800    17.458086      149           54           95 4.8929252e-14 8.983924e-15          0.1 0.0090008625   0.28830628  0.029898563 
number of iterations: 1347 
     900    17.630843      150           55           95 4.9577673e-14 8.9775744e-15          0.1 0.0090008675   0.32636424  0.029898555 
number of iterations: 1391 
    1000    17.847523      150           55           95 5.0234687e-14 8.9713724e-15          0.1  0.009000879   0.36492363  0.029898536 
number of iterations: 1475 
    1100    18.039803      152           57           95 5.0900408e-14 8.965317e-15          0.1 0.0090008922   0.40399119  0.029898514 
number of iterations: 1499 
    1200    18.225036      154           59           95 5.1574951e-14 8.9594073e-15          0.1 0.0090008958   0.44357361  0.029898508 
number of iterations: 1400 
    1300    18.408505      154           59           95 5.2258434e-14 8.9536419e-15          0.1 0.0090009076    0.4836779  0.029898488 
number of iterations: 1403 
    1400    18.633767      154           59           95 5.2950974e-14 8.9480198e-15          0.1 0.0090009196   0.52431103  0.029898468 
number of iterations: 1454 
    1500    18.816945      154           59           95 5.3652691e-14 8.9425398e-15          0.1 0.0090009318   0.56548006  0.029898448 
number of iterations: 1412 
    1600    18.985283      156           61           95 5.4363708e-14 8.9372008e-15          0.1 0.0090009406   0.60719219  0.029898433 
number of iterations: 1412 
    1700    19.156359      156           61           95 5.5084148e-14 8.9320016e-15          0.1  0.009000953   0.64945469  0.029898412 
number of iterations: 1415 
    1800     19.32658      156           61           95 5.5814135e-14 8.926941e-15          0.1 0.0090009657    0.6922749  0.029898391 
number of iterations: 1418 
    1900    19.498216      156           61           95 5.6553796e-14 8.9220178e-15          0.1 0.0090009785   0.73566029   0.02989837 
number of iterations: 1421 
    2000    19.707684      156           61           95 5.7303259e-14 8.9172309e-15          0.1 0.0090009914   0.77961841  0.029898348 
number of iterations: 1423 
    2100    19.888712      157           62           95 5.8062654e-14 8.912579e-15          0.1 0.0090009998   0.82415706  0.029898335 
number of iterations: 1525 
    2200    20.077668      159           64           95 5.8832113e-14 8.9080612e-15          0.1 0.0090010146   0.86928386   0.02989831 
number of iterations: 1429 
    2300    20.258173      159           64           95 5.9611768e-14 8.9036764e-15          0.1  0.009001028   0.91500665  0.029898287 
number of iterations: 1432 
    2400    20.435009      159           64           95 6.0401756e-14 8.8994233e-15          0.1 0.0090010417    0.9613334  0.029898265 
number of iterations: 1598 
    2500    20.639065      161           66           95 6.1202213e-14 8.895301e-15          0.1 0.0090010571    1.0082724  0.029898239 
number of iterations: 1452 
    2600     20.81372      162           67           95 6.2013278e-14 8.8913084e-15          0.1 0.0090010711    1.0558314  0.029898216 
number of iterations: 1442 
    2700    21.011931      162           67           95 6.2835091e-14 8.8874443e-15          0.1 0.0090010853    1.1040189  0.029898192 
number of iterations: 1445 
    2800    21.179839      162           67           95 6.3667795e-14 8.8837076e-15          0.1 0.0090010997    1.1528433  0.029898168 
number of iterations: 1657 
    2900    21.375022      164           69           95 6.4511534e-14 8.8800971e-15          0.1  0.009001117     1.202313  0.029898139 
number of iterations: 1451 
    3000    21.589677      164           69           95 6.5366455e-14 8.8766117e-15          0.1 0.0090011318    1.2524367  0.029898115 
number of iterations: 1454 
    3100    21.759343      164           69           95 6.6232705e-14 8.8732504e-15          0.1 0.0090011468    1.3032231   0.02989809 
number of iterations: 1456 
    3200    21.933176      164           69           95 6.7110434e-14 8.8700122e-15          0.1  0.009001162     1.354681  0.029898064 
number of iterations: 1459 
    3300    22.124734      164           69           95 6.7999796e-14 8.8668959e-15          0.1 0.0090011774    1.4068195  0.029898039 
number of iterations: 1487 
    3400    22.297558      165           70           95 6.8900944e-14 8.8639006e-15          0.1  0.009001193    1.4596475  0.029898013 
number of iterations: 1568 
    3500     22.47909      167           72           95 6.9814034e-14 8.8610255e-15          0.1  0.009001212    1.5131745  0.029897981 
number of iterations: 1468 
    3600    22.674939      167           72           95 7.0739224e-14 8.8582691e-15          0.1 0.0090012281    1.5674096  0.029897954 
number of iterations: 1471 
    3700    22.850141      167           72           95 7.1676675e-14 8.8556305e-15          0.1 0.0090012444    1.6223622  0.029897927 
number of iterations: 1607 
    3800    23.049799      167           72           95 7.2626549e-14 8.8531087e-15          0.1 0.0090012648     1.678042  0.029897893 
number of iterations: 1558 
    3900    23.239363      167           72           95 7.3589011e-14 8.8507025e-15          0.1  0.009001283    1.7344585  0.029897863 
number of iterations: 1483 
    4000    23.422113      167           72           95 7.4564228e-14 8.848411e-15          0.1    0.0090013    1.7916217  0.029897835 
number of iterations: 1598 
    4100    23.637007      168           73           95 7.5552369e-14 8.8462337e-15          0.1 0.0090013198    1.8495413  0.029897801 
number of iterations: 1489 
    4200    23.838006      168           73           95 7.6553605e-14 8.844169e-15          0.1 0.0090013373    1.9082276  0.029897772 
number of iterations: 1511 
    4300    24.080452      168           73           95 7.7568109e-14 8.8422161e-15          0.1 0.0090013551    1.9676908  0.029897743 
number of iterations: 1494 
    4400     24.26819      168           73           95 7.8596058e-14 8.8403738e-15          0.1  0.009001373    2.0279412  0.029897713 
number of iterations: 1615 
    4500    24.437899      169           74           95 7.9637629e-14 8.8386414e-15          0.1 0.0090013944    2.0889893  0.029897677 
number of iterations: 1695 
    4600    24.628836      170           75           95 8.0693003e-14 8.8370177e-15          0.1 0.0090014181    2.1508455  0.029897638 
number of iterations: 1505 
    4700    24.822959      170           75           95 8.1762364e-14 8.8355017e-15          0.1 0.0090014369    2.2135209  0.029897606 
number of iterations: 1561 
    4800    25.055567      171           76           95 8.2845895e-14 8.8340925e-15          0.1 0.0090014576    2.2770263  0.029897572 
number of iterations: 1583 
    4900     25.24053      173           78           95 8.3943786e-14 8.8327891e-15          0.1 0.0090014777    2.3413728  0.029897539 
number of iterations: 1574 
    5000    25.435771      173           78           95 8.5056227e-14 8.8315905e-15          0.1 0.0090014909    2.4065715  0.029897517 
number of iterations: 1601 
    5100    25.620909      174           79           95 8.6183409e-14 8.830496e-15          0.1 0.0090015163    2.4726337  0.029897474 
number of iterations: 1520 
    5200    25.793367      175           80           95 8.732553e-14 8.8295044e-15          0.1  0.009001534    2.5395709  0.029897445 
number of iterations: 1523 
    5300    25.977511      175           80           95 8.8482786e-14 8.8286149e-15          0.1 0.0090015543    2.6073949  0.029897411 
number of iterations: 1649 
    5400    26.203683      179           84           95 8.9655378e-14 8.8278264e-15          0.1 0.0090015799    2.6761175  0.029897368 
number of iterations: 1530 
    5500    26.395052      182           87           95 9.0843509e-14 8.827138e-15          0.1 0.0090015979    2.7457505  0.029897338 
number of iterations: 1552 
    5600    26.585474      183           88           95 9.2047386e-14 8.826549e-15          0.1 0.0090016203    2.8163061  0.029897301 
number of iterations: 1535 
    5700    26.775373      183           88           95 9.3267217e-14 8.8260583e-15          0.1  0.009001635    2.8877966  0.029897277 
number of iterations: 1539 
    5800    26.972861      183           88           95 9.4503213e-14 8.8256651e-15          0.1 0.0090016567    2.9602345  0.029897241 
number of iterations: 1578 
    5900    27.155795      185           90           95 9.5755589e-14 8.8253685e-15          0.1 0.0090016795    3.0336322  0.029897202 
number of iterations: 1544 
    6000     27.33523      185           90           95 9.7024561e-14 8.8251676e-15          0.1 0.0090017018    3.1080026  0.029897165 
number of iterations: 1794 
    6100    27.543674      189           94           95 9.8310351e-14 8.8250615e-15          0.1 0.0090017392    3.1833585  0.029897103 
number of iterations: 1577 
    6200    27.749526      191           96           95 9.9613179e-14 8.8250492e-15          0.1 0.0090017577    3.2597132  0.029897072 
number of iterations: 1556 
    6300    27.930926      192           97           95 1.0093327e-13  8.82513e-15          0.1  0.009001781      3.33708  0.029897033 
number of iterations: 1498 
    6400    28.109962      195          100           95 1.0227086e-13 8.8253033e-15          0.1 0.0090017926    3.4154723  0.029897014 
number of iterations: 1500 
    6500    28.294016      197          102           95 1.0362618e-13 8.8255678e-15          0.1 0.0090018123    3.4949037  0.029896981 
number of iterations: 1536 
    6600    28.490871      198          103           95 1.0499945e-13 8.8259226e-15          0.1 0.0090018331     3.575388  0.029896947 
number of iterations: 1507 
    6700    28.741943      200          105           95 1.0639093e-13 8.826367e-15          0.1 0.0090018503    3.6569391  0.029896918 
number of iterations: 1563 
    6800    28.935323      200          105           95 1.0780084e-13 8.8269003e-15          0.1 0.0090018748    3.7395713  0.029896877 
number of iterations: 1642 
    6900    29.109262      205          110           95 1.0922944e-13 8.8275217e-15          0.1 0.0090019107    3.8232989  0.029896817 
number of iterations: 1669 
    7000    29.286829      208          113           95 1.1067697e-13 8.8282301e-15          0.1  0.009001938    3.9081364  0.029896772 
number of iterations: 1612 
    7100    29.481412      210          115           95 1.1214368e-13 8.8290251e-15          0.1 0.0090019665    3.9940985  0.029896724 
number of iterations: 1638 
    7200    29.689274      212          117           95 1.1362983e-13 8.8299057e-15          0.1 0.0090019982    4.0812004  0.029896672 
number of iterations: 1668 
    7300    29.908804      216          121           95 1.1513568e-13 8.8308713e-15          0.1 0.0090020357    4.1694567  0.029896609 
number of iterations: 1538 
    7400    30.079671      216          121           95 1.1666148e-13 8.8319207e-15          0.1 0.0090020551    4.2588835  0.029896577 
number of iterations: 1715 
    7500    30.262943      219          124           95 1.182075e-13 8.8330533e-15          0.1 0.0090020906    4.3494961  0.029896518 
number of iterations: 1591 
    7600    30.451592      220          125           95 1.1977401e-13 8.8342683e-15          0.1 0.0090021183    4.4413104  0.029896472 
number of iterations: 1697 
    7700    30.690032      223          128           95 1.2136128e-13 8.8355651e-15          0.1 0.0090021536    4.5343422  0.029896413 
number of iterations: 1575 
    7800    30.873757      225          130           95 1.2296958e-13 8.8369427e-15          0.1  0.009002178    4.6286076  0.029896372 
number of iterations: 1543 
    7900    31.054808      225          130           95 1.245992e-13 8.8384005e-15          0.1 0.0090021992    4.7241232  0.029896337 
number of iterations: 1672 
    8000    31.242079      226          131           95 1.2625042e-13 8.8399378e-15          0.1 0.0090022314    4.8209056  0.029896283 
number of iterations: 1601 
    8100    31.486466      226          131           95 1.2792351e-13 8.8415537e-15          0.1  0.009002261    4.9189714  0.029896234 
number of iterations: 1635 
    8200    31.656909      228          133           95 1.2961878e-13 8.8432476e-15          0.1 0.0090022906    5.0183379  0.029896185 
number of iterations: 1605 
    8300    31.838482      228          133           95 1.3133651e-13 8.8450187e-15          0.1  0.009002321    5.1190222  0.029896134 
number of iterations: 1607 
    8400     32.03794      229          134           95 1.3307701e-13 8.8468663e-15          0.1 0.0090023489    5.2210418  0.029896088 
number of iterations: 1625 
    8500    32.244556      230          135           95 1.3484057e-13 8.8487897e-15          0.1 0.0090023801    5.3244142  0.029896036 
number of iterations: 1700 
    8600    32.430479      232          137           95 1.3662751e-13 8.8507881e-15          0.1 0.0090024205    5.4291583  0.029895968 
number of iterations: 1618 
    8700    32.631978      232          137           95 1.3843812e-13 8.8528609e-15          0.1 0.0090024526    5.5352915  0.029895915 
number of iterations: 1613 
    8800    32.840814      233          138           95 1.4027273e-13 8.8550073e-15          0.1 0.0090024819    5.6428325  0.029895866 
number of iterations: 1665 
    8900    33.030409      235          140           95 1.4213166e-13 8.8572265e-15          0.1 0.0090025152    5.7518002  0.029895811 
number of iterations: 1602 
    9000     33.21096      237          142           95 1.4401521e-13 8.8595179e-15          0.1 0.0090025433    5.8622133  0.029895764 
number of iterations: 1627 
    9100    33.406203      240          145           95 1.4592373e-13 8.8618812e-15          0.1 0.0090025756    5.9740908   0.02989571 
number of iterations: 1629 
    9200     33.72933      241          146           95 1.4785754e-13 8.8643154e-15          0.1 0.0090026097     6.087452  0.029895653 
number of iterations: 1639 
    9300    33.953562      243          148           95 1.4981698e-13 8.8668199e-15          0.1 0.0090026458    6.2023168  0.029895593 
number of iterations: 1740 
    9400    34.241767      243          148           95 1.5180238e-13 8.869394e-15          0.1 0.0090026857    6.3187053  0.029895527 
number of iterations: 1638 
    9500    34.434265      245          150           95 1.538141e-13 8.8720371e-15          0.1 0.0090027173    6.4366375  0.029895474 
number of iterations: 1715 
    9600    34.627826      247          152           95 1.5585247e-13 8.8747486e-15          0.1 0.0090027559    6.5561343   0.02989541 
number of iterations: 1650 
    9700    34.801455      249          154           95 1.5791786e-13 8.8775277e-15          0.1 0.0090027911    6.6772163  0.029895351 
number of iterations: 1682 
    9800    34.992718      250          155           95 1.6001062e-13 8.8803736e-15          0.1 0.0090028281    6.7999045   0.02989529 
number of iterations: 1634 
    9900    35.193809      251          156           95 1.6213111e-13 8.8832859e-15          0.1 0.0090028608    6.9242202  0.029895235 
number of iterations: 1723 
   10000    35.383594      251          156           95 1.642797e-13 8.8862639e-15          0.1 0.0090029045    7.0501849  0.029895162 
number of iterations: 1654 
   10100     35.58266      252          157           95 1.6645677e-13 8.8893071e-15          0.1 0.0090029389    7.1778209  0.029895105 
number of iterations: 1696 
   10200    35.775279      254          159           95 1.6866268e-13 8.8924148e-15          0.1 0.0090029803      7.30715  0.029895036 
number of iterations: 1749 
   10300    35.980478      260          165           95 1.7089784e-13 8.8955864e-15          0.1 0.0090030341    7.4381948  0.029894947 
number of iterations: 1629 
   10400    36.164952      262          167           95 1.7316261e-13 8.8988214e-15          0.1 0.0090030695     7.570978  0.029894888 
number of iterations: 1790 
   10500    36.371817      265          170           95 1.7545739e-13 8.9021192e-15          0.1 0.0090031079    7.7055227  0.029894824 
number of iterations: 1671 
   10600    36.565035      266          171           95 1.7778259e-13 8.9054791e-15          0.1 0.0090031491    7.8418519  0.029894755 
number of iterations: 1743 
   10700    36.773743      269          174           95 1.8013859e-13 8.9089005e-15          0.1 0.0090031935    7.9799897  0.029894681 
number of iterations: 1711 
   10800    36.960517      272          177           95 1.8252583e-13 8.9123829e-15          0.1 0.0090032384      8.11996  0.029894607 
number of iterations: 1668 
   10900    37.150715      274          179           95 1.8494469e-13 8.9159257e-15          0.1 0.0090032813    8.2617869  0.029894535 
number of iterations: 1703 
   11000    37.347477      275          180           95 1.8739561e-13 8.9195284e-15          0.1 0.0090033248    8.4054952  0.029894463 
number of iterations: 1695 
   11100    37.589506      280          185           95 1.8987902e-13 8.9231903e-15          0.1 0.0090033654      8.55111  0.029894395 
number of iterations: 1692 
   11200    37.768235      282          187           95 1.9239533e-13 8.9269111e-15          0.1 0.0090034112    8.6986563  0.029894319 
number of iterations: 1701 
   11300    37.958519      284          189           95 1.9494499e-13  8.93069e-15          0.1  0.009003454    8.8481599  0.029894247 
number of iterations: 1708 
   11400    38.143046      288          193           95 1.9752844e-13 8.9345263e-15          0.1 0.0090034998    8.9996472  0.029894171 
number of iterations: 1698 
   11500    38.345794      289          194           95 2.0014612e-13 8.9384197e-15          0.1  0.009003545    9.1531444  0.029894096 
number of iterations: 1734 
   11600    38.551905      291          196           95 2.0279849e-13 8.9423696e-15          0.1 0.0090035967    9.3086783   0.02989401 
number of iterations: 1706 
   11700    38.768654      295          200           95 2.0548602e-13 8.9463755e-15          0.1 0.0090036417    9.4662758  0.029893935 
number of iterations: 1715 
   11800    38.960528      297          202           95 2.0820916e-13 8.950437e-15          0.1 0.0090036839    9.6259642  0.029893865 
number of iterations: 1776 
   11900    39.161834      302          207           95 2.1096838e-13 8.9545534e-15          0.1 0.0090037334    9.7877708  0.029893782 
number of iterations: 1666 
   12000    39.345079      306          211           95 2.1376418e-13 8.9587243e-15          0.1 0.0090037753    9.9517238  0.029893712 
number of iterations: 1714 
   12100    39.540928      307          212           95 2.1659702e-13 8.9629491e-15          0.1 0.0090038254    10.117852  0.029893629 
number of iterations: 1701 
   12200    39.735817      311          216           95 2.194674e-13 8.9672273e-15          0.1 0.0090038655    10.286184  0.029893562 
number of iterations: 1754 
   12300     39.94308      315          220           95 2.2237583e-13 8.9715584e-15          0.1 0.0090039168    10.456748  0.029893477 
number of iterations: 1785 
   12400    40.128955      319          224           95 2.2532279e-13 8.9759419e-15          0.1 0.0090039678    10.629576  0.029893392 
number of iterations: 1716 
   12500    40.310531      324          229           95 2.2830881e-13 8.9803772e-15          0.1 0.0090040174    10.804697  0.029893309 
number of iterations: 1746 
   12600    40.521813      326          231           95 2.313344e-13 8.984864e-15          0.1 0.0090040735    10.982141  0.029893216 
number of iterations: 1742 
   12700    40.729568      329          234           95 2.3440009e-13 8.9894018e-15          0.1 0.0090041238    11.161939  0.029893132 
number of iterations: 1789 
   12800    40.931813      334          239           95 2.375064e-13 8.9939901e-15          0.1 0.0090041675    11.344122  0.029893059 
number of iterations: 1748 
   12900    41.124191      339          244           95 2.4065388e-13 8.9986284e-15          0.1 0.0090042229    11.528722  0.029892967 
number of iterations: 1795 
   13000    41.303436      343          248           95 2.4384307e-13 9.0033162e-15          0.1 0.0090042842    11.715771  0.029892865 
number of iterations: 1743 
   13100     41.52814      343          248           95 2.4707452e-13 9.0080532e-15          0.1 0.0090043431    11.905302  0.029892767 
number of iterations: 1783 
   13200    41.710342      345          250           95 2.5034879e-13 9.0128389e-15          0.1 0.0090044075    12.097346   0.02989266 
number of iterations: 1746 
   13300    41.887715      349          254           95 2.5366646e-13 9.0176729e-15          0.1 0.0090044612    12.291938   0.02989257 
number of iterations: 1740 
   13400    42.071184      352          257           95 2.570281e-13 9.0225545e-15          0.1 0.0090045181    12.489112  0.029892476 
number of iterations: 1795 
   13500    42.289364      357          262           95 2.6043428e-13 9.0274834e-15          0.1 0.0090045874    12.688901   0.02989236 
number of iterations: 1809 
   13600    42.478079      360          265           95 2.638856e-13 9.0324592e-15          0.1 0.0090046527    12.891341  0.029892251 
number of iterations: 1761 
   13700     42.67394      363          268           95 2.6738266e-13 9.0374814e-15          0.1 0.0090047183    13.096466  0.029892142 
number of iterations: 1790 
   13800    42.866184      366          271           95 2.7092606e-13 9.0425497e-15          0.1 0.0090047783    13.304312  0.029892042 
number of iterations: 1764 
   13900    43.066064      366          271           95 2.7451642e-13 9.0476635e-15          0.1 0.0090048416    13.514915  0.029891937 
number of iterations: 1761 
   14000    43.259827      369          274           95 2.7815436e-13 9.0528226e-15          0.1 0.0090049058    13.728312   0.02989183 
number of iterations: 1809 
   14100    43.477548      373          278           95 2.8184051e-13 9.0580264e-15          0.1 0.0090049646     13.94454  0.029891732 
number of iterations: 1823 
   14200    43.738532      380          285           95 2.8557551e-13 9.0632746e-15          0.1 0.0090050445    14.163636  0.029891599 
number of iterations: 1782 
   14300    43.928421      383          288           95 2.8936001e-13 9.0685667e-15          0.1 0.0090051102    14.385638   0.02989149 
number of iterations: 1781 
   14400     44.12468      386          290           96 2.9319466e-13 9.0739024e-15          0.1 0.0090051779    14.610586  0.029891377 
number of iterations: 1787 
   14500    44.321785      388          292           96 2.9708013e-13 9.0792812e-15          0.1 0.0090052465    14.838518  0.029891263 
number of iterations: 1858 
   14600    44.520595      390          294           96 3.0101708e-13 9.0847028e-15          0.1 0.0090053207    15.069474  0.029891139 
number of iterations: 1801 
   14700    44.710515      394          298           96 3.0500621e-13 9.0901668e-15          0.1 0.0090053882    15.303493  0.029891027 
number of iterations: 1763 
   14800    44.908025      396          300           96 3.0904821e-13 9.0956727e-15          0.1 0.0090054537    15.540616  0.029890918 
number of iterations: 1792 
   14900    45.110043      398          302           96 3.1314377e-13 9.1012202e-15          0.1  0.009005526    15.780885  0.029890797 
number of iterations: 1787 
   15000    45.322835      399          303           96 3.172936e-13 9.106809e-15          0.1 0.0090056028    16.024342  0.029890669 
number of iterations: 1810 
   15100    45.546054      408          312           96 3.2149843e-13 9.1124385e-15          0.1 0.0090056782    16.271027  0.029890544 
number of iterations: 1813 
   15200    45.732727      412          316           96 3.2575898e-13 9.1181086e-15          0.1 0.0090057547    16.520985  0.029890416 
number of iterations: 1816 
   15300    45.929767      419          323           96  3.30076e-13 9.1238187e-15          0.1 0.0090058349     16.77426  0.029890283 
number of iterations: 1845 
   15400     46.13307      424          328           96 3.3445022e-13 9.1295686e-15          0.1 0.0090059212    17.030894  0.029890139 
number of iterations: 1781 
   15500    46.332322      430          334           96 3.3888241e-13 9.1353578e-15          0.1 0.0090059831    17.290932  0.029890036 
number of iterations: 1800 
   15600    46.528524      433          337           96 3.4337333e-13 9.1411861e-15          0.1  0.009006058    17.554419  0.029889911 
number of iterations: 1828 
   15700    46.718237      438          342           96 3.4792378e-13 9.1470531e-15          0.1 0.0090061415    17.821401  0.029889772 
number of iterations: 1820 
   15800     46.92665      440          344           96 3.5253452e-13 9.1529585e-15          0.1 0.0090062181    18.091924  0.029889645 
number of iterations: 1827 
   15900    47.117526      442          346           96 3.5720636e-13 9.158902e-15          0.1 0.0090062976    18.366035  0.029889512 
number of iterations: 1833 
   16000    47.320281      448          352           96 3.6194012e-13 9.1648831e-15          0.1 0.0090063814    18.643782  0.029889373 
number of iterations: 1817 
   16100    47.536363      456          360           96 3.6673661e-13 9.1709016e-15          0.1 0.0090064597    18.925214  0.029889242 
number of iterations: 1834 
   16200    47.723926      462          366           96 3.7159666e-13 9.1769571e-15          0.1 0.0090065384    19.210378  0.029889111 
number of iterations: 1859 
   16300    47.928883      467          371           96 3.7652112e-13 9.1830493e-15          0.1 0.0090066226    19.499325  0.029888971 
number of iterations: 1854 
   16400    48.137998      473          377           96 3.8151084e-13 9.1891778e-15          0.1 0.0090067058    19.792104  0.029888833 
number of iterations: 1835 
   16500    48.335764      479          383           96 3.8656669e-13 9.1953424e-15          0.1 0.0090067833    20.088767  0.029888704 
number of iterations: 1850 
   16600     48.52441      486          390           96 3.9168953e-13 9.2015426e-15          0.1   0.00900686    20.389364  0.029888576 
number of iterations: 1850 
   16700     48.75724      488          392           96 3.9688026e-13 9.2077784e-15          0.1 0.0090069567    20.693948  0.029888415 
number of iterations: 1885 
   16800    48.957062      495          399           96 4.0213978e-13 9.2140492e-15          0.1 0.0090070522    21.002571  0.029888256 
number of iterations: 1896 
   16900    49.155876      506          410           96  4.07469e-13 9.2203548e-15          0.1 0.0090071503    21.315288  0.029888093 
number of iterations: 1896 
   17000    49.347814      513          417           96 4.1286884e-13 9.2266949e-15          0.1 0.0090072535    21.632152  0.029887921 
number of iterations: 1816 
   17100    49.566301      514          418           96 4.1834025e-13 9.2330693e-15          0.1 0.0090073371    21.953218  0.029887781 
number of iterations: 1884 
   17200     49.75622      517          421           96 4.2388416e-13 9.2394775e-15          0.1 0.0090074384    22.278542  0.029887613 
number of iterations: 1903 
   17300    49.946352      522          426           96 4.2950154e-13 9.2459194e-15          0.1 0.0090075352    22.608181  0.029887452 
number of iterations: 1870 
   17400    50.156583      530          434           96 4.3519336e-13 9.2523946e-15          0.1 0.0090076282    22.942193  0.029887297 
number of iterations: 1856 
   17500    50.371892      536          440           96 4.4096061e-13 9.2589029e-15          0.1 0.0090077342    23.280634   0.02988712 
number of iterations: 1869 
   17600    50.657953      540          444           96 4.4680428e-13 9.2654439e-15          0.1 0.0090078185    23.623563   0.02988698 
number of iterations: 1894 
   17700    50.879398      547          451           96 4.527254e-13 9.2720174e-15          0.1 0.0090079268    23.971041    0.0298868 
number of iterations: 1889 
   17800     51.07563      550          454           96 4.5872499e-13 9.2786231e-15          0.1 0.0090080369    24.323127  0.029886616 
number of iterations: 1868 
   17900    51.264847      559          463           96 4.6480408e-13 9.2852608e-15          0.1  0.009008132    24.679883  0.029886458 
number of iterations: 1899 
   18000    51.475814      562          466           96 4.7096373e-13 9.2919301e-15          0.1 0.0090082341     25.04137  0.029886288 
number of iterations: 1872 
   18100    51.715739      569          473           96 4.7720501e-13 9.2986308e-15          0.1 0.0090083323    25.407651  0.029886124 
number of iterations: 1888 
   18200    51.921976      578          481           97  4.83529e-13 9.3053626e-15          0.1 0.0090084394     25.77879  0.029885946 
number of iterations: 1880 
   18300    52.174949      584          487           97 4.899368e-13 9.3121253e-15          0.1 0.0090085409    26.154853  0.029885777 
number of iterations: 1960 
   18400     52.36799      591          494           97 4.9642952e-13 9.3189187e-15          0.1 0.0090086664    26.535903  0.029885568 
number of iterations: 1912 
   18500    52.562866      601          504           97 5.0300827e-13 9.3257425e-15          0.1 0.0090087652    26.922008  0.029885403 
number of iterations: 1904 
   18600      52.7591      604          507           97 5.0967421e-13 9.3325964e-15          0.1 0.0090088796    27.313232  0.029885213 
number of iterations: 1865 
   18700    52.987504      607          510           97 5.1642849e-13 9.3394801e-15          0.1  0.009008991    27.709645  0.029885028 
number of iterations: 1899 
   18800    53.187701      610          513           97 5.2327227e-13 9.3463935e-15          0.1   0.00900911    28.111314  0.029884829 
number of iterations: 1936 
   18900    53.385738      623          526           97 5.3020675e-13 9.3533362e-15          0.1 0.0090092315    28.518311  0.029884627 
number of iterations: 1909 
   19000    53.607374      625          528           97 5.3723313e-13 9.3603081e-15          0.1 0.0090093575    28.930705  0.029884417 
number of iterations: 1916 
   19100    53.886481      633          536           97 5.4435262e-13 9.3673088e-15          0.1 0.0090094771    29.348567  0.029884218 
number of iterations: 1966 
   19200    54.160831      643          546           97 5.5156645e-13 9.3743383e-15          0.1 0.0090096169     29.77197  0.029883985 
number of iterations: 1990 
   19300    54.367835      648          551           97 5.5887589e-13 9.3813962e-15          0.1 0.0090097552    30.200988  0.029883755 
number of iterations: 1927 
   19400    54.560868      653          556           97 5.6628219e-13 9.3884823e-15          0.1 0.0090098812    30.635695  0.029883545 
number of iterations: 1926 
   19500    54.757032      658          560           98 5.7378664e-13 9.3955964e-15          0.1 0.0090099971    31.076168  0.029883352 
number of iterations: 1928 
   19600    54.996833      671          573           98 5.8139054e-13 9.4027382e-15          0.1 0.0090101297    31.522482  0.029883131 
number of iterations: 1940 
   19700    55.200134      677          579           98 5.890952e-13 9.4099077e-15          0.1 0.0090102671    31.974714  0.029882903 
number of iterations: 1965 
   19800    55.416118      682          584           98 5.9690197e-13 9.4171045e-15          0.1 0.0090104138    32.432943  0.029882658 
number of iterations: 1912 
   19900    55.645089      687          589           98 6.048122e-13 9.4243284e-15          0.1 0.0090105452    32.897247   0.02988244 
number of iterations: 1952 
   20000    55.885325      694          596           98 6.1282725e-13 9.4315791e-15          0.1  0.009010688     33.36771  0.029882202 
number of iterations: 1956 
   20100    56.087013      709          611           98 6.2094851e-13 9.4388566e-15          0.1 0.0090108324     33.84441  0.029881961 
number of iterations: 1947 
   20200    56.288521      722          624           98 6.2917741e-13 9.4461606e-15          0.1 0.0090109617    34.327432  0.029881746 
number of iterations: 1892 
   20300    56.511785      732          634           98 6.3751535e-13 9.4534908e-15          0.1 0.0090110812    34.816859  0.029881547 
number of iterations: 1926 
   20400    56.698485      737          639           98 6.4596378e-13 9.4608471e-15          0.1 0.0090112144    35.312776  0.029881325 
number of iterations: 1970 
   20500    56.924354      741          643           98 6.5452418e-13 9.4682293e-15          0.1 0.0090113762    35.815269  0.029881056 
number of iterations: 1925 
   20600    57.155895      748          650           98 6.6319801e-13 9.4756371e-15          0.1 0.0090115168    36.324424  0.029880822 
number of iterations: 2001 
   20700    57.410767      763          665           98 6.719868e-13 9.4830704e-15          0.1 0.0090116859    36.840329   0.02988054 
number of iterations: 1979 
   20800    57.637481      768          670           98 6.8089205e-13 9.490529e-15          0.1 0.0090118428    37.363075  0.029880279 
number of iterations: 1931 
   20900    57.849089      779          681           98 6.8991531e-13 9.4980127e-15          0.1 0.0090119864    37.892752   0.02988004 
number of iterations: 1971 
   21000    58.090788      786          688           98 6.9905816e-13 9.5055212e-15          0.1 0.0090121562    38.429452  0.029879757 
number of iterations: 1999 
   21100    58.321783      794          696           98 7.0832216e-13 9.5130545e-15          0.1 0.0090123161    38.973269  0.029879491 
number of iterations: 1970 
   21200    58.509601      802          704           98 7.1770893e-13 9.5206124e-15          0.1  0.009012479    39.524296   0.02987922 
number of iterations: 1965 
   21300    58.751183      816          718           98 7.2722009e-13 9.5281946e-15          0.1 0.0090126349     40.08263   0.02987896 
number of iterations: 1986 
   21400    58.954673      826          728           98 7.368573e-13 9.535801e-15          0.1 0.0090128067    40.648367  0.029878674 
number of iterations: 2009 
   21500    59.160557      839          741           98 7.4662222e-13 9.5434313e-15          0.1 0.0090130022    41.221605  0.029878348 
number of iterations: 1985 
   21600    59.362379      849          751           98 7.5651654e-13 9.5510855e-15          0.1 0.0090131581    41.802444  0.029878089 
number of iterations: 2000 
   21700    59.627807      858          760           98 7.6654199e-13 9.5587633e-15          0.1 0.0090133373    42.390984   0.02987779 
number of iterations: 1992 
   21800    59.829726      873          774           99 7.7670029e-13 9.5664646e-15          0.1 0.0090135163    42.987327  0.029877492 
number of iterations: 1998 
   21900    60.044727      879          780           99 7.8699321e-13 9.5741892e-15          0.1 0.0090136974    43.591578  0.029877191 
number of iterations: 2008 
   22000    60.311285      894          794          100 7.9742253e-13 9.5819369e-15          0.1 0.0090138838    44.203839  0.029876881 
number of iterations: 1996 
   22100    60.541702      899          798          101 8.0799006e-13 9.5897076e-15          0.1 0.0090140613    44.824219  0.029876585 
number of iterations: 2022 
   22200    60.775352      907          806          101 8.1869763e-13 9.597501e-15          0.1  0.009014232    45.452824  0.029876301 
number of iterations: 2033 
   22300    60.971636      914          813          101 8.295471e-13 9.6053171e-15          0.1 0.0090144278    46.089763  0.029875975 
number of iterations: 2004 
   22400    61.170273      922          821          101 8.4054035e-13 9.6131557e-15          0.1 0.0090146152    46.735146  0.029875663 
number of iterations: 2011 
   22500      61.3709      931          830          101 8.5167928e-13 9.6210166e-15          0.1 0.0090148058    47.389086  0.029875345 
number of iterations: 2008 
   22600    61.588648      939          838          101 8.6296582e-13 9.6288997e-15          0.1 0.0090149973    48.051696  0.029875026 
number of iterations: 2023 
   22700    61.806753      946          845          101 8.7440193e-13 9.6368048e-15          0.1 0.0090152042    48.723092  0.029874682 
number of iterations: 2014 
   22800    62.028064      958          857          101 8.8598959e-13 9.6447318e-15          0.1 0.0090154083     49.40339  0.029874342 
number of iterations: 2048 
   22900    62.270149      974          873          101 8.9773081e-13 9.6526804e-15          0.1 0.0090156265    50.092706  0.029873979 
number of iterations: 2028 
   23000    62.478593      986          885          101 9.0962763e-13 9.6606506e-15          0.1 0.0090158282    50.791162  0.029873643 
number of iterations: 2045 
   23100    62.678629     1001          900          101 9.216821e-13 9.6686423e-15          0.1 0.0090160462    51.498878   0.02987328 
number of iterations: 2039 
   23200    62.890527     1015          914          101 9.3389632e-13 9.6766552e-15          0.1 0.0090162484    52.215977  0.029872943 
number of iterations: 2039 
   23300    63.123615     1021          920          101 9.462724e-13 9.6846892e-15          0.1 0.0090164534    52.942584  0.029872602 
number of iterations: 2009 
   23400    63.343686     1035          934          101 9.5881249e-13 9.6927443e-15          0.1 0.0090166626    53.678824  0.029872253 
number of iterations: 2038 
   23500    63.552013     1050          949          101 9.7151876e-13 9.7008202e-15          0.1 0.0090168795    54.424824  0.029871892 
number of iterations: 2031 
   23600    63.814006     1065          964          101 9.8439341e-13 9.7089168e-15          0.1 0.0090171046    55.180716  0.029871518 
number of iterations: 2004 
   23700    64.027157     1082          981          101 9.9743868e-13 9.717034e-15          0.1 0.0090173034    55.946629  0.029871186 
number of iterations: 2057 
   23800    64.263611     1102         1001          101 1.0106568e-12 9.7251716e-15          0.1 0.0090175448    56.722696  0.029870785 
number of iterations: 2063 
   23900    64.496763     1114         1013          101 1.0240501e-12 9.7333295e-15          0.1 0.0090177776    57.509053  0.029870397 
number of iterations: 2062 
   24000    64.749753     1132         1031          101 1.0376209e-12 9.7415077e-15          0.1 0.0090180076    58.305834  0.029870014 
number of iterations: 2052 
   24100    64.951341     1150         1049          101 1.0513716e-12 9.7497059e-15          0.1 0.0090182538    59.113178  0.029869604 
number of iterations: 2048 
   24200    65.162583     1159         1057          102 1.0653044e-12 9.757924e-15          0.1 0.0090184958    59.931227  0.029869201 
number of iterations: 2058 
   24300    65.385247     1173         1071          102 1.0794219e-12 9.7661619e-15          0.1 0.0090187437    60.760122  0.029868788 
number of iterations: 2086 
   24400     65.61185     1180         1078          102 1.0937265e-12 9.7744195e-15          0.1 0.0090189756    61.600007  0.029868402 
number of iterations: 2057 
   24500    65.837225     1196         1094          102 1.1082207e-12 9.7826967e-15          0.1 0.0090192239    62.451026  0.029867989 
number of iterations: 2028 
   24600    66.050659     1210         1108          102 1.1229069e-12 9.7909933e-15          0.1 0.0090194682    63.313327  0.029867582 
number of iterations: 2067 
   24700    66.255181     1225         1123          102 1.1377877e-12 9.7993092e-15          0.1 0.0090197148     64.18706  0.029867171 
number of iterations: 2098 
   24800    66.550537     1242         1139          103 1.1528658e-12 9.8076442e-15          0.1 0.0090199922    65.072375  0.029866709 
number of iterations: 2086 
   24900    66.769801     1255         1152          103 1.1681436e-12 9.8159984e-15          0.1 0.0090202684    65.969429  0.029866249 
number of iterations: 2052 
   25000    66.987024     1275         1172          103 1.183624e-12 9.8243715e-15          0.1 0.0090205184    66.878375  0.029865833 
number of iterations: 2071 
   25100    67.248563     1290         1186          104 1.1993094e-12 9.8327634e-15          0.1  0.009020789     67.79937  0.029865383 
number of iterations: 2096 
   25200    67.499511     1305         1201          104 1.2152028e-12 9.8411741e-15          0.1 0.0090210581    68.732575  0.029864934 
number of iterations: 2102 
   25300    67.708132     1321         1216          105 1.2313067e-12 9.8496034e-15          0.1 0.0090213341     69.67815  0.029864475 
number of iterations: 2089 
   25400    67.923846     1334         1229          105 1.2476241e-12 9.8580513e-15          0.1 0.0090216117    70.636261  0.029864013 
number of iterations: 2093 
   25500    68.156363     1346         1241          105 1.2641576e-12 9.8665175e-15          0.1 0.0090218979    71.607073  0.029863536 
number of iterations: 2110 
   25600    68.374143     1369         1262          107 1.2809103e-12 9.8750021e-15          0.1 0.0090222008    72.590756  0.029863032 
number of iterations: 2108 
   25700    68.599196     1381         1273          108 1.297885e-12 9.8835049e-15          0.1 0.0090225022    73.587479   0.02986253 
number of iterations: 2109 
   25800     68.83205     1401         1290          111 1.3150847e-12 9.8920258e-15          0.1 0.0090227984    74.597415  0.029862037 
number of iterations: 2089 
   25900    69.065267     1417         1306          111 1.3325122e-12 9.9005646e-15          0.1 0.0090231043    75.620738  0.029861527 
number of iterations: 2146 
   26000    69.285662     1432         1321          111 1.3501708e-12 9.9091214e-15          0.1 0.0090233771    76.657626  0.029861073 
number of iterations: 2122 
   26100    69.514253     1449         1338          111 1.3680633e-12 9.9176959e-15          0.1 0.0090236983     77.70826  0.029860538 
number of iterations: 2101 
   26200    69.737609     1472         1361          111 1.3861929e-12 9.9262881e-15          0.1 0.0090240165    78.772821  0.029860008 
number of iterations: 2094 
   26300    69.965531     1493         1382          111 1.4045628e-12 9.9348979e-15          0.1 0.0090243239    79.851494  0.029859497 
number of iterations: 2127 
   26400    70.188826     1511         1400          111 1.4231762e-12 9.9435253e-15          0.1 0.0090246396    80.944468  0.029858971 
number of iterations: 2124 
   26500    70.440082     1531         1420          111 1.4420361e-12  9.95217e-15          0.1  0.009024961    82.051929  0.029858436 
number of iterations: 2131 
   26600     70.72302     1548         1437          111 1.4611461e-12 9.960832e-15          0.1 0.0090252917     83.17407  0.029857885 
number of iterations: 2137 
   26700    70.963029     1568         1457          111 1.4805092e-12 9.9695112e-15          0.1 0.0090256235    84.311086  0.029857333 
number of iterations: 2103 
   26800    71.197046     1588         1477          111 1.500129e-12 9.9782076e-15          0.1 0.0090259242    85.463173  0.029856832 
number of iterations: 2160 
   26900    71.443267     1604         1493          111 1.5188693e-12 9.986921e-15          0.1 0.0090262656    86.629662  0.029856264 
number of iterations: 2107 
   27000    71.660947     1619         1508          111 1.5389974e-12 9.9956513e-15          0.1 0.0090265756    87.811614  0.029855747 
number of iterations: 2140 
   27100    71.897033     1637         1526          111 1.5582481e-12 1.0004398e-14          0.1 0.0090268898    89.008356  0.029855224 
number of iterations: 2142 
   27200    72.129454     1664         1552          112 1.578898e-12 1.0013162e-14          0.1 0.0090272509    90.220962  0.029854623 
number of iterations: 2173 
   27300    72.377396     1684         1572          112 1.5998216e-12 1.0021943e-14          0.1 0.0090276237    91.449642  0.029854002 
number of iterations: 2158 
   27400    72.624155     1705         1593          112 1.6210225e-12 1.003074e-14          0.1 0.0090280129    92.694609  0.029853354 
number of iterations: 2164 
   27500     72.89116     1726         1614          112 1.6425043e-12 1.0039554e-14          0.1 0.0090283758    93.956079   0.02985275 
number of iterations: 2158 
   27600    73.137952     1753         1641          112 1.6642708e-12 1.0048384e-14          0.1 0.0090287525    95.234269  0.029852122 
number of iterations: 2150 
   27700    73.369126     1783         1671          112 1.6863258e-12 1.0057231e-14          0.1 0.0090291351    96.529404  0.029851485 
number of iterations: 2133 
   27800    73.598092     1797         1684          113 1.708673e-12 1.0066093e-14          0.1  0.009029494    97.841708  0.029850888 
number of iterations: 2168 
   27900    73.897202     1818         1705          113 1.7313164e-12 1.0074972e-14          0.1 0.0090298989    99.171405  0.029850214 
number of iterations: 2182 
   28000    74.133617     1842         1729          113 1.7542598e-12 1.0083867e-14          0.1 0.0090302592    100.51873  0.029849614 
number of iterations: 2145 
   28100    74.374591     1863         1750          113 1.7775072e-12 1.0092778e-14          0.1 0.0090306364    101.88392  0.029848986 
number of iterations: 2172 
   28200    74.628814     1886         1773          113 1.8010628e-12 1.0101705e-14          0.1 0.0090310272     103.2672  0.029848335 
number of iterations: 2184 
   28300    74.871169     1910         1797          113 1.8249305e-12 1.0110648e-14          0.1 0.0090314507    104.66882   0.02984763 
number of iterations: 2183 
   28400    75.115932     1932         1819          113 1.8491144e-12 1.0119607e-14          0.1 0.0090318866    106.08902  0.029846904 
number of iterations: 2212 
   28500    75.342103     1956         1843          113 1.8722361e-12 1.0128581e-14          0.1 0.0090323089    107.52698  0.029846201 
number of iterations: 2196 
   28600    75.568724     1980         1867          113 1.897047e-12 1.0137571e-14          0.1 0.0090327466      108.984  0.029845472 
number of iterations: 2208 
   28700    75.816166     2013         1900          113 1.9221866e-12 1.0146577e-14          0.1 0.0090331657    110.46034  0.029844774 
number of iterations: 2209 
   28800    76.046625     2046         1933          113 1.9476594e-12 1.0155598e-14          0.1 0.0090336217    111.95625  0.029844015 
number of iterations: 2205 
   28900     76.27902     2071         1958          113 1.9734698e-12 1.0164635e-14          0.1  0.009034025    113.47199  0.029843343 
number of iterations: 2210 
   29000    76.514143     2094         1981          113 1.9996222e-12 1.0173687e-14          0.1 0.0090344936    115.00782  0.029842563 
number of iterations: 2168 
   29100    76.740405     2120         2007          113 2.0261211e-12 1.0182754e-14          0.1 0.0090349046      116.564  0.029841879 
number of iterations: 2222 
   29200     76.98961     2148         2035          113 2.0529712e-12 1.0191837e-14          0.1 0.0090353526    118.14082  0.029841133 
number of iterations: 2189 
   29300    77.263321     2168         2055          113 2.0801772e-12 1.0200935e-14          0.1 0.0090357894    119.73853  0.029840405 
number of iterations: 2215 
   29400    77.503577     2191         2078          113 2.1077436e-12 1.0210048e-14          0.1 0.0090362668    121.35742   0.02983961 
number of iterations: 2188 
   29500    77.765474     2220         2107          113 2.1356754e-12 1.0219176e-14          0.1 0.0090367249    122.99778  0.029838848 
number of iterations: 2218 
   29600    77.993295     2245         2132          113 2.1627082e-12 1.0228319e-14          0.1 0.0090371733     124.6589  0.029838101 
number of iterations: 2198 
   29700    78.227522     2273         2159          114 2.1913683e-12 1.0237477e-14          0.1 0.0090376359    126.34204  0.029837331 
number of iterations: 2240 
   29800    78.477976     2312         2198          114 2.2204082e-12 1.0246649e-14          0.1 0.0090381602    128.04749  0.029836458 
number of iterations: 2231 
   29900    78.725103     2343         2229          114 2.249833e-12 1.0255837e-14          0.1 0.0090386647    129.77555  0.029835618 
number of iterations: 2253 
   30000    79.033234     2371         2257          114 2.2796477e-12 1.0265039e-14          0.1 0.0090391955    131.52652  0.029834734 
number of iterations: 2201 
   30100    79.300535     2401         2287          114 2.3098575e-12 1.0274257e-14          0.1 0.0090396769     133.3007  0.029833932 
number of iterations: 2199 
   30200    79.530295     2430         2316          114 2.3404676e-12 1.0283488e-14          0.1 0.0090401833    135.09839  0.029833089 
number of iterations: 2227 
   30300    79.788138     2462         2348          114 2.3714834e-12 1.0292735e-14          0.1 0.0090407531    136.91991   0.02983214 
number of iterations: 2268 
   30400    80.038513     2494         2380          114 2.4029102e-12 1.0301995e-14          0.1 0.0090412998    138.76558   0.02983123 
number of iterations: 2227 
   30500    80.270141     2520         2406          114 2.4338251e-12 1.0311271e-14          0.1 0.0090418309    140.63499  0.029830346 
number of iterations: 2244 
   30600    80.532839     2545         2431          114 2.466078e-12 1.032056e-14          0.1 0.0090424077    142.52919  0.029829385 
number of iterations: 2248 
   30700    80.773776     2577         2463          114 2.4987583e-12 1.0329865e-14          0.1 0.0090429878    144.44849  0.029828419 
number of iterations: 2231 
   30800    81.049099     2607         2493          114 2.5318717e-12 1.0339183e-14          0.1 0.0090435126    146.39323  0.029827545 
number of iterations: 2236 
   30900    81.315725     2646         2532          114 2.5643651e-12 1.0348516e-14          0.1 0.0090440781    148.36294  0.029826604 
number of iterations: 2226 
   31000    81.560257     2674         2560          114 2.5983479e-12 1.0357863e-14          0.1 0.0090446271    150.35875   0.02982569 
number of iterations: 2259 
   31100    81.809455     2703         2589          114 2.6318864e-12 1.0367224e-14          0.1 0.0090452166    152.38034  0.029824708 
number of iterations: 2273 
   31200    82.077135     2736         2622          114 2.666764e-12 1.0376599e-14          0.1 0.0090458369    154.42872  0.029823675 
number of iterations: 2232 
   31300    82.336601     2769         2653          116 2.7021038e-12 1.0385988e-14          0.1 0.0090464101    156.50426  0.029822721 
number of iterations: 2256 
   31400    82.585668     2798         2682          116 2.7379118e-12 1.0395392e-14          0.1 0.0090469679     158.6073  0.029821792 
number of iterations: 2239 
   31500     82.81769     2833         2717          116 2.7729219e-12 1.0404809e-14          0.1 0.0090475384    160.73725  0.029820842 
number of iterations: 2257 
   31600    83.074398     2872         2756          116 2.8096685e-12 1.041424e-14          0.1 0.0090481576    162.89543  0.029819811 
number of iterations: 2290 
   31700    83.335017     2900         2784          116 2.8469019e-12 1.0423685e-14          0.1 0.0090488168    165.08221  0.029818713 
number of iterations: 2269 
   31800    83.604972     2932         2816          116 2.8846288e-12 1.0433144e-14          0.1 0.0090494504    167.29798  0.029817658 
number of iterations: 2265 
   31900    83.912021     2976         2860          116 2.9217796e-12 1.0442617e-14          0.1 0.0090500863    169.54229    0.0298166 
number of iterations: 2266 
   32000    84.143874     3018         2902          116 2.9604988e-12 1.0452103e-14          0.1  0.009050733    171.81636  0.029815523 
number of iterations: 2258 
   32100    84.384728     3052         2935          117 2.9989003e-12 1.0461603e-14          0.1 0.0090513401    174.11994  0.029814512 
number of iterations: 2283 
   32200    84.642359     3079         2962          117 3.0386414e-12 1.0471117e-14          0.1 0.0090519848    176.45404  0.029813438 
number of iterations: 2295 
   32300    84.888938     3122         3005          117 3.0777654e-12 1.0480644e-14          0.1 0.0090526641    178.81821  0.029812307 
number of iterations: 2288 
   32400    85.145104     3161         3044          117 3.1185517e-12 1.0490185e-14          0.1 0.0090533692    181.21371  0.029811133 
number of iterations: 2285 
   32500    85.418154     3210         3093          117 3.1586319e-12 1.0499739e-14          0.1 0.0090540406       183.64  0.029810015 
number of iterations: 2299 
   32600    85.663066     3255         3138          117 3.2004897e-12 1.0509307e-14          0.1 0.0090547383    186.09847  0.029808853 
number of iterations: 2277 
   32700    85.926503     3305         3188          117 3.2414114e-12 1.0518889e-14          0.1 0.0090553758    188.58838  0.029807792 
number of iterations: 2278 
   32800    86.163724     3357         3240          117 3.2843662e-12 1.0528484e-14          0.1 0.0090560708     191.1113  0.029806635 
number of iterations: 2281 
   32900    86.408891     3397         3280          117 3.3268444e-12 1.0538092e-14          0.1 0.0090567849    193.66685  0.029805446 
number of iterations: 2258 
   33000     86.65485     3444         3327          117 3.3679533e-12 1.0547713e-14          0.1 0.0090574409      196.254  0.029804353 
number of iterations: 2269 
   33100    86.918109     3486         3369          117 3.4116705e-12 1.0557348e-14          0.1 0.0090581244    198.87474  0.029803215 
number of iterations: 2322 
   33200    87.175051     3538         3421          117 3.4568815e-12 1.0566996e-14          0.1 0.0090589252    201.53021  0.029801882 
number of iterations: 2326 
   33300    87.455466     3578         3460          118 3.5026916e-12 1.0576658e-14          0.1 0.0090596844    204.22087  0.029800618 
number of iterations: 2327 
   33400    87.717797     3617         3499          118 3.5491088e-12 1.0586332e-14          0.1  0.009060436    206.94719  0.029799366 
number of iterations: 2339 
   33500    87.978482     3668         3550          118 3.5961411e-12 1.059602e-14          0.1 0.0090612369    209.70965  0.029798033 
number of iterations: 2304 
   33600    88.241626     3717         3599          118 3.6429618e-12 1.0605721e-14          0.1 0.0090620136    212.50808  0.029796739 
number of iterations: 2313 
   33700    88.508314     3775         3657          118 3.6912378e-12 1.0615435e-14          0.1 0.0090627914    215.34361  0.029795444 
number of iterations: 2318 
   33800    88.779257     3827         3709          118 3.7401535e-12 1.0625162e-14          0.1 0.0090636141    218.21673  0.029794074 
number of iterations: 2334 
   33900    89.031532     3868         3750          118 3.7897174e-12 1.0634902e-14          0.1 0.0090644664    221.12792  0.029792655 
number of iterations: 2305 
   34000    89.326026     3924         3806          118 3.8373091e-12 1.0644655e-14          0.1 0.0090652656    224.07568  0.029791325 
number of iterations: 2313 
   34100    89.571788     3963         3845          118 3.8862016e-12 1.065442e-14          0.1 0.0090660903    227.06102  0.029789951 
number of iterations: 2347 
   34200    89.818837     4009         3891          118 3.9377009e-12 1.0664199e-14          0.1 0.0090669495    230.08592  0.029788521 
number of iterations: 2325 
   34300    90.084519     4072         3954          118 3.9898826e-12 1.0673991e-14          0.1  0.009067812    233.15092  0.029787084 
number of iterations: 2345 
   34400    90.353051     4126         4008          118 4.0417077e-12 1.0683796e-14          0.1 0.0090686614    236.25575   0.02978567 
number of iterations: 2344 
   34500    90.653032     4180         4061          119 4.0938943e-12 1.0693613e-14          0.1 0.0090695188    239.40067  0.029784242 
number of iterations: 2319 
   34600    90.915246     4227         4108          119 4.1443958e-12 1.0703444e-14          0.1 0.0090703532    242.58441  0.029782853 
number of iterations: 2339 
   34700    91.191728     4263         4144          119 4.1965325e-12 1.0713287e-14          0.1 0.0090712557    245.80822   0.02978135 
number of iterations: 2352 
   34800    91.518767     4312         4193          119 4.2521442e-12 1.0723143e-14          0.1 0.0090721711    249.07477  0.029779826 
number of iterations: 2335 
   34900    91.799203     4371         4252          119 4.3084928e-12 1.0733011e-14          0.1 0.0090730768     252.3846  0.029778318 
number of iterations: 2365 
   35000    92.070502     4415         4296          119 4.3646859e-12 1.0742893e-14          0.1 0.0090739575    255.73762  0.029776852 
Loop time of 92.0705 on 32 procs for 35000 steps with 4415 atoms

Performance: 328443798.767 tau/day, 380.143 timesteps/s
92.2% CPU use with 32 MPI tasks x no OpenMP threads

MPI task timing breakdown:
Section |  min time  |  avg time  |  max time  |%varavg| %total
---------------------------------------------------------------
Pair    | 0.0067616  | 0.06436    | 0.223      |  18.2 |  0.07
Neigh   | 0.0038379  | 0.019095   | 0.052954   |   8.1 |  0.02
Comm    | 0.036411   | 0.16063    | 0.26394    |  14.7 |  0.17
Output  | 21.833     | 21.834     | 21.842     |   0.0 | 23.71
Modify  | 69.444     | 69.483     | 69.556     |   0.3 | 75.47
Other   |            | 0.5094     |            |       |  0.55

Nlocal:    137.969 ave 363 max 6 min
Histogram: 4 5 6 2 5 3 5 1 0 1
Nghost:    83.2812 ave 204 max 5 min
Histogram: 2 6 7 5 2 3 2 1 3 1
Neighs:    491.812 ave 1502 max 4 min
Histogram: 5 8 3 6 1 6 2 0 0 1

Total # of neighbors = 15738
Ave neighs/atom = 3.56467
Neighbor list builds = 692
Dangerous builds = 0
Total wall time: 0:01:32
