 NUFEB Simulation

     100 atoms 
     2 atom types 
     4 nutrients 

  0.0e-4   1.00e-04  xlo xhi 
  0.0e-4   1.00e-04  ylo yhi 
  0.0e-4   1.00e-05  zlo zhi 

 Atoms 

     1 1 1.88e-06  370 8.22e-05 5.77e-05 3.85e-06 1.88e-06 
     2 1 1.64e-06  370 8.67e-05 2.38e-05 6.99e-06 1.64e-06 
     3 1 1.40e-06  370 2.02e-05 6.11e-05 2.24e-06 1.40e-06 
     4 1 1.89e-06  370 7.62e-05 1.69e-05 2.68e-06 1.89e-06 
     5 1 1.73e-06  370 9.28e-05 4.63e-05 3.34e-06 1.73e-06 
     6 1 1.60e-06  370 2.66e-05 9.05e-05 5.69e-06 1.60e-06 
     7 1 1.58e-06  370 7.00e-05 1.01e-05 2.05e-06 1.58e-06 
     8 1 1.65e-06  370 6.23e-05 1.33e-05 3.85e-06 1.65e-06 
     9 1 1.80e-06  370 3.68e-05 8.50e-05 6.75e-06 1.80e-06 
     10 1 1.44e-06  370 3.11e-05 1.77e-05 4.10e-06 1.44e-06 
     11 1 1.40e-06  370 1.21e-05 2.01e-05 2.32e-06 1.40e-06 
     12 1 1.56e-06  370 4.75e-05 7.01e-05 4.49e-06 1.56e-06 
     13 1 1.57e-06  370 5.52e-05 9.71e-05 7.80e-06 1.57e-06 
     14 1 1.56e-06  370 2.72e-05 4.47e-05 7.64e-06 1.56e-06 
     15 1 1.57e-06  370 7.81e-05 1.10e-05 3.18e-06 1.57e-06 
     16 1 1.38e-06  370 8.11e-05 7.89e-05 6.84e-06 1.38e-06 
     17 1 1.66e-06  370 9.24e-05 8.37e-05 5.60e-06 1.66e-06 
     18 1 1.48e-06  370 4.28e-06 6.77e-06 3.67e-06 1.48e-06 
     19 1 1.92e-06  370 4.08e-05 9.64e-05 2.47e-06 1.92e-06 
     20 1 1.57e-06  370 7.71e-05 7.65e-06 7.46e-06 1.57e-06 
     21 1 1.67e-06  370 8.98e-05 9.34e-05 6.69e-06 1.67e-06 
     22 1 1.94e-06  370 3.15e-05 1.27e-05 4.59e-06 1.94e-06 
     23 1 1.86e-06  370 7.97e-05 2.70e-06 4.99e-06 1.86e-06 
     24 1 1.76e-06  370 2.30e-05 7.64e-05 2.90e-06 1.76e-06 
     25 1 1.72e-06  370 3.07e-06 5.50e-05 4.95e-06 1.72e-06 
     26 1 1.80e-06  370 6.20e-05 7.33e-06 6.86e-06 1.80e-06 
     27 1 1.47e-06  370 9.45e-05 9.59e-06 4.22e-06 1.47e-06 
     28 1 1.74e-06  370 9.55e-05 4.44e-05 3.78e-06 1.74e-06 
     29 1 1.56e-06  370 4.86e-05 4.30e-05 5.46e-06 1.56e-06 
     30 1 1.93e-06  370 6.07e-05 2.20e-05 7.37e-06 1.93e-06 
     31 1 1.78e-06  370 8.89e-05 4.23e-05 4.76e-06 1.78e-06 
     32 1 1.59e-06  370 1.50e-05 1.23e-05 3.39e-06 1.59e-06 
     33 1 1.38e-06  370 5.35e-05 4.83e-05 5.45e-06 1.38e-06 
     34 1 1.57e-06  370 8.87e-05 7.19e-06 1.60e-06 1.57e-06 
     35 1 1.40e-06  370 3.01e-05 5.70e-05 7.46e-06 1.40e-06 
     36 1 1.49e-06  370 1.23e-05 9.21e-05 2.25e-06 1.49e-06 
     37 1 1.40e-06  370 7.74e-05 2.49e-05 4.67e-06 1.40e-06 
     38 1 1.80e-06  370 5.08e-05 1.96e-05 6.73e-06 1.80e-06 
     39 1 1.60e-06  370 9.13e-06 9.55e-06 6.81e-06 1.60e-06 
     40 1 1.44e-06  370 8.62e-05 4.60e-05 6.05e-06 1.44e-06 
     41 1 1.54e-06  370 4.76e-05 4.67e-05 3.10e-06 1.54e-06 
     42 1 1.82e-06  370 8.65e-05 8.63e-05 3.26e-06 1.82e-06 
     43 1 1.87e-06  370 2.23e-05 8.95e-06 3.98e-06 1.87e-06 
     44 1 1.74e-06  370 6.16e-05 8.50e-06 6.63e-06 1.74e-06 
     45 1 1.56e-06  370 3.82e-05 1.94e-05 7.38e-06 1.56e-06 
     46 1 1.57e-06  370 4.52e-05 7.33e-05 4.86e-06 1.57e-06 
     47 1 1.93e-06  370 8.01e-06 7.37e-05 6.55e-06 1.93e-06 
     48 1 1.80e-06  370 8.96e-05 9.10e-05 3.82e-06 1.80e-06 
     49 1 1.65e-06  370 2.65e-05 7.22e-05 3.43e-06 1.65e-06 
     50 1 1.74e-06  370 9.18e-05 9.78e-05 3.07e-06 1.74e-06 
     51 2 1.14e-06  230 2.80e-05 7.00e-05 5.28e-06 1.14e-06 
     52 2 1.07e-06  230 3.72e-05 4.05e-06 1.52e-06 1.07e-06 
     53 2 1.06e-06  230 1.80e-05 1.23e-05 2.50e-06 1.06e-06 
     54 2 1.03e-06  230 1.37e-05 1.25e-05 1.63e-06 1.03e-06 
     55 2 1.23e-06  230 4.00e-05 1.08e-05 1.94e-06 1.23e-06 
     56 2 1.22e-06  230 1.39e-05 2.29e-05 1.84e-06 1.22e-06 
     57 2 1.09e-06  230 7.14e-05 5.66e-05 3.36e-06 1.09e-06 
     58 2 9.87e-07  230 5.35e-05 2.57e-05 7.23e-06 9.87e-07 
     59 2 1.25e-06  230 3.26e-05 4.66e-05 1.43e-06 1.25e-06 
     60 2 1.00e-06  230 5.25e-05 4.94e-05 4.15e-06 1.00e-06 
     61 2 1.14e-06  230 4.57e-05 4.95e-05 1.39e-06 1.14e-06 
     62 2 1.12e-06  230 6.83e-05 1.05e-05 3.67e-06 1.12e-06 
     63 2 1.27e-06  230 2.04e-05 2.67e-05 1.59e-06 1.27e-06 
     64 2 1.32e-06  230 1.11e-05 2.48e-05 3.80e-06 1.32e-06 
     65 2 1.14e-06  230 2.54e-05 7.00e-05 2.54e-06 1.14e-06 
     66 2 1.12e-06  230 7.12e-05 3.04e-05 5.91e-06 1.12e-06 
     67 2 1.05e-06  230 7.18e-05 9.14e-05 4.45e-06 1.05e-06 
     68 2 1.15e-06  230 3.01e-05 6.13e-05 4.07e-06 1.15e-06 
     69 2 1.15e-06  230 4.75e-05 7.15e-05 4.05e-06 1.15e-06 
     70 2 1.01e-06  230 5.34e-06 8.79e-05 8.40e-06 1.01e-06 
     71 2 9.44e-07  230 4.22e-05 4.80e-05 9.02e-06 9.44e-07 
     72 2 1.16e-06  230 8.76e-05 3.31e-05 5.31e-06 1.16e-06 
     73 2 1.17e-06  230 8.63e-05 3.10e-05 8.81e-06 1.17e-06 
     74 2 1.35e-06  230 8.08e-05 1.89e-05 4.73e-06 1.35e-06 
     75 2 1.22e-06  230 4.13e-05 6.40e-05 1.39e-06 1.22e-06 
     76 2 1.07e-06  230 6.93e-05 6.39e-05 2.78e-06 1.07e-06 
     77 2 9.31e-07  230 2.26e-05 1.49e-05 3.13e-06 9.31e-07 
     78 2 9.10e-07  230 7.14e-05 2.06e-05 2.93e-06 9.10e-07 
     79 2 1.35e-06  230 4.88e-06 5.76e-05 4.40e-06 1.35e-06 
     80 2 9.13e-07  230 6.28e-05 5.66e-05 3.04e-06 9.13e-07 
     81 2 1.27e-06  230 1.21e-05 4.35e-05 1.83e-06 1.27e-06 
     82 2 1.19e-06  230 5.12e-05 7.05e-05 3.23e-06 1.19e-06 
     83 2 1.27e-06  230 7.60e-05 9.44e-05 5.94e-06 1.27e-06 
     84 2 1.09e-06  230 6.57e-05 8.54e-05 5.61e-06 1.09e-06 
     85 2 1.32e-06  230 9.57e-05 7.65e-05 3.71e-06 1.32e-06 
     86 2 1.13e-06  230 8.78e-05 8.88e-05 1.75e-06 1.13e-06 
     87 2 1.16e-06  230 8.47e-05 1.67e-05 4.96e-06 1.16e-06 
     88 2 9.63e-07  230 1.63e-05 1.72e-05 5.01e-06 9.63e-07 
     89 2 1.17e-06  230 3.37e-05 5.24e-05 2.86e-06 1.17e-06 
     90 2 1.32e-06  230 1.77e-05 6.89e-05 3.33e-06 1.32e-06 
     91 2 1.17e-06  230 1.94e-05 6.01e-05 2.41e-06 1.17e-06 
     92 2 1.06e-06  230 6.95e-05 7.15e-05 4.10e-06 1.06e-06 
     93 2 1.21e-06  230 8.99e-05 5.16e-05 2.12e-06 1.21e-06 
     94 2 1.13e-06  230 1.76e-05 4.99e-05 2.05e-06 1.13e-06 
     95 2 1.13e-06  230 1.70e-05 4.18e-05 2.60e-06 1.13e-06 
     96 2 1.23e-06  230 3.07e-05 1.49e-05 7.92e-06 1.23e-06 
     97 2 1.36e-06  230 7.74e-05 1.16e-05 8.12e-06 1.36e-06 
     98 2 1.01e-06  230 6.55e-05 7.81e-05 1.78e-06 1.01e-06 
     99 2 1.31e-06  230 6.17e-05 5.77e-05 6.27e-06 1.31e-06 
     100 2 9.90e-07  230 6.29e-05 7.06e-05 3.05e-06 9.90e-07 

 Nutrients 

     1 sub g nn nn nn 1.00e-01 1.00e-01 
     2 o2 l nn nn nd 9.00e-03 9.00e-03 
     3 suc l nn nn nn 3.42e-20 3.42e-20 
     4 co2 l nn nn nd 2.99e-02 2.99e-02 

 Type Name 

     1 cyano  
     2 ecw  

 Diffusion Coeffs 

     sub 0 
     o2 2.3e-09 
     suc 5.2e-10 
     co2 1.9e-09 

 Growth Rate 

     cyano 1.67e-05 
     ecw 6e-05 

 Ks 

     cyano 0.00035 0.0002 0.01 0.000138 
     ecw 0 0.001 3.6 0.05 

 Yield 

     cyano 0.55 
     ecw 0.43 

 Maintenance 

     cyano 0 
     ecw 9.5e-07 

 Decay 

     cyano 0 
     ecw 0 



