LAMMPS (20 Nov 2019)
Reading data file ...
  orthogonal box = (0 0 0) to (0.0001 0.0001 0.0001)
  2 by 4 by 4 MPI processor grid
  reading atoms ...
  100 atoms
  4 nutrients
Lattice spacing in x,y,z = 100 100 100
100 atoms in group CYANO
0 atoms in group ECW
Model is defined as a closed system. 
Neighbor list info ...
  update every 1 steps, delay 0 steps, check yes
  max neighbors/atom: 5000, page size: 100000
  master list distance cutoff = 2.44e-06
  ghost atom cutoff = 2.44e-06
  binsize = 1.22e-06, bins = 82 82 82
  1 neighbor lists, perpetual/occasional/extra = 1 0 0
  (1) pair gran/hooke/history, perpetual
      attributes: half, newton off, size, history
      pair build: half/size/bin/newtoff
      stencil: half/bin/3d/newtoff
      bin: standard
Setting up Verlet run ...
  Unit style    : lj
  Current step  : 0
  Time step     : 10
Per MPI rank memory allocation (min/avg/max) = 5.856 | 9.585 | 10.91 Mbytes
Step CPU Atoms c_myNtypes[1] c_myNtypes[2] c_myMass[1] c_myMass[2] c_myCon[1] c_myCon[2] c_myCon[3] c_myCon[4] 
       0            0      100          100            0 9.1464792e-14            0          0.1        0.009     3.42e-20       0.0299 
number of iterations: 123903 
     100    1.2993538      100          100            0 9.3116677e-14            0          0.1   0.00900083 9.862842e-06  0.029898618 
number of iterations: 109455 
     200    2.4088287      100          100            0 9.4798395e-14            0          0.1  0.009000845 2.4997401e-05  0.029898593 
number of iterations: 97687 
     300    3.4396186      101          101            0 9.6510485e-14            0          0.1 0.0090008603 4.8157991e-05  0.029898568 
number of iterations: 87154 
     400    4.3461225      106          106            0 9.8253496e-14            0          0.1  0.009000874 8.3475254e-05  0.029898545 
number of iterations: 77296 
     500    5.1573494      106          106            0 1.0002799e-13            0          0.1 0.0090008898 0.00013759072  0.029898519 
number of iterations: 67768 
     600    5.8909791      107          107            0 1.0183453e-13            0          0.1 0.0090009058 0.00022084719  0.029898492 
number of iterations: 58330 
     700    6.5302803      110          110            0 1.0367369e-13            0          0.1 0.0090009222 0.00035002439  0.029898465 
number of iterations: 48710 
     800    7.0786523      114          114            0 1.0554607e-13            0          0.1 0.0090009373 0.00055370763  0.029898439 
number of iterations: 38442 
     900    7.5231326      116          116            0 1.0745227e-13            0          0.1 0.0090009542 0.00088840484  0.029898411 
number of iterations: 26895 
    1000    7.8615655      118          118            0 1.0939289e-13            0          0.1 0.0090009715 0.0014825094  0.029898382 
number of iterations: 16157 
    1100    8.0970098      118          118            0 1.1136856e-13            0          0.1  0.009000989 0.0025404169  0.029898353 
number of iterations: 15330 
    1200    8.3213511      122          122            0 1.1337992e-13            0          0.1 0.0090010068 0.0038812631  0.029898324 
number of iterations: 15388 
    1300      8.53861      124          124            0 1.154276e-13            0          0.1  0.009001025 0.0054701834  0.029898293 
number of iterations: 15446 
    1400    8.7491295      125          125            0 1.1751226e-13            0          0.1 0.0090010435 0.0073273174  0.029898263 
number of iterations: 15504 
    1500    8.9574641      126          126            0 1.1963457e-13            0          0.1 0.0090010624 0.0094882977  0.029898231 
number of iterations: 15562 
    1600    9.1625362      127          127            0 1.2179521e-13            0          0.1 0.0090010816  0.012009021  0.029898199 
number of iterations: 15620 
    1700    9.3667752      127          127            0 1.2399487e-13            0          0.1 0.0090011011  0.014758381  0.029898167 
number of iterations: 15678 
    1800    9.5698455      131          131            0 1.2623426e-13            0          0.1  0.009001121  0.017729609  0.029898134 
number of iterations: 15736 
    1900    9.7782726      132          132            0 1.2851409e-13            0          0.1 0.0090011412  0.020923712    0.0298981 
number of iterations: 15794 
    2000    9.9836924      134          134            0 1.308351e-13            0          0.1 0.0090011618  0.024342672  0.029898066 
number of iterations: 15852 
    2100    10.187782      135          135            0 1.3319802e-13            0          0.1 0.0090011828  0.027990081  0.029898031 
number of iterations: 15910 
    2200     10.38835      136          136            0 1.3560362e-13            0          0.1 0.0090012042  0.031869175  0.029897995 
number of iterations: 15968 
    2300    10.589982      139          139            0 1.3805267e-13            0          0.1 0.0090012259  0.035969616  0.029897959 
number of iterations: 16026 
    2400    10.791365      143          143            0 1.4054594e-13            0          0.1 0.0090012481  0.040271493  0.029897922 
number of iterations: 16084 
    2500    10.994682      144          144            0 1.4308425e-13            0          0.1 0.0090012706  0.044776333  0.029897884 
number of iterations: 16142 
    2600    11.198019      145          145            0 1.456684e-13            0          0.1 0.0090012936  0.049486425  0.029897846 
number of iterations: 16200 
    2700    11.402673      148          148            0 1.4829922e-13            0          0.1 0.0090013169  0.054403681  0.029897807 
number of iterations: 16258 
    2800    11.609181      149          149            0 1.5097755e-13            0          0.1 0.0090013407  0.059531398  0.029897768 
number of iterations: 16242 
    2900    11.814514      152          152            0 1.5370425e-13            0          0.1 0.0090013644   0.06485629  0.029897728 
number of iterations: 16373 
    3000    12.038079      156          156            0 1.564802e-13            0          0.1  0.009001389  0.070365196  0.029897687 
number of iterations: 16431 
    3100    12.244839      158          158            0 1.5930629e-13            0          0.1 0.0090014141   0.07605976  0.029897645 
number of iterations: 16489 
    3200    12.449959      158          158            0 1.6218341e-13            0          0.1 0.0090014396  0.081941175  0.029897603 
number of iterations: 16547 
    3300    12.661047      161          161            0 1.651125e-13            0          0.1 0.0090014656  0.088011217   0.02989756 
number of iterations: 16605 
    3400    12.885072      162          162            0 1.6809448e-13            0          0.1 0.0090014921  0.094271289  0.029897516 
number of iterations: 16663 
    3500    13.089775      162          162            0 1.7113032e-13            0          0.1  0.009001519   0.10072469  0.029897471 
number of iterations: 16721 
    3600    13.295715      162          162            0 1.7422099e-13            0          0.1 0.0090015465   0.10737219  0.029897425 
number of iterations: 16779 
    3700    13.533631      163          163            0 1.7736748e-13            0          0.1 0.0090015744    0.1142166  0.029897379 
number of iterations: 17734 
    3800    13.753671      172          172            0 1.805708e-13            0          0.1 0.0090016044   0.12125698  0.029897329 
number of iterations: 16913 
    3900    13.962819      174          174            0 1.8383196e-13            0          0.1 0.0090016334   0.12849917   0.02989728 
number of iterations: 17897 
    4000    14.182468      175          175            0 1.8715203e-13            0          0.1 0.0090016663   0.13594918  0.029897225 
number of iterations: 17048 
    4100    14.391985      180          180            0 1.9053206e-13            0          0.1 0.0090016964   0.14360661  0.029897175 
number of iterations: 17106 
    4200    14.601846      184          184            0 1.9397313e-13            0          0.1 0.0090017271   0.15147481  0.029897124 
number of iterations: 17164 
    4300     14.81199      187          187            0 1.9747634e-13            0          0.1 0.0090017583   0.15955702  0.029897072 
number of iterations: 17251 
    4400    15.021606      193          193            0 2.0104283e-13            0          0.1 0.0090017903   0.16785489  0.029897019 
number of iterations: 17280 
    4500    15.233844      195          195            0 2.0467373e-13            0          0.1 0.0090018227    0.1763729  0.029896965 
number of iterations: 17269 
    4600    15.447326      200          200            0 2.0837021e-13            0          0.1 0.0090018543   0.18511716  0.029896912 
number of iterations: 17395 
    4700    15.667804      204          204            0 2.1213344e-13            0          0.1 0.0090018878   0.19408892  0.029896857 
number of iterations: 17578 
    4800    15.928087      210          210            0 2.1596464e-13            0          0.1 0.0090019265   0.20329586  0.029896792 
number of iterations: 17514 
    4900    16.149295      215          215            0 2.1986503e-13            0          0.1 0.0090019613   0.21273749  0.029896734 
number of iterations: 16379 
    5000      16.3549      220          220            0 2.2383586e-13            0          0.1 0.0090019924   0.22241539  0.029896683 
number of iterations: 17582 
    5100    16.573731      223          223            0 2.2787841e-13            0          0.1  0.009002028   0.23233501  0.029896623 
number of iterations: 17681 
    5200    16.789461      232          232            0 2.3199397e-13            0          0.1 0.0090020663   0.24250155   0.02989656 
number of iterations: 17727 
    5300    17.005775      237          237            0 2.3618386e-13            0          0.1 0.0090021036   0.25291843  0.029896497 
number of iterations: 17004 
    5400    17.217089      239          239            0 2.4044941e-13            0          0.1  0.009002136   0.26359002  0.029896443 
number of iterations: 17831 
    5500    17.435126      239          239            0 2.4479201e-13            0          0.1 0.0090021753   0.27452126  0.029896378 
number of iterations: 17889 
    5600    17.654354      247          247            0 2.4921303e-13            0          0.1 0.0090022146   0.28571572  0.029896313 
number of iterations: 17947 
    5700    17.874322      257          257            0 2.537139e-13            0          0.1 0.0090022546   0.29717546  0.029896246 
number of iterations: 16595 
    5800    18.078038      265          265            0 2.5829605e-13            0          0.1 0.0090022929   0.30843371  0.029896182 
number of iterations: 18005 
    5900    18.299203      270          270            0 2.6296096e-13            0          0.1 0.0090023343    0.3199532  0.029896113 
number of iterations: 18071 
    6000    18.521722      275          275            0 2.6771012e-13            0          0.1 0.0090023764   0.33173788  0.029896043 
number of iterations: 19390 
    6100     18.75738      281          281            0 2.7254505e-13            0          0.1 0.0090024207    0.3440577  0.029895969 
number of iterations: 18214 
    6200    18.978824      285          285            0 2.7746731e-13            0          0.1 0.0090024644   0.35665986  0.029895897 
number of iterations: 18273 
    6300    19.201258      285          285            0 2.8247845e-13            0          0.1 0.0090025089   0.36954073  0.029895822 
number of iterations: 18330 
    6400    19.424117      286          286            0 2.8758011e-13            0          0.1 0.0090025543   0.38265424  0.029895747 
number of iterations: 18388 
    6500    19.670217      290          290            0 2.9277389e-13            0          0.1 0.0090026004   0.39600459   0.02989567 
number of iterations: 18475 
    6600    19.895073      293          293            0 2.9806149e-13            0          0.1 0.0090026487   0.40959605   0.02989559 
number of iterations: 18793 
    6700     20.12534      296          296            0 3.0344457e-13            0          0.1 0.0090027014   0.42343297  0.029895502 
number of iterations: 17794 
    6800    20.346014      305          305            0 3.0892488e-13            0          0.1 0.0090027467   0.43751979  0.029895427 
number of iterations: 18692 
    6900    20.592093      306          306            0 3.1450416e-13            0          0.1 0.0090027967   0.45186102  0.029895343 
number of iterations: 18546 
    7000    20.820155      311          311            0 3.201842e-13            0          0.1 0.0090028447   0.46646126  0.029895263 
number of iterations: 18729 
    7100    21.050889      318          318            0 3.2596683e-13            0          0.1 0.0090028959   0.48132518  0.029895178 
number of iterations: 18787 
    7200    21.284707      322          322            0 3.318539e-13            0          0.1 0.0090029482   0.49645755  0.029895091 
number of iterations: 18845 
    7300    21.512743      330          330            0 3.3784729e-13            0          0.1 0.0090030013   0.51186322  0.029895003 
number of iterations: 18903 
    7400    21.744476      334          334            0 3.4394892e-13            0          0.1 0.0090030551   0.52754712  0.029894913 
number of iterations: 18356 
    7500    21.971929      340          340            0 3.5016074e-13            0          0.1 0.0090031087   0.54351427  0.029894824 
number of iterations: 18318 
    7600    22.196025      346          346            0 3.5648476e-13            0          0.1 0.0090031612   0.55976978  0.029894736 
number of iterations: 19140 
    7700    22.428214      355          355            0 3.6292298e-13            0          0.1 0.0090032199   0.57632218  0.029894639 
number of iterations: 19680 
    7800    22.668748      358          358            0 3.6947749e-13            0          0.1  0.009003282   0.59317352  0.029894535 
number of iterations: 19184 
    7900    22.904566      364          364            0 3.7615037e-13            0          0.1 0.0090033413    0.6103292  0.029894437 
number of iterations: 19238 
    8000    23.144234      369          369            0 3.8294376e-13            0          0.1 0.0090034004   0.62779471  0.029894338 
number of iterations: 19300 
    8100    23.408833      377          377            0 3.8985985e-13            0          0.1 0.0090034618   0.64557566  0.029894236 
number of iterations: 19358 
    8200    23.670424      385          385            0 3.9690084e-13            0          0.1 0.0090035243   0.66367774  0.029894132 
number of iterations: 19416 
    8300    23.909616      390          390            0  4.04069e-13            0          0.1 0.0090035876   0.68210675  0.029894026 
number of iterations: 19425 
    8400    24.145834      396          396            0 4.1136661e-13            0          0.1 0.0090036525   0.70086858  0.029893918 
number of iterations: 19517 
    8500    24.383933      405          405            0 4.1879602e-13            0          0.1 0.0090037155   0.71996926  0.029893813 
number of iterations: 19267 
    8600    24.617772      415          415            0 4.2635961e-13            0          0.1 0.0090037824   0.73941491  0.029893702 
number of iterations: 19641 
    8700    24.860284      421          421            0 4.340598e-13            0          0.1 0.0090038507   0.75921175  0.029893588 
Loop time of 24.8603 on 32 procs for 8700 steps with 421 atoms

Performance: 302361556.653 tau/day, 349.956 timesteps/s
98.4% CPU use with 32 MPI tasks x no OpenMP threads

MPI task timing breakdown:
Section |  min time  |  avg time  |  max time  |%varavg| %total
---------------------------------------------------------------
Pair    | 0.00041917 | 0.0022912  | 0.0046945  |   2.1 |  0.01
Neigh   | 0.0011927  | 0.0021308  | 0.0048117  |   1.7 |  0.01
Comm    | 0.01181    | 0.02707    | 0.051974   |   7.4 |  0.11
Output  | 0.93415    | 0.93446    | 0.93593    |   0.0 |  3.76
Modify  | 23.839     | 23.843     | 23.847     |   0.0 | 95.91
Other   |            | 0.05105    |            |       |  0.21

Nlocal:    13.1562 ave 30 max 0 min
Histogram: 3 2 2 10 3 3 4 1 1 3
Nghost:    5.21875 ave 22 max 0 min
Histogram: 11 7 4 2 3 3 1 0 0 1
Neighs:    12.75 ave 30 max 0 min
Histogram: 3 3 4 6 5 2 3 0 4 2

Total # of neighbors = 408
Ave neighs/atom = 0.969121
Neighbor list builds = 111
Dangerous builds = 0
Total wall time: 0:00:24
