LAMMPS (20 Nov 2019)
Reading data file ...
  orthogonal box = (0 0 0) to (0.0001 0.0001 1e-05)
  8 by 4 by 1 MPI processor grid
  reading atoms ...
  100 atoms
  4 nutrients
Lattice spacing in x,y,z = 100 100 100
50 atoms in group CYANO
50 atoms in group ECW
Model is defined as a closed system. 
Neighbor list info ...
  update every 1 steps, delay 0 steps, check yes
  max neighbors/atom: 5000, page size: 100000
  master list distance cutoff = 2.44e-06
  ghost atom cutoff = 2.44e-06
  binsize = 1.22e-06, bins = 82 82 9
  1 neighbor lists, perpetual/occasional/extra = 1 0 0
  (1) pair gran/hooke/history, perpetual
      attributes: half, newton off, size, history
      pair build: half/size/bin/newtoff
      stencil: half/bin/3d/newtoff
      bin: standard
Setting up Verlet run ...
  Unit style    : lj
  Current step  : 0
  Time step     : 10
Per MPI rank memory allocation (min/avg/max) = 5.794 | 10.88 | 12.11 Mbytes
Step CPU Atoms c_myNtypes[1] c_myNtypes[2] c_myMass[1] c_myMass[2] c_myCon[1] c_myCon[2] c_myCon[3] c_myCon[4] 
       0            0      100           50           50 4.7197559e-14 9.3093371e-15          0.1        0.009     3.42e-20       0.0299 
number of iterations: 326838 
     100    15.984849      133           50           83 4.7823031e-14 9.3019889e-15          0.1  0.009000873   0.03793056  0.029898546 
number of iterations: 4408 
     200    16.343881      152           50          102 4.8456792e-14 9.2951788e-15          0.1 0.0090008845  0.075150346  0.029898527 
number of iterations: 2872 
     300    16.662772      152           50          102 4.9098952e-14 9.2889447e-15          0.1 0.0090008962   0.11284447  0.029898507 
number of iterations: 2277 
     400    16.905084      153           51          102 4.9749622e-14 9.2832868e-15          0.1  0.009000905   0.15102301  0.029898493 
number of iterations: 1930 
     500    17.138292      154           52          102 5.0408914e-14 9.2782017e-15          0.1 0.0090009169   0.18969367  0.029898473 
number of iterations: 1696 
     600    17.351638      154           52          102 5.1076944e-14 9.2736852e-15          0.1 0.0090009291   0.22886369  0.029898452 
number of iterations: 1525 
     700    17.561806      154           52          102 5.1753826e-14 9.2697327e-15          0.1 0.0090009414   0.26854023  0.029898432 
number of iterations: 1471 
     800    17.774128      154           52          102 5.2439679e-14 9.2663395e-15          0.1 0.0090009538   0.30873042  0.029898411 
number of iterations: 1473 
     900    17.979924      154           52          102 5.3134621e-14 9.263501e-15          0.1 0.0090009664   0.34944145   0.02989839 
number of iterations: 1573 
    1000    18.214648      155           53          102 5.3838772e-14 9.2612131e-15          0.1 0.0090009746   0.39068039  0.029898376 
number of iterations: 1480 
    1100    18.420546      155           53          102 5.4552255e-14 9.2594705e-15          0.1 0.0090009875   0.43245473  0.029898355 
number of iterations: 1482 
    1200    18.631843      156           54          102 5.5275193e-14 9.2582688e-15          0.1 0.0090010006   0.47477186  0.029898333 
number of iterations: 1630 
    1300    18.832288      159           57          102 5.6007712e-14 9.2576033e-15          0.1 0.0090010184   0.51763923  0.029898303 
number of iterations: 1491 
    1400    19.050728      159           57          102 5.6749938e-14 9.2574699e-15          0.1 0.0090010319   0.56106445  0.029898281 
number of iterations: 1672 
    1500    19.262453      161           59          102   5.7502e-14 9.2578644e-15          0.1 0.0090010379   0.60505511  0.029898271 
number of iterations: 1496 
    1600    19.467428      161           59          102 5.8264029e-14 9.2587825e-15          0.1 0.0090010516   0.64961903  0.029898248 
number of iterations: 1481 
    1700    19.644969      163           61          102 5.9036156e-14 9.2602203e-15          0.1 0.0090010609   0.69476414  0.029898232 
number of iterations: 1522 
    1800     19.83502      165           63          102 5.9818516e-14 9.2621741e-15          0.1  0.009001075   0.74049815  0.029898209 
number of iterations: 1504 
    1900    20.050418      165           63          102 6.0611244e-14 9.2646397e-15          0.1 0.0090010892   0.78682926  0.029898185 
number of iterations: 1583 
    2000    20.282228      167           65          102 6.1414477e-14 9.2676115e-15          0.1 0.0090011072   0.83376569  0.029898155 
number of iterations: 1508 
    2100    20.466064      167           65          102 6.2228354e-14 9.2710875e-15          0.1 0.0090011218   0.88131564  0.029898131 
number of iterations: 1511 
    2200     20.64934      168           66          102 6.3053018e-14 9.2750639e-15          0.1 0.0090011367   0.92948748  0.029898106 
number of iterations: 1469 
    2300    20.835803      169           67          102 6.388861e-14 9.2795372e-15          0.1 0.0090011494   0.97828968  0.029898085 
number of iterations: 1516 
    2400    21.020188      169           67          102 6.4735275e-14 9.2845041e-15          0.1 0.0090011646    1.0277308   0.02989806 
number of iterations: 1540 
    2500    21.201904      170           68          102 6.5593161e-14 9.2899609e-15          0.1   0.00900118    1.0778196  0.029898034 
number of iterations: 1521 
    2600     21.38031      171           69          102 6.6462415e-14 9.2959046e-15          0.1 0.0090011934    1.1285648  0.029898012 
number of iterations: 1624 
    2700    21.562753      174           72          102 6.7343189e-14 9.3023314e-15          0.1 0.0090012094    1.1799754  0.029897985 
number of iterations: 1528 
    2800    21.750761      174           72          102 6.8235635e-14 9.3092386e-15          0.1 0.0090012254    1.2320605  0.029897958 
number of iterations: 1531 
    2900    21.923506      174           72          102 6.9139908e-14 9.3166233e-15          0.1 0.0090012416     1.284829  0.029897931 
number of iterations: 1534 
    3000    22.135232      174           72          102 7.0056165e-14 9.3244824e-15          0.1  0.009001258    1.3382904  0.029897904 
number of iterations: 1511 
    3100    22.362055      177           75          102 7.0984564e-14 9.3328138e-15          0.1 0.0090012697    1.3924545  0.029897884 
number of iterations: 1538 
    3200    22.585223      177           75          102 7.1925266e-14 9.3416139e-15          0.1 0.0090012865    1.4473302  0.029897856 
number of iterations: 1541 
    3300    22.784344      177           75          102 7.2878435e-14 9.3508802e-15          0.1 0.0090013035    1.5029274  0.029897828 
number of iterations: 1544 
    3400    22.974921      178           76          102 7.3844236e-14 9.3606099e-15          0.1 0.0090013185    1.5592558  0.029897803 
number of iterations: 1587 
    3500    23.165137      180           78          102 7.4822835e-14 9.3708001e-15          0.1 0.0090013408    1.6163254  0.029897766 
number of iterations: 1549 
    3600    23.350098      180           78          102 7.5814403e-14 9.3814486e-15          0.1 0.0090013586     1.674146  0.029897736 
number of iterations: 1552 
    3700    23.553904      180           78          102 7.6819111e-14 9.3925527e-15          0.1 0.0090013766    1.7327277  0.029897706 
number of iterations: 1594 
    3800    23.732935      183           80          103 7.7837134e-14 9.4041102e-15          0.1 0.0090013976    1.7920809  0.029897671 
number of iterations: 1558 
    3900      23.9036      184           81          103 7.8868648e-14 9.4161188e-15          0.1 0.0090014161    1.8522159   0.02989764 
number of iterations: 1561 
    4000    24.130076      184           81          103 7.9913832e-14 9.4285761e-15          0.1 0.0090014349    1.9131433  0.029897609 
number of iterations: 1564 
    4100    24.335359      185           82          103 8.0972867e-14 9.4414795e-15          0.1 0.0090014553    1.9748738  0.029897575 
number of iterations: 1566 
    4200    24.524535      185           82          103 8.2045936e-14 9.4548273e-15          0.1 0.0090014746    2.0374181  0.029897543 
number of iterations: 1569 
    4300    24.720645      185           82          103 8.3133226e-14 9.4686174e-15          0.1 0.0090014942    2.1007872   0.02989751 
number of iterations: 1615 
    4400    24.917895      187           84          103 8.4234924e-14 9.4828476e-15          0.1 0.0090015156    2.1649923  0.029897475 
number of iterations: 1575 
    4500    25.090093      187           84          103 8.5351223e-14 9.4975161e-15          0.1 0.0090015357    2.2300446  0.029897441 
number of iterations: 1578 
    4600     25.27017      187           84          103 8.6482315e-14 9.5126209e-15          0.1  0.009001556    2.2959554  0.029897407 
number of iterations: 1581 
    4700    25.448736      187           84          103 8.7628396e-14 9.5281601e-15          0.1 0.0090015766    2.3627364  0.029897373 
number of iterations: 1615 
    4800    25.629988      188           85          103 8.8789666e-14 9.5441315e-15          0.1 0.0090016026    2.4303996   0.02989733 
number of iterations: 1592 
    4900    25.819035      188           85          103 8.9966325e-14 9.5605327e-15          0.1 0.0090016238    2.4989564  0.029897294 
number of iterations: 1613 
    5000    26.030011      189           86          103 9.1158577e-14 9.577363e-15          0.1 0.0090016487     2.568419  0.029897253 
number of iterations: 1567 
    5100    26.207631      192           89          103 9.2366629e-14 9.5946202e-15          0.1  0.009001669    2.6387992  0.029897219 
number of iterations: 1594 
    5200     26.40499      192           89          103 9.3590691e-14 9.6123032e-15          0.1 0.0090016911    2.7101096  0.029897182 
number of iterations: 1597 
    5300    26.604142      192           89          103 9.4830974e-14 9.6304106e-15          0.1 0.0090017135    2.7823627  0.029897145 
number of iterations: 1548 
    5400    26.784932      193           90          103 9.6087693e-14 9.6489402e-15          0.1 0.0090017318    2.8555715  0.029897114 
number of iterations: 1737 
    5500    26.982914      194           91          103 9.7361067e-14 9.6678913e-15          0.1  0.009001759    2.9297487  0.029897069 
number of iterations: 1604 
    5600    27.176779      194           91          103 9.8651315e-14 9.6872622e-15          0.1 0.0090017823     3.004907   0.02989703 
number of iterations: 1607 
    5700    27.363925      194           91          103 9.9958663e-14 9.7070518e-15          0.1 0.0090018059    3.0810597  0.029896991 
number of iterations: 1600 
    5800    27.543464      196           93          103 1.0128334e-13 9.7272592e-15          0.1 0.0090018299      3.15822  0.029896951 
number of iterations: 1570 
    5900    27.718762      199           96          103 1.0262556e-13 9.7478826e-15          0.1 0.0090018497    3.2364015  0.029896918 
number of iterations: 1717 
    6000    27.920334      201           98          103 1.0398558e-13 9.7689204e-15          0.1 0.0090018816    3.3156174  0.029896865 
number of iterations: 1629 
    6100    28.128499      202           99          103 1.0536361e-13 9.7903714e-15          0.1 0.0090019116    3.3958821  0.029896815 
number of iterations: 1600 
    6200    28.333135      203          100          103 1.0675991e-13 9.8122349e-15          0.1 0.0090019321    3.4772095   0.02989678 
number of iterations: 1637 
    6300    28.523506      206          102          104 1.0817472e-13 9.8345101e-15          0.1 0.0090019627    3.5596135   0.02989673 
number of iterations: 1662 
    6400    28.724954      213          106          107 1.0960827e-13 9.8571956e-15          0.1 0.0090019878    3.6431091  0.029896688 
number of iterations: 1710 
    6500    28.904459      217          109          108 1.1106082e-13 9.8802903e-15          0.1 0.0090020205    3.7277108  0.029896633 
number of iterations: 1600 
    6600     29.11492      219          111          108 1.1253262e-13 9.9037935e-15          0.1 0.0090020476    3.8134332  0.029896588 
number of iterations: 1634 
    6700    29.335041      221          112          109 1.1402393e-13 9.9277042e-15          0.1 0.0090020748    3.9002914  0.029896543 
number of iterations: 1595 
    6800    29.552343      222          113          109 1.1553499e-13 9.9520214e-15          0.1 0.0090020993    3.9883007  0.029896502 
number of iterations: 1641 
    6900    29.759932      223          114          109 1.1706609e-13 9.9767442e-15          0.1 0.0090021304    4.0774763   0.02989645 
number of iterations: 1618 
    7000    29.940436      226          116          110 1.1861747e-13 1.0001872e-14          0.1 0.0090021552    4.1678343  0.029896409 
number of iterations: 1751 
    7100    30.178012      226          116          110 1.2018941e-13 1.0027404e-14          0.1 0.0090021887      4.25939  0.029896353 
number of iterations: 1647 
    7200    30.368996      228          117          111 1.2178219e-13 1.0053339e-14          0.1 0.0090022177    4.3521596  0.029896305 
number of iterations: 1637 
    7300    30.569017      235          122          113 1.2339607e-13 1.0079677e-14          0.1 0.0090022538    4.4461593  0.029896245 
number of iterations: 1633 
    7400    30.769448      237          124          113 1.2503134e-13 1.0106418e-14          0.1 0.0090022825    4.5414055  0.029896197 
number of iterations: 1688 
    7500    30.970439      241          127          114 1.2668828e-13 1.013356e-14          0.1 0.0090023068     4.637915  0.029896156 
number of iterations: 1657 
    7600    31.154227      242          128          114 1.2836717e-13 1.0161103e-14          0.1 0.0090023338    4.7357047  0.029896111 
number of iterations: 1721 
    7700    31.350884      249          135          114 1.3006832e-13 1.0189046e-14          0.1  0.009002363    4.8347911  0.029896062 
number of iterations: 1714 
    7800    31.542951      251          137          114 1.3179201e-13 1.0217388e-14          0.1  0.009002397    4.9351923  0.029896006 
number of iterations: 1674 
    7900    31.740645      253          139          114 1.3353855e-13 1.0246131e-14          0.1 0.0090024314    5.0369249  0.029895949 
number of iterations: 1699 
    8000    31.931005      258          144          114 1.3530823e-13 1.0275272e-14          0.1 0.0090024535    5.1400072  0.029895912 
number of iterations: 1679 
    8100    32.145032      259          145          114 1.3710136e-13 1.0304812e-14          0.1 0.0090024823    5.2444573  0.029895864 
number of iterations: 1636 
    8200    32.365045      261          147          114 1.3891825e-13 1.033475e-14          0.1 0.0090025088    5.3502938   0.02989582 
number of iterations: 1674 
    8300     32.56331      261          147          114 1.4075922e-13 1.0365085e-14          0.1  0.009002537    5.4575353  0.029895773 
number of iterations: 1684 
    8400    32.754161      264          149          115 1.4262459e-13 1.0395818e-14          0.1  0.009002572    5.5662001  0.029895714 
number of iterations: 1720 
    8500    32.932538      266          150          116 1.4451468e-13 1.0426948e-14          0.1 0.0090026049    5.6763073   0.02989566 
number of iterations: 1692 
    8600    33.116247      268          152          116 1.4642982e-13 1.0458475e-14          0.1 0.0090026394     5.787876  0.029895602 
number of iterations: 1686 
    8700     33.30974      268          152          116 1.4837033e-13 1.0490398e-14          0.1 0.0090026744    5.9009258  0.029895544 
number of iterations: 1667 
    8800    33.512274      269          153          116 1.5033657e-13 1.0522718e-14          0.1 0.0090027069     6.015476   0.02989549 
number of iterations: 1714 
    8900    33.697304      271          154          117 1.5232886e-13 1.0555434e-14          0.1 0.0090027419    6.1315471  0.029895431 
number of iterations: 1670 
    9000    33.886104      273          156          117 1.5434755e-13 1.0588546e-14          0.1  0.009002773    6.2491593   0.02989538 
number of iterations: 1709 
    9100    34.070818      274          157          117 1.5639299e-13 1.0622054e-14          0.1 0.0090028081    6.3683331  0.029895321 
number of iterations: 1699 
    9200    34.277446      275          158          117 1.5846554e-13 1.0655958e-14          0.1 0.0090028454    6.4890894  0.029895259 
number of iterations: 1735 
    9300    34.480114      278          160          118 1.6056556e-13 1.0690258e-14          0.1 0.0090028923    6.6114497  0.029895181 
number of iterations: 1721 
    9400    34.669091      279          161          118 1.626934e-13 1.0724953e-14          0.1 0.0090029331    6.7354347  0.029895113 
number of iterations: 1708 
    9500    34.852609      280          162          118 1.6484945e-13 1.0760045e-14          0.1 0.0090029719    6.8610662  0.029895048 
number of iterations: 1812 
    9600    35.050533      284          165          119 1.6703406e-13 1.0795533e-14          0.1 0.0090030167    6.9883667  0.029894974 
number of iterations: 1714 
    9700    35.242875      284          165          119 1.6924763e-13 1.0831417e-14          0.1 0.0090030567    7.1173579  0.029894907 
number of iterations: 1723 
    9800    35.435339      285          166          119 1.7149053e-13 1.0867697e-14          0.1 0.0090030996    7.2480624  0.029894835 
number of iterations: 1724 
    9900     35.67565      286          166          120 1.7376316e-13 1.0904372e-14          0.1 0.0090031407     7.380503  0.029894767 
number of iterations: 1723 
   10000    35.886021      287          166          121 1.760659e-13 1.0941444e-14          0.1 0.0090031824    7.5147029  0.029894698 
number of iterations: 1701 
   10100      36.1176      290          169          121 1.7839916e-13 1.0978913e-14          0.1 0.0090032253    7.6506853  0.029894626 
number of iterations: 1731 
   10200    36.319198      292          171          121 1.8076334e-13 1.1016778e-14          0.1 0.0090032681    7.7884744  0.029894555 
number of iterations: 1724 
   10300    36.525233      295          173          122 1.8315885e-13 1.105504e-14          0.1 0.0090033114    7.9280936  0.029894483 
number of iterations: 1707 
   10400    36.704774      298          176          122 1.855861e-13 1.1093699e-14          0.1 0.0090033506    8.0695678  0.029894417 
number of iterations: 1785 
   10500    36.900082      301          179          122 1.8804553e-13 1.1132756e-14          0.1 0.0090034013    8.2129212  0.029894333 
number of iterations: 1740 
   10600    37.095333      308          185          123 1.9053754e-13 1.117221e-14          0.1  0.009003436    8.3581786  0.029894275 
number of iterations: 1828 
   10700    37.283126      310          187          123 1.9306258e-13 1.1212063e-14          0.1 0.0090034864    8.5053659  0.029894191 
number of iterations: 1744 
   10800     37.48395      311          188          123 1.9562108e-13 1.1252314e-14          0.1 0.0090035339    8.6545089  0.029894112 
number of iterations: 1746 
   10900    37.685454      313          189          124 1.9821349e-13 1.1292964e-14          0.1  0.009003578    8.8056335  0.029894039 
number of iterations: 1816 
   11000    37.885972      319          195          124 2.0084025e-13 1.1334013e-14          0.1 0.0090036328    8.9587668  0.029893947 
number of iterations: 1755 
   11100    38.099252      323          199          124 2.0350182e-13 1.1375462e-14          0.1 0.0090036745    9.1139355  0.029893878 
number of iterations: 1760 
   11200    38.285902      325          201          124 2.0619866e-13 1.141731e-14          0.1 0.0090037265    9.2711661  0.029893791 
number of iterations: 1720 
   11300    38.486038      329          205          124 2.0893125e-13 1.1459559e-14          0.1 0.0090037576    9.4304861  0.029893739 
number of iterations: 1812 
   11400    38.676376      332          207          125 2.1170004e-13 1.1502209e-14          0.1 0.0090038109    9.5919233  0.029893651 
number of iterations: 1744 
   11500    38.851414      338          211          127 2.1450553e-13 1.154526e-14          0.1 0.0090038622    9.7555058  0.029893565 
number of iterations: 1808 
   11600    39.060238      339          212          127 2.173482e-13 1.1588712e-14          0.1 0.0090039165    9.9212617  0.029893475 
number of iterations: 1718 
   11700    39.280958      340          213          127 2.2022854e-13 1.1632567e-14          0.1 0.0090039583     10.08922  0.029893405 
number of iterations: 1783 
   11800    39.499466      345          218          127 2.2314704e-13 1.1676824e-14          0.1 0.0090040122    10.259411  0.029893315 
number of iterations: 1764 
   11900    39.713015      349          222          127 2.2610423e-13 1.1721485e-14          0.1 0.0090040668    10.431863  0.029893224 
number of iterations: 1770 
   12000    39.919296      350          223          127 2.291006e-13 1.1766551e-14          0.1 0.0090041207    10.606606  0.029893135 
number of iterations: 1774 
   12100    40.144809      351          224          127 2.3213669e-13 1.1812021e-14          0.1 0.0090041699    10.783672  0.029893053 
number of iterations: 1783 
   12200    40.334759      354          226          128  2.35213e-13 1.1857897e-14          0.1 0.0090042265    10.963091  0.029892958 
number of iterations: 1786 
   12300    40.525757      356          228          128 2.3833009e-13 1.190418e-14          0.1 0.0090042826    11.144894  0.029892865 
number of iterations: 1765 
   12400    40.716988      362          234          128 2.4148848e-13 1.1950869e-14          0.1 0.0090043389    11.329113  0.029892771 
number of iterations: 1793 
   12500     40.90523      364          235          129 2.4468873e-13 1.1997967e-14          0.1 0.0090043963    11.515781  0.029892676 
number of iterations: 1746 
   12600    41.094225      370          241          129 2.4793139e-13 1.2045474e-14          0.1 0.0090044463     11.70493  0.029892592 
number of iterations: 1821 
   12700    41.289443      374          245          129 2.5121702e-13 1.2093389e-14          0.1 0.0090045042    11.896592  0.029892496 
number of iterations: 1808 
   12800    41.495225      378          249          129 2.5454619e-13 1.2141715e-14          0.1 0.0090045721    12.090802  0.029892383 
number of iterations: 1774 
   12900    41.676097      380          251          129 2.5791948e-13 1.2190453e-14          0.1 0.0090046287    12.287592  0.029892288 
number of iterations: 1766 
   13000    41.865465      385          256          129 2.6133748e-13 1.2239602e-14          0.1 0.0090046846    12.486999  0.029892195 
number of iterations: 1826 
   13100    42.077112      392          263          129 2.6480077e-13 1.2289164e-14          0.1   0.00900475    12.689055  0.029892086 
number of iterations: 1802 
   13200    42.288647      397          268          129 2.6830996e-13 1.2339139e-14          0.1 0.0090048148    12.893797  0.029891978 
number of iterations: 1840 
   13300    42.524028      403          273          130 2.7186565e-13 1.2389529e-14          0.1 0.0090048881    13.101261  0.029891856 
number of iterations: 1810 
   13400     42.75386      410          279          131 2.7546846e-13 1.2440334e-14          0.1 0.0090049487    13.311482  0.029891755 
number of iterations: 1875 
   13500     42.96392      420          287          133 2.7911901e-13 1.2491556e-14          0.1 0.0090050165    13.524497  0.029891643 
number of iterations: 1801 
   13600    43.159245      423          290          133 2.8281795e-13 1.2543195e-14          0.1 0.0090050812    13.740343  0.029891535 
number of iterations: 1846 
   13700    43.356365      428          295          133 2.865659e-13 1.2595253e-14          0.1 0.0090051527    13.959057  0.029891416 
number of iterations: 1796 
   13800    43.545841      430          297          133 2.9036352e-13 1.2647729e-14          0.1 0.0090052185    14.180679  0.029891306 
number of iterations: 1839 
   13900    43.744989      433          300          133 2.9421147e-13 1.2700626e-14          0.1 0.0090052799    14.405246  0.029891204 
number of iterations: 1814 
   14000    43.948219      435          301          134 2.9811041e-13 1.2753944e-14          0.1 0.0090053454    14.632797  0.029891095 
number of iterations: 1834 
   14100    44.175928      437          303          134 3.0206102e-13 1.2807685e-14          0.1 0.0090054163    14.863373  0.029890977 
number of iterations: 1832 
   14200    44.369876      441          307          134 3.0606398e-13 1.286185e-14          0.1 0.0090054866    15.097014   0.02989086 
number of iterations: 1850 
   14300    44.578189      446          312          134 3.1011999e-13 1.2916439e-14          0.1 0.0090055591     15.33376  0.029890739 
number of iterations: 1879 
   14400    44.794418      450          316          134 3.1422976e-13 1.2971453e-14          0.1 0.0090056364    15.573653   0.02989061 
number of iterations: 1844 
   14500     44.99654      451          316          135 3.1839398e-13 1.3026895e-14          0.1 0.0090057111    15.816735  0.029890486 
number of iterations: 1844 
   14600    45.197055      457          320          137 3.2261339e-13 1.3082765e-14          0.1 0.0090057859    16.063046  0.029890361 
number of iterations: 1916 
   14700    45.414028      464          327          137 3.2688872e-13 1.3139064e-14          0.1 0.0090058737    16.312632  0.029890215 
number of iterations: 1832 
   14800    45.605647      471          333          138 3.312207e-13 1.3195794e-14          0.1 0.0090059462    16.565535  0.029890094 
number of iterations: 1864 
   14900    45.804692      473          335          138 3.3561009e-13 1.3252955e-14          0.1 0.0090060318      16.8218  0.029889952 
number of iterations: 1836 
   15000    45.997801      477          338          139 3.4005765e-13 1.3310549e-14          0.1 0.0090061063    17.081471  0.029889827 
number of iterations: 1854 
   15100    46.226799      482          343          139 3.4456415e-13 1.3368577e-14          0.1  0.009006189    17.344593   0.02988969 
number of iterations: 1882 
   15200    46.436257      484          344          140 3.4913037e-13 1.3427041e-14          0.1 0.0090062754    17.611213  0.029889546 
number of iterations: 1872 
   15300    46.643047      488          348          140 3.5375711e-13 1.3485941e-14          0.1 0.0090063646    17.881377  0.029889397 
number of iterations: 1879 
   15400    46.845917      491          350          141 3.5844515e-13 1.3545279e-14          0.1 0.0090064436     18.15513  0.029889266 
number of iterations: 1855 
   15500    47.037175      493          352          141 3.6319533e-13 1.3605057e-14          0.1 0.0090065282    18.432521  0.029889125 
number of iterations: 1920 
   15600    47.234981      497          356          141 3.6800845e-13 1.3665275e-14          0.1 0.0090066243      18.7136  0.029888965 
number of iterations: 1850 
   15700    47.437847      507          364          143 3.7288536e-13 1.3725936e-14          0.1 0.0090067027    18.998414  0.029888834 
number of iterations: 1847 
   15800    47.631113      511          367          144 3.7782689e-13 1.378704e-14          0.1 0.0090067783    19.287013  0.029888708 
number of iterations: 1879 
   15900    47.842331      515          370          145 3.8283391e-13 1.3848589e-14          0.1 0.0090068676    19.579447  0.029888559 
number of iterations: 1889 
   16000    48.055612      522          375          147 3.8790729e-13 1.3910585e-14          0.1 0.0090069564    19.875767  0.029888412 
number of iterations: 1928 
   16100      48.2798      532          384          148 3.930479e-13 1.3973028e-14          0.1 0.0090070607    20.176024  0.029888238 
number of iterations: 1888 
   16200    48.480112      535          387          148 3.9825663e-13 1.403592e-14          0.1 0.0090071528    20.480271  0.029888084 
number of iterations: 1869 
   16300    48.693092      538          390          148 4.0353439e-13 1.4099263e-14          0.1 0.0090072423    20.788562  0.029887935 
number of iterations: 1924 
   16400    48.902375      542          394          148 4.0888209e-13 1.4163059e-14          0.1 0.0090073509    21.100949  0.029887755 
number of iterations: 1911 
   16500    49.139468      550          401          149 4.1430065e-13 1.4227308e-14          0.1 0.0090074507    21.417488  0.029887588 
number of iterations: 1905 
   16600     49.34717      554          405          149 4.1979103e-13 1.4292012e-14          0.1 0.0090075509    21.738233  0.029887421 
number of iterations: 1924 
   16700     49.53959      558          409          149 4.2535416e-13 1.4357174e-14          0.1 0.0090076564    22.063242  0.029887246 
number of iterations: 1884 
   16800    49.736077      562          412          150 4.3099102e-13 1.4422793e-14          0.1 0.0090077456    22.392567  0.029887097 
number of iterations: 1908 
   16900    49.952914      566          415          151 4.3670258e-13 1.4488873e-14          0.1 0.0090078534    22.726268  0.029886918 
number of iterations: 1894 
   17000    50.151442      570          419          151 4.4248982e-13 1.4555413e-14          0.1 0.0090079479    23.064404   0.02988676 
number of iterations: 1936 
   17100    50.390878      578          427          151 4.4835376e-13 1.4622418e-14          0.1 0.0090080606    23.407033  0.029886573 
number of iterations: 1911 
   17200    50.610145      588          437          151 4.5429541e-13 1.4689886e-14          0.1 0.0090081677    23.754215  0.029886394 
number of iterations: 1952 
   17300    50.825525      598          445          153 4.603158e-13 1.4757822e-14          0.1 0.0090082766    24.106011  0.029886213 
number of iterations: 1932 
   17400    51.048832      603          447          156 4.6641598e-13 1.4826226e-14          0.1 0.0090083899     24.46248  0.029886024 
number of iterations: 1957 
   17500    51.250029      610          453          157 4.7259699e-13 1.4895099e-14          0.1 0.0090085099    24.823688  0.029885824 
number of iterations: 1938 
   17600     51.44848      623          466          157 4.7885991e-13 1.4964444e-14          0.1 0.0090086314    25.189696  0.029885622 
number of iterations: 1970 
   17700    51.657107      631          472          159 4.8520583e-13 1.5034263e-14          0.1  0.009008747    25.560566  0.029885429 
number of iterations: 1936 
   17800    51.857039      640          479          161 4.9163585e-13 1.5104556e-14          0.1 0.0090088623    25.936368  0.029885237 
number of iterations: 1950 
   17900    52.066889      650          489          161 4.9815107e-13 1.5175327e-14          0.1 0.0090089846    26.317162  0.029885034 
number of iterations: 1911 
   18000    52.292302      660          498          162 5.0475264e-13 1.5246575e-14          0.1 0.0090090915    26.703015  0.029884856 
number of iterations: 1934 
   18100    52.511223      668          505          163 5.1144169e-13 1.5318304e-14          0.1 0.0090091987    27.093994  0.029884677 
number of iterations: 1961 
   18200    52.763366      677          514          163 5.1821939e-13 1.5390515e-14          0.1  0.009009325    27.490166  0.029884467 
number of iterations: 1925 
   18300    52.958154      685          522          163 5.250869e-13 1.5463209e-14          0.1  0.009009441    27.891602  0.029884274 
number of iterations: 1958 
   18400    53.164072      696          533          163 5.3204543e-13 1.553639e-14          0.1 0.0090095656    28.298371  0.029884066 
number of iterations: 1951 
   18500    53.373879      702          538          164 5.3909616e-13 1.5610059e-14          0.1  0.009009688    28.710544  0.029883862 
number of iterations: 1967 
   18600    53.576544      714          547          167 5.4624034e-13 1.5684217e-14          0.1 0.0090098144    29.128193  0.029883652 
number of iterations: 1965 
   18700     53.79733      727          559          168 5.5347919e-13 1.5758866e-14          0.1 0.0090099366    29.551391  0.029883448 
number of iterations: 1966 
   18800    54.001424      736          568          168 5.6081397e-13 1.5834009e-14          0.1 0.0090100722    29.980213  0.029883222 
number of iterations: 1940 
   18900    54.203828      741          572          169 5.6824595e-13 1.5909647e-14          0.1 0.0090101903    30.414731  0.029883026 
number of iterations: 1973 
   19000    54.461088      752          581          171 5.7577642e-13 1.5985782e-14          0.1 0.0090103207    30.855021  0.029882809 
number of iterations: 1991 
   19100    54.665384      760          587          173 5.8340668e-13 1.6062418e-14          0.1 0.0090104546     31.30116  0.029882586 
number of iterations: 1938 
   19200    54.849644      773          599          174 5.9113806e-13 1.6139554e-14          0.1 0.0090105866    31.753226  0.029882366 
number of iterations: 1963 
   19300    55.046368      781          607          174 5.989719e-13 1.6217194e-14          0.1 0.0090107231    32.211299  0.029882138 
number of iterations: 2018 
   19400    55.265355      790          614          176 6.0690955e-13 1.6295339e-14          0.1 0.0090108794    32.675456  0.029881878 
number of iterations: 1976 
   19500    55.473152      796          619          177 6.1495239e-13 1.6373991e-14          0.1 0.0090110212     33.14578  0.029881642 
number of iterations: 1960 
   19600    55.678292      803          626          177 6.2310182e-13 1.6453153e-14          0.1 0.0090111601    33.622351  0.029881411 
number of iterations: 1987 
   19700    55.874229      813          636          177 6.3135924e-13 1.6532826e-14          0.1 0.0090113032    34.105253  0.029881172 
number of iterations: 2018 
   19800    56.084754      822          645          177 6.3972609e-13 1.6613013e-14          0.1 0.0090114563    34.594568  0.029880917 
number of iterations: 2000 
   19900    56.338215      829          650          179 6.4820382e-13 1.6693716e-14          0.1 0.0090116026    35.090383  0.029880674 
number of iterations: 1994 
   20000    56.542841      836          656          180 6.5679389e-13 1.6774936e-14          0.1 0.0090117606    35.592784  0.029880411 
number of iterations: 2021 
   20100    56.763859      841          661          180 6.654978e-13 1.6856678e-14          0.1 0.0090119264    36.101859  0.029880134 
number of iterations: 2004 
   20200    56.961527      850          669          181 6.7431706e-13 1.6938941e-14          0.1  0.009012092    36.617697  0.029879859 
number of iterations: 2008 
   20300    57.169534      860          678          182 6.8325318e-13 1.7021729e-14          0.1 0.0090122395    37.140386  0.029879613 
number of iterations: 2003 
   20400    57.389573      869          687          182 6.9230773e-13 1.7105043e-14          0.1 0.0090123976    37.670018   0.02987935 
number of iterations: 2045 
   20500     57.66282      876          694          182 7.0148228e-13 1.7188887e-14          0.1 0.0090125655    38.206685   0.02987907 
number of iterations: 2015 
   20600    57.876013      880          697          183 7.107784e-13 1.7273261e-14          0.1 0.0090127333     38.75048  0.029878791 
number of iterations: 1983 
   20700    58.109324      884          701          183 7.2019771e-13 1.7358169e-14          0.1 0.0090128892    39.301498  0.029878531 
number of iterations: 2022 
   20800     58.32409      894          710          184 7.2974185e-13 1.7443613e-14          0.1 0.0090130571    39.859834  0.029878251 
number of iterations: 2028 
   20900    58.572445      901          715          186 7.3941247e-13 1.7529595e-14          0.1 0.0090132332    40.425585  0.029877958 
number of iterations: 2030 
   21000    58.813751      916          728          188 7.4921124e-13 1.7616117e-14          0.1 0.0090134115     40.99885  0.029877661 
number of iterations: 2019 
   21100    59.054112      929          740          189 7.5913987e-13 1.7703181e-14          0.1 0.0090135833    41.579729  0.029877375 
number of iterations: 2045 
   21200    59.323782      938          749          189 7.6920007e-13 1.779079e-14          0.1 0.0090137671    42.168325  0.029877069 
number of iterations: 2061 
   21300    59.550635      953          764          189 7.7939359e-13 1.7878947e-14          0.1 0.0090139438    42.764736  0.029876775 
number of iterations: 2043 
   21400    59.787209      959          769          190 7.8972219e-13 1.7967654e-14          0.1 0.0090141381    43.369066  0.029876451 
number of iterations: 2037 
   21500    60.009198      969          776          193 8.0018767e-13 1.8056912e-14          0.1 0.0090143112    43.981422  0.029876163 
number of iterations: 2001 
   21600    60.224303      984          789          195 8.1079183e-13 1.8146725e-14          0.1 0.0090144884    44.601912  0.029875868 
number of iterations: 2008 
   21700    60.439433      995          800          195 8.2153653e-13 1.8237095e-14          0.1 0.0090146522    45.230641  0.029875595 
number of iterations: 2032 
   21800    60.677489      999          804          195 8.3242361e-13 1.8328025e-14          0.1 0.0090148296    45.867719    0.0298753 
number of iterations: 2048 
   21900    60.886298     1016          818          198 8.4345496e-13 1.8419516e-14          0.1 0.0090150302    46.513259  0.029874966 
number of iterations: 2074 
   22000    61.110253     1028          829          199 8.5463251e-13 1.8511572e-14          0.1 0.0090152393    47.167371  0.029874617 
number of iterations: 2058 
   22100    61.327923     1038          839          199 8.6595818e-13 1.8604195e-14          0.1 0.0090154364    47.830169  0.029874289 
number of iterations: 2043 
   22200    61.566018     1049          850          199 8.7743393e-13 1.8697387e-14          0.1 0.0090156307    48.501769  0.029873966 
number of iterations: 2047 
   22300    61.785066     1059          859          200 8.8906177e-13 1.8791152e-14          0.1 0.0090158289     49.18229  0.029873636 
number of iterations: 2078 
   22400    61.990318     1074          873          201 9.0084369e-13 1.8885492e-14          0.1 0.0090160297    49.871848  0.029873301 
number of iterations: 2040 
   22500    62.198737     1087          885          202 9.1278175e-13 1.8980408e-14          0.1 0.0090162446    50.570563  0.029872943 
number of iterations: 2078 
   22600    62.449961     1101          899          202 9.2487801e-13 1.9075905e-14          0.1 0.0090164634    51.278556  0.029872579 
number of iterations: 2046 
   22700    62.727932     1115          912          203 9.3713458e-13 1.9171985e-14          0.1  0.009016672    51.995949  0.029872231 
number of iterations: 2088 
   22800    62.967478     1136          932          204 9.4955356e-13 1.9268649e-14          0.1  0.009016906    52.722867  0.029871842 
number of iterations: 2080 
   22900    63.192655     1145          939          206 9.6213712e-13 1.9365902e-14          0.1 0.0090171133    53.459438  0.029871497 
number of iterations: 2078 
   23000    63.418001     1162          956          206 9.7488744e-13 1.9463745e-14          0.1 0.0090173341     54.20579  0.029871129 
number of iterations: 2076 
   23100    63.675995     1176          967          209 9.8780672e-13 1.9562182e-14          0.1 0.0090175634    54.962053  0.029870747 
number of iterations: 2089 
   23200    63.909602     1199          988          211 1.0008972e-12 1.9661215e-14          0.1 0.0090177942    55.728356  0.029870363 
number of iterations: 2090 
   23300    64.142002     1210          998          212 1.0141612e-12 1.9760847e-14          0.1 0.0090180364    56.504834  0.029869959 
number of iterations: 2091 
   23400    64.369924     1231         1018          213 1.0276009e-12 1.9861081e-14          0.1   0.00901827    57.291621   0.02986957 
number of iterations: 2074 
   23500    64.602826     1258         1038          220 1.0412188e-12 1.9961919e-14          0.1  0.009018495    58.088855  0.029869196 
number of iterations: 2078 
   23600    64.839047     1268         1048          220 1.0550171e-12 2.0063365e-14          0.1 0.0090187267    58.896673   0.02986881 
number of iterations: 2117 
   23700    65.085076     1282         1061          221 1.0689982e-12 2.0165421e-14          0.1 0.0090189757    59.715216  0.029868395 
number of iterations: 2097 
   23800    65.311418     1298         1076          222 1.0831646e-12 2.026809e-14          0.1 0.0090192068    60.544626   0.02986801 
number of iterations: 2115 
   23900    65.541869     1318         1094          224 1.0975188e-12 2.0371376e-14          0.1 0.0090194573    61.385047  0.029867593 
number of iterations: 2078 
   24000    65.766238     1334         1109          225 1.1120632e-12 2.0475279e-14          0.1 0.0090196922    62.236626  0.029867202 
number of iterations: 2092 
   24100    65.999649     1359         1132          227 1.1268003e-12 2.0579805e-14          0.1 0.0090199303    63.099508  0.029866805 
number of iterations: 2095 
   24200    66.225404     1372         1145          227 1.1417328e-12 2.0684955e-14          0.1 0.0090201744    63.973846  0.029866399 
number of iterations: 2074 
   24300    66.451866     1388         1161          227 1.1568631e-12 2.0790733e-14          0.1 0.0090204127     64.85979  0.029866002 
number of iterations: 2146 
   24400    66.671572     1402         1174          228 1.1721939e-12 2.0897141e-14          0.1 0.0090207052    65.757496  0.029865515 
number of iterations: 2156 
   24500    66.889272     1416         1186          230 1.1877279e-12 2.1004183e-14          0.1 0.0090210077    66.667117  0.029865011 
number of iterations: 2142 
   24600     67.13363     1429         1199          230 1.2034677e-12 2.1111862e-14          0.1 0.0090212895    67.588814  0.029864542 
number of iterations: 2142 
   24700    67.369183     1447         1216          231 1.2194161e-12 2.122018e-14          0.1 0.0090215796    68.522748  0.029864059 
number of iterations: 2136 
   24800    67.587819     1460         1229          231 1.2355759e-12 2.1329141e-14          0.1 0.0090218701    69.469082  0.029863575 
number of iterations: 2116 
   24900    67.864463     1480         1246          234 1.2519498e-12 2.1438748e-14          0.1 0.0090221462    70.427975  0.029863115 
number of iterations: 2140 
   25000     68.07938     1496         1260          236 1.2685407e-12 2.1549004e-14          0.1 0.0090224394    71.399597  0.029862627 
number of iterations: 2134 
   25100    68.311047     1513         1276          237 1.2853514e-12 2.1659911e-14          0.1 0.0090227153    72.384115  0.029862168 
number of iterations: 2155 
   25200    68.536406     1529         1291          238 1.3023849e-12 2.1771474e-14          0.1 0.0090230258    73.381705   0.02986165 
number of iterations: 2116 
   25300    68.800609     1545         1306          239 1.3196442e-12 2.1883695e-14          0.1 0.0090233022    74.392537   0.02986119 
number of iterations: 2135 
   25400    69.077811     1561         1321          240 1.3371322e-12 2.1996578e-14          0.1 0.0090235937    75.416788  0.029860705 
number of iterations: 2170 
   25500    69.352466     1581         1341          240 1.3548519e-12 2.2110125e-14          0.1 0.0090239226    76.454636  0.029860157 
number of iterations: 2143 
   25600    69.596612     1596         1356          240 1.3728064e-12 2.222434e-14          0.1 0.0090242316     77.50626  0.029859643 
number of iterations: 2149 
   25700    69.822642     1614         1373          241 1.3909989e-12 2.2339226e-14          0.1 0.0090245396    78.571843   0.02985913 
number of iterations: 2149 
   25800    70.050828     1629         1388          241 1.4094325e-12 2.2454787e-14          0.1 0.0090248527    79.651573  0.029858608 
number of iterations: 2174 
   25900    70.287602     1651         1410          241 1.4281103e-12 2.2571025e-14          0.1 0.0090252029    80.745634  0.029858025 
number of iterations: 2157 
   26000    70.512878     1667         1425          242 1.4470356e-12 2.2687945e-14          0.1 0.0090255458     81.85422  0.029857454 
number of iterations: 2154 
   26100    70.745914     1680         1437          243 1.4662118e-12 2.2805548e-14          0.1 0.0090258795     82.97752  0.029856898 
number of iterations: 2165 
   26200    70.987315     1704         1461          243 1.485642e-12 2.292384e-14          0.1 0.0090262111    84.115729  0.029856346 
number of iterations: 2182 
   26300    71.209645     1719         1475          244 1.5053298e-12 2.3042822e-14          0.1 0.0090265567    85.269045  0.029855771 
number of iterations: 2184 
   26400    71.475281     1735         1491          244 1.5252785e-12 2.3162499e-14          0.1 0.0090269027    86.437668  0.029855194 
number of iterations: 2170 
   26500    71.724658     1753         1508          245 1.5454915e-12 2.3282873e-14          0.1 0.0090272522    87.621803  0.029854612 
number of iterations: 2190 
   26600      71.9582     1773         1526          247 1.5659723e-12 2.3403949e-14          0.1 0.0090276245    88.821654  0.029853992 
number of iterations: 2201 
   26700    72.180973     1796         1547          249 1.5867246e-12 2.352573e-14          0.1 0.0090279957    90.037431  0.029853374 
number of iterations: 2182 
   26800     72.45406     1817         1567          250 1.6077519e-12 2.3648219e-14          0.1 0.0090283595    91.269343  0.029852768 
number of iterations: 2175 
   26900    72.808342     1839         1588          251 1.6290578e-12 2.377142e-14          0.1 0.0090287414    92.517605  0.029852133 
number of iterations: 2185 
   27000     73.04542     1866         1615          251 1.6493611e-12 2.3895337e-14          0.1 0.0090290846    93.781461  0.029851561 
number of iterations: 2184 
   27100     73.26976     1894         1641          253 1.6712184e-12 2.4019972e-14          0.1 0.0090294663    95.062089  0.029850925 
number of iterations: 2206 
   27200     73.51393     1918         1664          254 1.6933654e-12 2.4145329e-14          0.1 0.0090298827    96.359716  0.029850232 
number of iterations: 2179 
   27300    73.813721     1940         1686          254 1.7158058e-12 2.4271412e-14          0.1 0.0090302627    97.674564  0.029849599 
number of iterations: 2201 
   27400    74.045109     1959         1705          254 1.7385437e-12 2.4398225e-14          0.1  0.009030661    99.006861  0.029848936 
number of iterations: 2199 
   27500    74.298667     1990         1735          255 1.7615828e-12 2.4525772e-14          0.1 0.0090310587    100.35684  0.029848274 
number of iterations: 2190 
   27600     74.52625     2010         1752          258 1.7836643e-12 2.4654055e-14          0.1 0.0090314227    101.72378  0.029847667 
number of iterations: 2203 
   27700     74.77673     2033         1773          260 1.8073014e-12 2.4783078e-14          0.1 0.0090318138    103.10886  0.029847016 
number of iterations: 2205 
   27800    75.008508     2054         1793          261 1.8312517e-12 2.4912846e-14          0.1 0.0090322052    104.51232  0.029846364 
number of iterations: 2204 
   27900    75.246083     2076         1813          263 1.8555194e-12 2.5043361e-14          0.1 0.0090326234    105.93441  0.029845668 
number of iterations: 2224 
   28000    75.496071     2111         1843          268 1.8801087e-12 2.5174629e-14          0.1 0.0090330592    107.37536  0.029844942 
number of iterations: 2218 
   28100    75.732874     2142         1873          269 1.9050238e-12 2.5306652e-14          0.1 0.0090335156    108.83544  0.029844182 
number of iterations: 2218 
   28200     75.99088     2175         1905          270 1.9302691e-12 2.5439434e-14          0.1 0.0090339398    110.31489  0.029843476 
number of iterations: 2207 
   28300    76.250192     2200         1930          270 1.955849e-12 2.557298e-14          0.1 0.0090343822    111.81397  0.029842739 
number of iterations: 2198 
   28400     76.48176     2231         1960          271 1.9817678e-12 2.5707292e-14          0.1 0.0090348106    113.33295  0.029842026 
number of iterations: 2244 
   28500    76.736969     2256         1985          271 2.0080301e-12 2.5842376e-14          0.1 0.0090352748    114.87209  0.029841253 
number of iterations: 2228 
   28600    76.999043     2294         2020          274 2.0346405e-12 2.5978235e-14          0.1 0.0090357168    116.43165  0.029840517 
number of iterations: 2227 
   28700    77.234427     2318         2043          275 2.0616034e-12 2.6114872e-14          0.1 0.0090361745     118.0119  0.029839754 
number of iterations: 2227 
   28800    77.476258     2348         2071          277 2.0889237e-12 2.6252292e-14          0.1   0.00903663    119.61312  0.029838996 
number of iterations: 2255 
   28900     77.76689     2369         2088          281 2.116606e-12 2.6390498e-14          0.1 0.0090371308    121.23558  0.029838162 
number of iterations: 2252 
   29000    78.051835     2405         2121          284 2.1446552e-12 2.6529496e-14          0.1 0.0090376346    122.87958  0.029837323 
number of iterations: 2266 
   29100    78.293808     2435         2149          286 2.173076e-12 2.6669288e-14          0.1 0.0090381592    124.54539   0.02983645 
number of iterations: 2227 
   29200    78.551915     2467         2179          288 2.2018735e-12 2.6809879e-14          0.1 0.0090386381    126.23331  0.029835652 
number of iterations: 2257 
   29300    78.823048     2504         2215          289 2.2310526e-12 2.6951272e-14          0.1 0.0090391422    127.94362  0.029834813 
number of iterations: 2242 
   29400    79.107398     2534         2244          290 2.2606183e-12 2.7093473e-14          0.1 0.0090395954    129.67663  0.029834058 
number of iterations: 2277 
   29500    79.413748     2568         2277          291 2.2905759e-12 2.7236485e-14          0.1 0.0090401504    131.43263  0.029833134 
number of iterations: 2237 
   29600    79.671688     2595         2302          293 2.3209304e-12 2.7380311e-14          0.1  0.009040647    133.21194  0.029832307 
number of iterations: 2269 
   29700    79.942286     2619         2323          296 2.3516872e-12 2.7524958e-14          0.1 0.0090411682    135.01485  0.029831439 
number of iterations: 2271 
   29800    80.238511     2666         2369          297 2.3828516e-12 2.7670427e-14          0.1 0.0090417347    136.84169  0.029830496 
number of iterations: 2252 
   29900    80.482667     2698         2398          300 2.4132181e-12 2.7816725e-14          0.1 0.0090422018    138.69184  0.029829718 
number of iterations: 2289 
   30000    80.759231     2730         2429          301 2.4451978e-12 2.7963854e-14          0.1 0.0090428014    140.56653  0.029828719 
number of iterations: 2282 
   30100    81.019898     2767         2462          305 2.4776014e-12 2.8111821e-14          0.1 0.0090433542     142.4661  0.029827799 
number of iterations: 2245 
   30200    81.283659     2801         2494          307 2.5104343e-12 2.8260627e-14          0.1 0.0090438864    144.39089  0.029826912 
number of iterations: 2282 
   30300    81.545688     2826         2519          307 2.5437024e-12 2.8410279e-14          0.1 0.0090444628     146.3412  0.029825953 
number of iterations: 2300 
   30400    81.795845     2859         2551          308 2.5774113e-12 2.8560779e-14          0.1 0.0090450529    148.31739   0.02982497 
number of iterations: 2298 
   30500    82.060477     2894         2585          309 2.6115668e-12 2.8712134e-14          0.1 0.0090456497    150.31979  0.029823976 
number of iterations: 2283 
   30600    82.368201     2925         2616          309 2.646175e-12 2.8864347e-14          0.1  0.009046231    152.34877  0.029823008 
number of iterations: 2264 
   30700    82.632469     2949         2638          311 2.6812419e-12 2.9017422e-14          0.1  0.009046804    154.40467  0.029822054 
number of iterations: 2294 
   30800    82.924613     2982         2668          314 2.7167734e-12 2.9171364e-14          0.1  0.009047401    156.48784   0.02982106 
number of iterations: 2280 
   30900    83.186643     3021         2704          317 2.7527758e-12 2.9326177e-14          0.1 0.0090480194    158.59864   0.02982003 
number of iterations: 2285 
   31000    83.446808     3053         2732          321 2.788176e-12 2.9481867e-14          0.1 0.0090486314    160.73664  0.029819011 
number of iterations: 2296 
   31100    83.716398     3093         2771          322 2.8242139e-12 2.9638437e-14          0.1 0.0090492624     162.9023   0.02981796 
number of iterations: 2304 
   31200    84.003685     3129         2806          323 2.8603702e-12 2.9795892e-14          0.1 0.0090498495    165.09572  0.029816983 
number of iterations: 2315 
   31300    84.266387     3164         2841          323 2.8982755e-12 2.9954236e-14          0.1 0.0090504931    167.31825  0.029815911 
number of iterations: 2324 
   31400    84.574737     3203         2879          324 2.936683e-12 3.0113475e-14          0.1 0.0090511798    169.57025  0.029814767 
number of iterations: 2309 
   31500    84.845472     3251         2926          325 2.9755995e-12 3.0273613e-14          0.1 0.0090518703    171.85214  0.029813617 
number of iterations: 2289 
   31600    85.101952     3300         2974          326 3.0150318e-12 3.0434654e-14          0.1 0.0090525091     174.1643  0.029812554 
number of iterations: 2300 
   31700    85.354075     3332         3006          326 3.0526956e-12 3.0596604e-14          0.1  0.009053186    176.50537  0.029811427 
number of iterations: 2333 
   31800    85.622503     3372         3044          328 3.0931495e-12 3.0759467e-14          0.1 0.0090538953     178.8775  0.029810245 
number of iterations: 2307 
   31900    85.893098     3418         3086          332 3.1341394e-12 3.0923247e-14          0.1 0.0090545621     181.2811  0.029809135 
number of iterations: 2322 
   32000    86.166963     3462         3128          334 3.1747961e-12 3.108795e-14          0.1 0.0090552932    183.71592  0.029807918 
number of iterations: 2312 
   32100    86.438859     3495         3160          335 3.216868e-12 3.125358e-14          0.1 0.0090559373    186.18305  0.029806845 
number of iterations: 2323 
   32200    86.737268     3528         3193          335 3.2594974e-12 3.1420142e-14          0.1 0.0090566366     188.6829  0.029805681 
number of iterations: 2328 
   32300    87.018905     3574         3235          339 3.3026917e-12 3.1587641e-14          0.1 0.0090573748    191.21591  0.029804451 
number of iterations: 2319 
   32400    87.298684     3629         3290          339 3.3450274e-12 3.1756082e-14          0.1 0.0090580584    193.78144  0.029803313 
number of iterations: 2341 
   32500     87.58692     3665         3324          341 3.3893551e-12 3.192547e-14          0.1 0.0090588221      196.381  0.029802041 
number of iterations: 2325 
   32600    87.887276     3721         3378          343  3.43312e-12 3.209581e-14          0.1 0.0090595571    199.01416  0.029800818 
number of iterations: 2321 
   32700    88.167317     3776         3431          345 3.4786151e-12 3.2267107e-14          0.1 0.0090603085    201.68226  0.029799566 
number of iterations: 2341 
   32800    88.432184     3824         3478          346 3.5247131e-12 3.2439365e-14          0.1 0.0090610692    204.38575    0.0297983 
number of iterations: 2327 
   32900     88.70325     3861         3515          346 3.5704257e-12 3.261259e-14          0.1 0.0090618217    207.12434  0.029797046 
number of iterations: 2349 
   33000    89.064734     3908         3561          347 3.6177403e-12 3.2786788e-14          0.1 0.0090626487    209.89925  0.029795669 
number of iterations: 2355 
   33100    89.387525     3952         3603          349 3.6656819e-12 3.2961963e-14          0.1 0.0090634416    212.71098  0.029794349 
number of iterations: 2347 
   33200    89.670135     4010         3658          352 3.7131201e-12 3.3138119e-14          0.1 0.0090642269    215.55912  0.029793041 
number of iterations: 2377 
   33300    89.965713     4063         3707          356 3.7623256e-12 3.3315264e-14          0.1 0.0090650974    218.44506  0.029791592 
number of iterations: 2364 
   33400    90.231507     4114         3757          357 3.8121832e-12 3.3493401e-14          0.1 0.0090659352    221.36928  0.029790197 
number of iterations: 2381 
   33500    90.496189     4166         3806          360 3.8627014e-12 3.3672536e-14          0.1 0.0090667422    224.33229  0.029788853 
number of iterations: 2358 
   33600    90.752781     4214         3852          362 3.913889e-12 3.3852674e-14          0.1 0.0090676025     227.3346   0.02978742 
number of iterations: 2352 
   33700    91.091131     4268         3904          364 3.965755e-12 3.4033821e-14          0.1 0.0090684316    230.37673   0.02978604 
number of iterations: 2397 
   33800    91.383345     4336         3971          365 4.0183083e-12 3.4215981e-14          0.1 0.0090693645    233.45921  0.029784486 
number of iterations: 2371 
   33900    91.653504     4388         4021          367 4.071558e-12 3.4399161e-14          0.1 0.0090702801    236.58258  0.029782962 
number of iterations: 2346 
   34000    91.947615     4439         4071          368 4.1255133e-12 3.4583366e-14          0.1 0.0090711289    239.74738  0.029781548 
number of iterations: 2375 
   34100    92.239052     4495         4126          369 4.1801835e-12  3.47686e-14          0.1 0.0090720088    242.95417  0.029780083 
number of iterations: 2362 
   34200    92.542983     4559         4188          371 4.234466e-12 3.495487e-14          0.1 0.0090728906    246.20263  0.029778615 
number of iterations: 2371 
   34300    92.891344     4619         4243          376 4.2905801e-12 3.514218e-14          0.1 0.0090738013    249.49416  0.029777098 
number of iterations: 2384 
   34400    93.230157     4688         4312          376 4.3474378e-12 3.5330537e-14          0.1 0.0090747492     252.8294   0.02977552 
number of iterations: 2367 
   34500    93.504602     4753         4372          381 4.4038299e-12 3.5519946e-14          0.1 0.0090756304    256.20795  0.029774052 
number of iterations: 2377 
   34600    93.780612     4802         4421          381 4.460453e-12 3.5710412e-14          0.1 0.0090765553       259.63  0.029772512 
number of iterations: 2403 
   34700    94.085936     4862         4477          385 4.5195617e-12 3.5901942e-14          0.1 0.0090775627    263.09744  0.029770835 
number of iterations: 2422 
   34800     94.37805     4920         4534          386 4.5794537e-12 3.609454e-14          0.1 0.0090786134    266.61088  0.029769085 
number of iterations: 2387 
   34900    94.671169     4986         4598          388 4.6401393e-12 3.6288213e-14          0.1 0.0090796136    270.17092  0.029767419 
number of iterations: 2386 
   35000    94.965614     5044         4654          390 4.6993512e-12 3.6482966e-14          0.1 0.0090805496    273.77643  0.029765861 
Loop time of 94.9657 on 32 procs for 35000 steps with 5044 atoms

Performance: 318430924.378 tau/day, 368.554 timesteps/s
92.4% CPU use with 32 MPI tasks x no OpenMP threads

MPI task timing breakdown:
Section |  min time  |  avg time  |  max time  |%varavg| %total
---------------------------------------------------------------
Pair    | 0.016911   | 0.076511   | 0.31151    |  23.5 |  0.08
Neigh   | 0.0062219  | 0.022676   | 0.078674   |  11.2 |  0.02
Comm    | 0.09091    | 0.18114    | 0.31704    |  12.7 |  0.19
Output  | 22.157     | 22.157     | 22.166     |   0.0 | 23.33
Modify  | 71.821     | 71.864     | 71.975     |   0.4 | 75.67
Other   |            | 0.6647     |            |       |  0.70

Nlocal:    157.625 ave 473 max 37 min
Histogram: 6 9 6 3 2 3 1 0 0 2
Nghost:    98.6875 ave 220 max 32 min
Histogram: 2 8 9 2 2 3 2 2 0 2
Neighs:    584.781 ave 2079 max 119 min
Histogram: 11 8 5 2 3 0 1 0 0 2

Total # of neighbors = 18713
Ave neighs/atom = 3.70995
Neighbor list builds = 705
Dangerous builds = 0
Total wall time: 0:01:35
