ITEM: TIMESTEP
0
ITEM: NUMBER OF ATOMS
50
ITEM: BOX BOUNDS ff ff ff
0.0000000000000000e+00 1.0000000000000000e-04
0.0000000000000000e+00 1.0000000000000000e-04
0.0000000000000000e+00 5.0000000000000002e-05
ITEM: ATOMS id type diameter x y z 
41 1 1.65e-06 2.46e-05 4.88e-05 5.27e-06 
19 1 1.75e-06 2.67e-06 2.12e-05 8.83e-06 
40 1 1.64e-06 2.81e-05 3.92e-05 1e-05 
9 1 1.61e-06 2.58e-05 1.64e-05 1.34e-05 
10 1 1.72e-06 1.99e-05 4.68e-05 1.97e-05 
13 1 1.44e-06 4.53e-05 2.81e-05 2.04e-05 
39 1 1.47e-06 2.89e-05 1.48e-05 2.6e-05 
50 1 1.65e-06 5.01e-06 2.98e-05 3.03e-05 
47 1 1.53e-06 4.09e-05 2.73e-05 3.43e-05 
32 1 1.41e-06 2.07e-05 2.4e-05 3.71e-05 
1 1 1.9e-06 9.36e-06 1.66e-05 4.55e-05 
23 1 1.49e-06 2e-05 8.13e-05 8.05e-06 
42 1 1.52e-06 2.99e-05 5.78e-05 1.73e-05 
45 1 1.62e-06 6.49e-06 5.44e-05 2.34e-05 
43 1 1.64e-06 2.88e-05 5.25e-05 2.54e-05 
34 1 1.73e-06 3.19e-05 6.7e-05 2.56e-05 
38 1 1.55e-06 1.6e-05 8.76e-05 3.13e-05 
44 1 1.61e-06 1.33e-05 7.38e-05 3.52e-05 
20 1 1.65e-06 4.57e-05 6.41e-05 3.77e-05 
7 1 1.55e-06 2.7e-05 9.17e-05 4.22e-05 
35 1 1.47e-06 4.54e-05 8.57e-05 4.27e-05 
8 1 1.59e-06 3.84e-05 7.67e-05 4.59e-05 
27 1 1.47e-06 2.2e-05 8.42e-05 4.59e-05 
48 1 1.56e-06 5.4e-05 2.06e-05 1.16e-05 
33 1 1.58e-06 8.75e-05 4.04e-05 1.45e-05 
14 1 1.75e-06 6.49e-05 2.77e-05 1.74e-05 
22 1 1.8e-06 9.48e-05 3.64e-05 1.85e-05 
6 1 1.46e-06 7.52e-05 1.22e-05 1.99e-05 
26 1 1.83e-06 8.39e-05 3e-05 1.96e-05 
17 1 1.52e-06 8.94e-05 4.7e-05 2.09e-05 
2 1 1.58e-06 5.67e-05 1.2e-05 2.35e-05 
4 1 1.67e-06 7.27e-05 4.56e-05 2.72e-05 
28 1 1.52e-06 9.04e-05 3.99e-05 2.78e-05 
29 1 1.81e-06 9.54e-05 1.02e-05 3.84e-05 
21 1 1.73e-06 5.96e-05 2.59e-05 4.41e-05 
18 1 1.55e-06 5.47e-05 6.03e-06 4.51e-05 
30 1 1.43e-06 8.45e-05 7.39e-05 1.93e-06 
16 1 1.54e-06 6.18e-05 8.84e-05 2.14e-06 
36 1 1.83e-06 6.65e-05 7.19e-05 1.33e-05 
11 1 1.52e-06 7.18e-05 5.55e-05 1.68e-05 
25 1 1.86e-06 6.33e-05 8.25e-05 2.4e-05 
31 1 1.38e-06 9.59e-05 8.68e-05 3.68e-05 
5 1 1.55e-06 8.56e-05 6.89e-05 3.85e-05 
12 1 1.89e-06 7.82e-05 9.43e-05 3.89e-05 
49 1 1.57e-06 6.49e-05 9.78e-05 3.87e-05 
3 1 1.39e-06 9.35e-05 5.86e-05 4e-05 
37 1 1.78e-06 7.62e-05 6.44e-05 4.32e-05 
24 1 1.47e-06 7.01e-05 7.25e-05 4.38e-05 
46 1 1.48e-06 5.25e-05 6.87e-05 4.65e-05 
15 1 1.51e-06 7.66e-05 6.9e-05 4.78e-05 
ITEM: TIMESTEP
100
ITEM: NUMBER OF ATOMS
50
ITEM: BOX BOUNDS ff ff ff
0.0000000000000000e+00 1.0000000000000000e-04
0.0000000000000000e+00 1.0000000000000000e-04
0.0000000000000000e+00 5.0000000000000002e-05
ITEM: ATOMS id type diameter x y z 
41 1 1.65933e-06 2.46e-05 4.88e-05 5.27e-06 
19 1 1.75989e-06 2.67e-06 2.12e-05 8.83e-06 
40 1 1.64927e-06 2.81e-05 3.92e-05 1e-05 
9 1 1.6191e-06 2.58e-05 1.64e-05 1.34e-05 
10 1 1.72972e-06 1.99e-05 4.68e-05 1.97e-05 
13 1 1.44814e-06 4.53e-05 2.81e-05 2.04e-05 
39 1 1.47831e-06 2.89e-05 1.48e-05 2.6e-05 
50 1 1.65933e-06 5.01e-06 2.98e-05 3.03e-05 
47 1 1.53865e-06 4.09e-05 2.73e-05 3.43e-05 
32 1 1.41797e-06 2.07e-05 2.4e-05 3.71e-05 
1 1 1.91074e-06 9.36e-06 1.66e-05 4.55e-05 
23 1 1.49842e-06 2e-05 8.13e-05 8.05e-06 
42 1 1.52859e-06 2.99e-05 5.78e-05 1.73e-05 
45 1 1.62916e-06 6.49e-06 5.44e-05 2.34e-05 
43 1 1.64927e-06 2.88e-05 5.25e-05 2.54e-05 
34 1 1.73978e-06 3.19e-05 6.7e-05 2.56e-05 
38 1 1.55876e-06 1.6e-05 8.76e-05 3.13e-05 
44 1 1.6191e-06 1.33e-05 7.38e-05 3.52e-05 
20 1 1.65933e-06 4.57e-05 6.41e-05 3.77e-05 
7 1 1.55876e-06 2.7e-05 9.17e-05 4.22e-05 
35 1 1.47831e-06 4.54e-05 8.57e-05 4.27e-05 
8 1 1.59899e-06 3.84e-05 7.67e-05 4.59e-05 
27 1 1.47831e-06 2.2e-05 8.42e-05 4.59e-05 
48 1 1.56882e-06 5.4e-05 2.06e-05 1.16e-05 
33 1 1.58893e-06 8.75e-05 4.04e-05 1.45e-05 
14 1 1.75989e-06 6.49e-05 2.77e-05 1.74e-05 
22 1 1.81018e-06 9.48e-05 3.64e-05 1.85e-05 
6 1 1.46825e-06 7.52e-05 1.22e-05 1.99e-05 
26 1 1.84035e-06 8.39e-05 3e-05 1.96e-05 
17 1 1.52859e-06 8.94e-05 4.7e-05 2.09e-05 
2 1 1.58893e-06 5.67e-05 1.2e-05 2.35e-05 
4 1 1.67944e-06 7.27e-05 4.56e-05 2.72e-05 
28 1 1.52859e-06 9.04e-05 3.99e-05 2.78e-05 
29 1 1.82023e-06 9.54e-05 1.02e-05 3.84e-05 
21 1 1.73978e-06 5.96e-05 2.59e-05 4.41e-05 
18 1 1.55876e-06 5.47e-05 6.03e-06 4.51e-05 
30 1 1.43808e-06 8.45e-05 7.39e-05 1.93e-06 
16 1 1.54871e-06 6.18e-05 8.84e-05 2.14e-06 
36 1 1.84035e-06 6.65e-05 7.19e-05 1.33e-05 
11 1 1.52859e-06 7.18e-05 5.55e-05 1.68e-05 
25 1 1.87052e-06 6.33e-05 8.25e-05 2.4e-05 
31 1 1.3878e-06 9.59e-05 8.68e-05 3.68e-05 
5 1 1.55876e-06 8.56e-05 6.89e-05 3.85e-05 
12 1 1.90068e-06 7.82e-05 9.43e-05 3.89e-05 
49 1 1.57888e-06 6.49e-05 9.78e-05 3.87e-05 
3 1 1.39786e-06 9.35e-05 5.86e-05 4e-05 
37 1 1.79006e-06 7.62e-05 6.44e-05 4.32e-05 
24 1 1.47831e-06 7.01e-05 7.25e-05 4.38e-05 
46 1 1.48837e-06 5.25e-05 6.87e-05 4.65e-05 
15 1 1.51854e-06 7.66e-05 6.9e-05 4.78e-05 
ITEM: TIMESTEP
200
ITEM: NUMBER OF ATOMS
50
ITEM: BOX BOUNDS ff ff ff
0.0000000000000000e+00 1.0000000000000000e-04
0.0000000000000000e+00 1.0000000000000000e-04
0.0000000000000000e+00 5.0000000000000002e-05
ITEM: ATOMS id type diameter x y z 
41 1 1.66871e-06 2.46e-05 4.88e-05 5.27e-06 
19 1 1.76984e-06 2.67e-06 2.12e-05 8.83e-06 
40 1 1.6586e-06 2.81e-05 3.92e-05 1e-05 
9 1 1.62826e-06 2.58e-05 1.64e-05 1.34e-05 
10 1 1.7395e-06 1.99e-05 4.68e-05 1.97e-05 
13 1 1.45633e-06 4.53e-05 2.81e-05 2.04e-05 
39 1 1.48667e-06 2.89e-05 1.48e-05 2.6e-05 
50 1 1.66871e-06 5.01e-06 2.98e-05 3.03e-05 
47 1 1.54735e-06 4.09e-05 2.73e-05 3.43e-05 
32 1 1.42599e-06 2.07e-05 2.4e-05 3.71e-05 
1 1 1.92154e-06 9.36e-06 1.66e-05 4.55e-05 
23 1 1.50689e-06 2e-05 8.13e-05 8.05e-06 
42 1 1.53723e-06 2.99e-05 5.78e-05 1.73e-05 
45 1 1.63837e-06 6.49e-06 5.44e-05 2.34e-05 
43 1 1.6586e-06 2.88e-05 5.25e-05 2.54e-05 
34 1 1.74962e-06 3.19e-05 6.7e-05 2.56e-05 
38 1 1.56757e-06 1.6e-05 8.76e-05 3.13e-05 
44 1 1.62826e-06 1.33e-05 7.38e-05 3.52e-05 
20 1 1.66871e-06 4.57e-05 6.41e-05 3.77e-05 
7 1 1.56757e-06 2.7e-05 9.17e-05 4.22e-05 
35 1 1.48667e-06 4.54e-05 8.57e-05 4.27e-05 
8 1 1.60803e-06 3.84e-05 7.67e-05 4.59e-05 
27 1 1.48667e-06 2.2e-05 8.42e-05 4.59e-05 
48 1 1.57769e-06 5.4e-05 2.06e-05 1.16e-05 
33 1 1.59792e-06 8.75e-05 4.04e-05 1.45e-05 
14 1 1.76984e-06 6.49e-05 2.77e-05 1.74e-05 
22 1 1.82041e-06 9.48e-05 3.64e-05 1.85e-05 
6 1 1.47655e-06 7.52e-05 1.22e-05 1.99e-05 
26 1 1.85075e-06 8.39e-05 3e-05 1.96e-05 
17 1 1.53723e-06 8.94e-05 4.7e-05 2.09e-05 
2 1 1.59792e-06 5.67e-05 1.2e-05 2.35e-05 
4 1 1.68894e-06 7.27e-05 4.56e-05 2.72e-05 
28 1 1.53723e-06 9.04e-05 3.99e-05 2.78e-05 
29 1 1.83052e-06 9.54e-05 1.02e-05 3.84e-05 
21 1 1.74962e-06 5.96e-05 2.59e-05 4.41e-05 
18 1 1.56757e-06 5.47e-05 6.03e-06 4.51e-05 
30 1 1.44621e-06 8.45e-05 7.39e-05 1.93e-06 
16 1 1.55746e-06 6.18e-05 8.84e-05 2.14e-06 
36 1 1.85075e-06 6.65e-05 7.19e-05 1.33e-05 
11 1 1.53723e-06 7.18e-05 5.55e-05 1.68e-05 
25 1 1.88109e-06 6.33e-05 8.25e-05 2.4e-05 
31 1 1.39565e-06 9.59e-05 8.68e-05 3.68e-05 
5 1 1.56757e-06 8.56e-05 6.89e-05 3.85e-05 
12 1 1.91143e-06 7.82e-05 9.43e-05 3.89e-05 
49 1 1.5878e-06 6.49e-05 9.78e-05 3.87e-05 
3 1 1.40576e-06 9.35e-05 5.86e-05 4e-05 
37 1 1.80018e-06 7.62e-05 6.44e-05 4.32e-05 
24 1 1.48667e-06 7.01e-05 7.25e-05 4.38e-05 
46 1 1.49678e-06 5.25e-05 6.87e-05 4.65e-05 
15 1 1.52712e-06 7.66e-05 6.9e-05 4.78e-05 
ITEM: TIMESTEP
300
ITEM: NUMBER OF ATOMS
50
ITEM: BOX BOUNDS ff ff ff
0.0000000000000000e+00 1.0000000000000000e-04
0.0000000000000000e+00 1.0000000000000000e-04
0.0000000000000000e+00 5.0000000000000002e-05
ITEM: ATOMS id type diameter x y z 
41 1 1.67814e-06 2.46e-05 4.88e-05 5.27e-06 
19 1 1.77985e-06 2.67e-06 2.12e-05 8.83e-06 
40 1 1.66797e-06 2.81e-05 3.92e-05 1e-05 
9 1 1.63746e-06 2.58e-05 1.64e-05 1.34e-05 
10 1 1.74934e-06 1.99e-05 4.68e-05 1.97e-05 
13 1 1.46456e-06 4.53e-05 2.81e-05 2.04e-05 
39 1 1.49507e-06 2.89e-05 1.48e-05 2.6e-05 
50 1 1.67814e-06 5.01e-06 2.98e-05 3.03e-05 
47 1 1.5561e-06 4.09e-05 2.73e-05 3.43e-05 
32 1 1.43405e-06 2.07e-05 2.4e-05 3.71e-05 
1 1 1.93241e-06 9.36e-06 1.66e-05 4.55e-05 
23 1 1.51541e-06 2e-05 8.13e-05 8.05e-06 
42 1 1.54593e-06 2.99e-05 5.78e-05 1.73e-05 
45 1 1.64763e-06 6.49e-06 5.44e-05 2.34e-05 
43 1 1.66797e-06 2.88e-05 5.25e-05 2.54e-05 
34 1 1.75951e-06 3.19e-05 6.7e-05 2.56e-05 
38 1 1.57644e-06 1.6e-05 8.76e-05 3.13e-05 
44 1 1.63746e-06 1.33e-05 7.38e-05 3.52e-05 
20 1 1.67814e-06 4.57e-05 6.41e-05 3.77e-05 
7 1 1.57644e-06 2.7e-05 9.17e-05 4.22e-05 
35 1 1.49507e-06 4.54e-05 8.57e-05 4.27e-05 
8 1 1.61712e-06 3.84e-05 7.67e-05 4.59e-05 
27 1 1.49507e-06 2.2e-05 8.42e-05 4.59e-05 
48 1 1.58661e-06 5.4e-05 2.06e-05 1.16e-05 
33 1 1.60695e-06 8.75e-05 4.04e-05 1.45e-05 
14 1 1.77985e-06 6.49e-05 2.77e-05 1.74e-05 
22 1 1.8307e-06 9.48e-05 3.64e-05 1.85e-05 
6 1 1.4849e-06 7.52e-05 1.22e-05 1.99e-05 
26 1 1.86121e-06 8.39e-05 3e-05 1.96e-05 
17 1 1.54593e-06 8.94e-05 4.7e-05 2.09e-05 
2 1 1.60695e-06 5.67e-05 1.2e-05 2.35e-05 
4 1 1.69848e-06 7.27e-05 4.56e-05 2.72e-05 
28 1 1.54593e-06 9.04e-05 3.99e-05 2.78e-05 
29 1 1.84087e-06 9.54e-05 1.02e-05 3.84e-05 
21 1 1.75951e-06 5.96e-05 2.59e-05 4.41e-05 
18 1 1.57644e-06 5.47e-05 6.03e-06 4.51e-05 
30 1 1.45439e-06 8.45e-05 7.39e-05 1.93e-06 
16 1 1.56627e-06 6.18e-05 8.84e-05 2.14e-06 
36 1 1.86121e-06 6.65e-05 7.19e-05 1.33e-05 
11 1 1.54593e-06 7.18e-05 5.55e-05 1.68e-05 
25 1 1.89172e-06 6.33e-05 8.25e-05 2.4e-05 
31 1 1.40354e-06 9.59e-05 8.68e-05 3.68e-05 
5 1 1.57644e-06 8.56e-05 6.89e-05 3.85e-05 
12 1 1.92224e-06 7.82e-05 9.43e-05 3.89e-05 
49 1 1.59678e-06 6.49e-05 9.78e-05 3.87e-05 
3 1 1.41371e-06 9.35e-05 5.86e-05 4e-05 
37 1 1.81036e-06 7.62e-05 6.44e-05 4.32e-05 
24 1 1.49507e-06 7.01e-05 7.25e-05 4.38e-05 
46 1 1.50524e-06 5.25e-05 6.87e-05 4.65e-05 
15 1 1.53575e-06 7.66e-05 6.9e-05 4.78e-05 
ITEM: TIMESTEP
400
ITEM: NUMBER OF ATOMS
50
ITEM: BOX BOUNDS ff ff ff
0.0000000000000000e+00 1.0000000000000000e-04
0.0000000000000000e+00 1.0000000000000000e-04
0.0000000000000000e+00 5.0000000000000002e-05
ITEM: ATOMS id type diameter x y z 
41 1 1.68763e-06 2.46e-05 4.88e-05 5.27e-06 
19 1 1.78991e-06 2.67e-06 2.12e-05 8.83e-06 
40 1 1.6774e-06 2.81e-05 3.92e-05 1e-05 
9 1 1.64672e-06 2.58e-05 1.64e-05 1.34e-05 
10 1 1.75923e-06 1.99e-05 4.68e-05 1.97e-05 
13 1 1.47284e-06 4.53e-05 2.81e-05 2.04e-05 
39 1 1.50352e-06 2.89e-05 1.48e-05 2.6e-05 
50 1 1.68763e-06 5.01e-06 2.98e-05 3.03e-05 
47 1 1.56489e-06 4.09e-05 2.73e-05 3.43e-05 
32 1 1.44216e-06 2.07e-05 2.4e-05 3.71e-05 
1 1 1.94333e-06 9.36e-06 1.66e-05 4.55e-05 
23 1 1.52398e-06 2e-05 8.13e-05 8.05e-06 
42 1 1.55466e-06 2.99e-05 5.78e-05 1.73e-05 
45 1 1.65695e-06 6.49e-06 5.44e-05 2.34e-05 
43 1 1.6774e-06 2.88e-05 5.25e-05 2.54e-05 
34 1 1.76945e-06 3.19e-05 6.7e-05 2.56e-05 
38 1 1.58535e-06 1.6e-05 8.76e-05 3.13e-05 
44 1 1.64672e-06 1.33e-05 7.38e-05 3.52e-05 
20 1 1.68763e-06 4.57e-05 6.41e-05 3.77e-05 
7 1 1.58535e-06 2.7e-05 9.17e-05 4.22e-05 
35 1 1.50352e-06 4.54e-05 8.57e-05 4.27e-05 
8 1 1.62626e-06 3.84e-05 7.67e-05 4.59e-05 
27 1 1.50352e-06 2.2e-05 8.42e-05 4.59e-05 
48 1 1.59558e-06 5.4e-05 2.06e-05 1.16e-05 
33 1 1.61603e-06 8.75e-05 4.04e-05 1.45e-05 
14 1 1.78991e-06 6.49e-05 2.77e-05 1.74e-05 
22 1 1.84105e-06 9.48e-05 3.64e-05 1.85e-05 
6 1 1.4933e-06 7.52e-05 1.22e-05 1.99e-05 
26 1 1.87173e-06 8.39e-05 3e-05 1.96e-05 
17 1 1.55466e-06 8.94e-05 4.7e-05 2.09e-05 
2 1 1.61603e-06 5.67e-05 1.2e-05 2.35e-05 
4 1 1.70809e-06 7.27e-05 4.56e-05 2.72e-05 
28 1 1.55466e-06 9.04e-05 3.99e-05 2.78e-05 
29 1 1.85128e-06 9.54e-05 1.02e-05 3.84e-05 
21 1 1.76945e-06 5.96e-05 2.59e-05 4.41e-05 
18 1 1.58535e-06 5.47e-05 6.03e-06 4.51e-05 
30 1 1.46261e-06 8.45e-05 7.39e-05 1.93e-06 
16 1 1.57512e-06 6.18e-05 8.84e-05 2.14e-06 
36 1 1.87173e-06 6.65e-05 7.19e-05 1.33e-05 
11 1 1.55466e-06 7.18e-05 5.55e-05 1.68e-05 
25 1 1.90242e-06 6.33e-05 8.25e-05 2.4e-05 
31 1 1.41147e-06 9.59e-05 8.68e-05 3.68e-05 
5 1 1.58535e-06 8.56e-05 6.89e-05 3.85e-05 
12 1 1.9331e-06 7.82e-05 9.43e-05 3.89e-05 
49 1 1.60581e-06 6.49e-05 9.78e-05 3.87e-05 
3 1 1.4217e-06 9.35e-05 5.86e-05 4e-05 
37 1 1.82059e-06 7.62e-05 6.44e-05 4.32e-05 
24 1 1.50352e-06 7.01e-05 7.25e-05 4.38e-05 
46 1 1.51375e-06 5.25e-05 6.87e-05 4.65e-05 
15 1 1.54444e-06 7.66e-05 6.9e-05 4.78e-05 
ITEM: TIMESTEP
500
ITEM: NUMBER OF ATOMS
50
ITEM: BOX BOUNDS ff ff ff
0.0000000000000000e+00 1.0000000000000000e-04
0.0000000000000000e+00 1.0000000000000000e-04
0.0000000000000000e+00 5.0000000000000002e-05
ITEM: ATOMS id type diameter x y z 
41 1 1.69717e-06 2.46e-05 4.88e-05 5.27e-06 
19 1 1.80003e-06 2.67e-06 2.12e-05 8.83e-06 
40 1 1.68688e-06 2.81e-05 3.92e-05 1e-05 
9 1 1.65603e-06 2.58e-05 1.64e-05 1.34e-05 
10 1 1.76917e-06 1.99e-05 4.68e-05 1.97e-05 
13 1 1.48117e-06 4.53e-05 2.81e-05 2.04e-05 
39 1 1.51202e-06 2.89e-05 1.48e-05 2.6e-05 
50 1 1.69717e-06 5.01e-06 2.98e-05 3.03e-05 
47 1 1.57374e-06 4.09e-05 2.73e-05 3.43e-05 
32 1 1.45031e-06 2.07e-05 2.4e-05 3.71e-05 
1 1 1.95432e-06 9.36e-06 1.66e-05 4.55e-05 
23 1 1.5326e-06 2e-05 8.13e-05 8.05e-06 
42 1 1.56345e-06 2.99e-05 5.78e-05 1.73e-05 
45 1 1.66631e-06 6.49e-06 5.44e-05 2.34e-05 
43 1 1.68688e-06 2.88e-05 5.25e-05 2.54e-05 
34 1 1.77946e-06 3.19e-05 6.7e-05 2.56e-05 
38 1 1.59431e-06 1.6e-05 8.76e-05 3.13e-05 
44 1 1.65603e-06 1.33e-05 7.38e-05 3.52e-05 
20 1 1.69717e-06 4.57e-05 6.41e-05 3.77e-05 
7 1 1.59431e-06 2.7e-05 9.17e-05 4.22e-05 
35 1 1.51202e-06 4.54e-05 8.57e-05 4.27e-05 
8 1 1.63546e-06 3.84e-05 7.67e-05 4.59e-05 
27 1 1.51202e-06 2.2e-05 8.42e-05 4.59e-05 
48 1 1.6046e-06 5.4e-05 2.06e-05 1.16e-05 
33 1 1.62517e-06 8.75e-05 4.04e-05 1.45e-05 
14 1 1.80003e-06 6.49e-05 2.77e-05 1.74e-05 
22 1 1.85146e-06 9.48e-05 3.64e-05 1.85e-05 
6 1 1.50174e-06 7.52e-05 1.22e-05 1.99e-05 
26 1 1.88232e-06 8.39e-05 3e-05 1.96e-05 
17 1 1.56345e-06 8.94e-05 4.7e-05 2.09e-05 
2 1 1.62517e-06 5.67e-05 1.2e-05 2.35e-05 
4 1 1.71774e-06 7.27e-05 4.56e-05 2.72e-05 
28 1 1.56345e-06 9.04e-05 3.99e-05 2.78e-05 
29 1 1.86174e-06 9.54e-05 1.02e-05 3.84e-05 
21 1 1.77946e-06 5.96e-05 2.59e-05 4.41e-05 
18 1 1.59431e-06 5.47e-05 6.03e-06 4.51e-05 
30 1 1.47088e-06 8.45e-05 7.39e-05 1.93e-06 
16 1 1.58403e-06 6.18e-05 8.84e-05 2.14e-06 
36 1 1.88232e-06 6.65e-05 7.19e-05 1.33e-05 
11 1 1.56345e-06 7.18e-05 5.55e-05 1.68e-05 
25 1 1.91317e-06 6.33e-05 8.25e-05 2.4e-05 
31 1 1.41945e-06 9.59e-05 8.68e-05 3.68e-05 
5 1 1.59431e-06 8.56e-05 6.89e-05 3.85e-05 
12 1 1.94403e-06 7.82e-05 9.43e-05 3.89e-05 
49 1 1.61488e-06 6.49e-05 9.78e-05 3.87e-05 
3 1 1.42974e-06 9.35e-05 5.86e-05 4e-05 
37 1 1.83089e-06 7.62e-05 6.44e-05 4.32e-05 
24 1 1.51202e-06 7.01e-05 7.25e-05 4.38e-05 
46 1 1.52231e-06 5.25e-05 6.87e-05 4.65e-05 
15 1 1.55317e-06 7.66e-05 6.9e-05 4.78e-05 
ITEM: TIMESTEP
600
ITEM: NUMBER OF ATOMS
50
ITEM: BOX BOUNDS ff ff ff
0.0000000000000000e+00 1.0000000000000000e-04
0.0000000000000000e+00 1.0000000000000000e-04
0.0000000000000000e+00 5.0000000000000002e-05
ITEM: ATOMS id type diameter x y z 
41 1 1.70677e-06 2.46e-05 4.88e-05 5.27e-06 
19 1 1.81021e-06 2.67e-06 2.12e-05 8.83e-06 
40 1 1.69642e-06 2.81e-05 3.92e-05 1e-05 
9 1 1.66539e-06 2.58e-05 1.64e-05 1.34e-05 
10 1 1.77917e-06 1.99e-05 4.68e-05 1.97e-05 
13 1 1.48954e-06 4.53e-05 2.81e-05 2.04e-05 
39 1 1.52057e-06 2.89e-05 1.48e-05 2.6e-05 
50 1 1.70677e-06 5.01e-06 2.98e-05 3.03e-05 
47 1 1.58264e-06 4.09e-05 2.73e-05 3.43e-05 
32 1 1.45851e-06 2.07e-05 2.4e-05 3.71e-05 
1 1 1.96537e-06 9.36e-06 1.66e-05 4.55e-05 
23 1 1.54126e-06 2e-05 8.13e-05 8.05e-06 
42 1 1.57229e-06 2.99e-05 5.78e-05 1.73e-05 
45 1 1.67573e-06 6.49e-06 5.44e-05 2.34e-05 
43 1 1.69642e-06 2.88e-05 5.25e-05 2.54e-05 
34 1 1.78952e-06 3.19e-05 6.7e-05 2.56e-05 
38 1 1.60332e-06 1.6e-05 8.76e-05 3.13e-05 
44 1 1.66539e-06 1.33e-05 7.38e-05 3.52e-05 
20 1 1.70677e-06 4.57e-05 6.41e-05 3.77e-05 
7 1 1.60332e-06 2.7e-05 9.17e-05 4.22e-05 
35 1 1.52057e-06 4.54e-05 8.57e-05 4.27e-05 
8 1 1.6447e-06 3.84e-05 7.67e-05 4.59e-05 
27 1 1.52057e-06 2.2e-05 8.42e-05 4.59e-05 
48 1 1.61367e-06 5.4e-05 2.06e-05 1.16e-05 
33 1 1.63436e-06 8.75e-05 4.04e-05 1.45e-05 
14 1 1.81021e-06 6.49e-05 2.77e-05 1.74e-05 
22 1 1.86193e-06 9.48e-05 3.64e-05 1.85e-05 
6 1 1.51023e-06 7.52e-05 1.22e-05 1.99e-05 
26 1 1.89296e-06 8.39e-05 3e-05 1.96e-05 
17 1 1.57229e-06 8.94e-05 4.7e-05 2.09e-05 
2 1 1.63436e-06 5.67e-05 1.2e-05 2.35e-05 
4 1 1.72745e-06 7.27e-05 4.56e-05 2.72e-05 
28 1 1.57229e-06 9.04e-05 3.99e-05 2.78e-05 
29 1 1.87227e-06 9.54e-05 1.02e-05 3.84e-05 
21 1 1.78952e-06 5.96e-05 2.59e-05 4.41e-05 
18 1 1.60332e-06 5.47e-05 6.03e-06 4.51e-05 
30 1 1.4792e-06 8.45e-05 7.39e-05 1.93e-06 
16 1 1.59298e-06 6.18e-05 8.84e-05 2.14e-06 
36 1 1.89296e-06 6.65e-05 7.19e-05 1.33e-05 
11 1 1.57229e-06 7.18e-05 5.55e-05 1.68e-05 
25 1 1.92399e-06 6.33e-05 8.25e-05 2.4e-05 
31 1 1.42748e-06 9.59e-05 8.68e-05 3.68e-05 
5 1 1.60332e-06 8.56e-05 6.89e-05 3.85e-05 
12 1 1.95502e-06 7.82e-05 9.43e-05 3.89e-05 
49 1 1.62401e-06 6.49e-05 9.78e-05 3.87e-05 
3 1 1.43782e-06 9.35e-05 5.86e-05 4e-05 
37 1 1.84124e-06 7.62e-05 6.44e-05 4.32e-05 
24 1 1.52057e-06 7.01e-05 7.25e-05 4.38e-05 
46 1 1.53092e-06 5.25e-05 6.87e-05 4.65e-05 
15 1 1.56195e-06 7.66e-05 6.9e-05 4.78e-05 
ITEM: TIMESTEP
700
ITEM: NUMBER OF ATOMS
51
ITEM: BOX BOUNDS ff ff ff
0.0000000000000000e+00 1.0000000000000000e-04
0.0000000000000000e+00 1.0000000000000000e-04
0.0000000000000000e+00 5.0000000000000002e-05
ITEM: ATOMS id type diameter x y z 
41 1 1.71641e-06 2.46e-05 4.88e-05 5.27e-06 
19 1 1.82044e-06 2.67e-06 2.12e-05 8.83e-06 
40 1 1.70601e-06 2.81e-05 3.92e-05 1e-05 
9 1 1.6748e-06 2.58e-05 1.64e-05 1.34e-05 
10 1 1.78923e-06 1.99e-05 4.68e-05 1.97e-05 
13 1 1.49796e-06 4.53e-05 2.81e-05 2.04e-05 
39 1 1.52917e-06 2.89e-05 1.48e-05 2.6e-05 
50 1 1.71641e-06 5.01e-06 2.98e-05 3.03e-05 
47 1 1.59158e-06 4.09e-05 2.73e-05 3.43e-05 
32 1 1.46675e-06 2.07e-05 2.4e-05 3.71e-05 
1 1 1.64037e-06 8.83242e-06 1.647e-05 4.48863e-05 
51 1 1.48988e-06 9.83918e-06 1.67181e-05 4.60574e-05 
23 1 1.54997e-06 2e-05 8.13e-05 8.05e-06 
42 1 1.58118e-06 2.99e-05 5.78e-05 1.73e-05 
45 1 1.68521e-06 6.49e-06 5.44e-05 2.34e-05 
43 1 1.70601e-06 2.88e-05 5.25e-05 2.54e-05 
34 1 1.79963e-06 3.19e-05 6.7e-05 2.56e-05 
38 1 1.61239e-06 1.6e-05 8.76e-05 3.13e-05 
44 1 1.6748e-06 1.33e-05 7.38e-05 3.52e-05 
20 1 1.71641e-06 4.57e-05 6.41e-05 3.77e-05 
7 1 1.61239e-06 2.7e-05 9.17e-05 4.22e-05 
35 1 1.52917e-06 4.54e-05 8.57e-05 4.27e-05 
8 1 1.654e-06 3.84e-05 7.67e-05 4.59e-05 
27 1 1.52917e-06 2.2e-05 8.42e-05 4.59e-05 
48 1 1.62279e-06 5.4e-05 2.06e-05 1.16e-05 
33 1 1.6436e-06 8.75e-05 4.04e-05 1.45e-05 
14 1 1.82044e-06 6.49e-05 2.77e-05 1.74e-05 
22 1 1.87245e-06 9.48e-05 3.64e-05 1.85e-05 
6 1 1.51877e-06 7.52e-05 1.22e-05 1.99e-05 
26 1 1.90366e-06 8.39e-05 3e-05 1.96e-05 
17 1 1.58118e-06 8.94e-05 4.7e-05 2.09e-05 
2 1 1.6436e-06 5.67e-05 1.2e-05 2.35e-05 
4 1 1.73722e-06 7.27e-05 4.56e-05 2.72e-05 
28 1 1.58118e-06 9.04e-05 3.99e-05 2.78e-05 
29 1 1.88285e-06 9.54e-05 1.02e-05 3.84e-05 
21 1 1.79963e-06 5.96e-05 2.59e-05 4.41e-05 
18 1 1.61239e-06 5.47e-05 6.03e-06 4.51e-05 
30 1 1.48756e-06 8.45e-05 7.39e-05 1.93e-06 
16 1 1.60199e-06 6.18e-05 8.84e-05 2.14e-06 
36 1 1.90366e-06 6.65e-05 7.19e-05 1.33e-05 
11 1 1.58118e-06 7.18e-05 5.55e-05 1.68e-05 
25 1 1.93487e-06 6.33e-05 8.25e-05 2.4e-05 
31 1 1.43555e-06 9.59e-05 8.68e-05 3.68e-05 
5 1 1.61239e-06 8.56e-05 6.89e-05 3.85e-05 
12 1 1.96607e-06 7.82e-05 9.43e-05 3.89e-05 
49 1 1.63319e-06 6.49e-05 9.78e-05 3.87e-05 
3 1 1.44595e-06 9.35e-05 5.86e-05 4e-05 
37 1 1.85165e-06 7.62e-05 6.44e-05 4.32e-05 
24 1 1.52917e-06 7.01e-05 7.25e-05 4.38e-05 
46 1 1.53957e-06 5.25e-05 6.87e-05 4.65e-05 
15 1 1.57078e-06 7.66e-05 6.9e-05 4.78e-05 
ITEM: TIMESTEP
800
ITEM: NUMBER OF ATOMS
52
ITEM: BOX BOUNDS ff ff ff
0.0000000000000000e+00 1.0000000000000000e-04
0.0000000000000000e+00 1.0000000000000000e-04
0.0000000000000000e+00 5.0000000000000002e-05
ITEM: ATOMS id type diameter x y z 
41 1 1.72612e-06 2.46e-05 4.88e-05 5.27e-06 
19 1 1.83073e-06 2.67e-06 2.12e-05 8.83e-06 
40 1 1.71566e-06 2.81e-05 3.92e-05 1e-05 
9 1 1.68427e-06 2.58e-05 1.64e-05 1.34e-05 
10 1 1.79935e-06 1.99e-05 4.68e-05 1.97e-05 
13 1 1.50643e-06 4.53e-05 2.81e-05 2.04e-05 
39 1 1.53781e-06 2.89e-05 1.48e-05 2.6e-05 
50 1 1.72612e-06 5.01e-06 2.98e-05 3.03e-05 
47 1 1.60058e-06 4.09e-05 2.73e-05 3.43e-05 
32 1 1.47505e-06 2.07e-05 2.4e-05 3.71e-05 
1 1 1.64964e-06 8.83242e-06 1.647e-05 4.48863e-05 
51 1 1.4983e-06 9.83918e-06 1.67181e-05 4.60574e-05 
23 1 1.55874e-06 2e-05 8.13e-05 8.05e-06 
42 1 1.59012e-06 2.99e-05 5.78e-05 1.73e-05 
45 1 1.69473e-06 6.49e-06 5.44e-05 2.34e-05 
43 1 1.71566e-06 2.88e-05 5.25e-05 2.54e-05 
34 1 1.80981e-06 3.19e-05 6.7e-05 2.56e-05 
38 1 1.6215e-06 1.6e-05 8.76e-05 3.13e-05 
44 1 1.68427e-06 1.33e-05 7.38e-05 3.52e-05 
20 1 1.72612e-06 4.57e-05 6.41e-05 3.77e-05 
7 1 1.6215e-06 2.7e-05 9.17e-05 4.22e-05 
35 1 1.53781e-06 4.54e-05 8.57e-05 4.27e-05 
8 1 1.66335e-06 3.84e-05 7.67e-05 4.59e-05 
27 1 1.53781e-06 2.2e-05 8.42e-05 4.59e-05 
48 1 1.63197e-06 5.4e-05 2.06e-05 1.16e-05 
33 1 1.65289e-06 8.75e-05 4.04e-05 1.45e-05 
14 1 1.83073e-06 6.49e-05 2.77e-05 1.74e-05 
22 1 1.88304e-06 9.48e-05 3.64e-05 1.85e-05 
6 1 1.52735e-06 7.52e-05 1.22e-05 1.99e-05 
26 1 1.91442e-06 8.39e-05 3e-05 1.96e-05 
17 1 1.59012e-06 8.94e-05 4.7e-05 2.09e-05 
2 1 1.65289e-06 5.67e-05 1.2e-05 2.35e-05 
4 1 1.74704e-06 7.27e-05 4.56e-05 2.72e-05 
28 1 1.59012e-06 9.04e-05 3.99e-05 2.78e-05 
29 1 1.8935e-06 9.54e-05 1.02e-05 3.84e-05 
21 1 1.80981e-06 5.96e-05 2.59e-05 4.41e-05 
18 1 1.6215e-06 5.47e-05 6.03e-06 4.51e-05 
30 1 1.49597e-06 8.45e-05 7.39e-05 1.93e-06 
16 1 1.61104e-06 6.18e-05 8.84e-05 2.14e-06 
36 1 1.91442e-06 6.65e-05 7.19e-05 1.33e-05 
11 1 1.59012e-06 7.18e-05 5.55e-05 1.68e-05 
25 1 1.94581e-06 6.33e-05 8.25e-05 2.4e-05 
31 1 1.44366e-06 9.59e-05 8.68e-05 3.68e-05 
5 1 1.6215e-06 8.56e-05 6.89e-05 3.85e-05 
12 1 1.64096e-06 7.76722e-05 9.41699e-05 3.82861e-05 
49 1 1.64243e-06 6.49e-05 9.78e-05 3.87e-05 
3 1 1.45412e-06 9.35e-05 5.86e-05 4e-05 
37 1 1.86211e-06 7.62e-05 6.44e-05 4.32e-05 
24 1 1.53781e-06 7.01e-05 7.25e-05 4.38e-05 
46 1 1.54828e-06 5.25e-05 6.87e-05 4.65e-05 
15 1 1.57966e-06 7.66e-05 6.9e-05 4.78e-05 
52 1 1.49041e-06 7.86794e-05 9.44181e-05 3.94576e-05 
ITEM: TIMESTEP
900
ITEM: NUMBER OF ATOMS
52
ITEM: BOX BOUNDS ff ff ff
0.0000000000000000e+00 1.0000000000000000e-04
0.0000000000000000e+00 1.0000000000000000e-04
0.0000000000000000e+00 5.0000000000000002e-05
ITEM: ATOMS id type diameter x y z 
41 1 1.73588e-06 2.46e-05 4.88e-05 5.27e-06 
19 1 1.84108e-06 2.67e-06 2.12e-05 8.83e-06 
40 1 1.72536e-06 2.81e-05 3.92e-05 1e-05 
9 1 1.69379e-06 2.58e-05 1.64e-05 1.34e-05 
10 1 1.80952e-06 1.99e-05 4.68e-05 1.97e-05 
13 1 1.51495e-06 4.53e-05 2.81e-05 2.04e-05 
39 1 1.54651e-06 2.89e-05 1.48e-05 2.6e-05 
50 1 1.73588e-06 5.01e-06 2.98e-05 3.03e-05 
47 1 1.60963e-06 4.09e-05 2.73e-05 3.43e-05 
32 1 1.48338e-06 2.07e-05 2.4e-05 3.71e-05 
1 1 1.65897e-06 8.83242e-06 1.647e-05 4.48863e-05 
51 1 1.50677e-06 9.83918e-06 1.67181e-05 4.60574e-05 
23 1 1.56755e-06 2e-05 8.13e-05 8.05e-06 
42 1 1.59911e-06 2.99e-05 5.78e-05 1.73e-05 
45 1 1.70431e-06 6.49e-06 5.44e-05 2.34e-05 
43 1 1.72536e-06 2.88e-05 5.25e-05 2.54e-05 
34 1 1.82004e-06 3.19e-05 6.7e-05 2.56e-05 
38 1 1.63067e-06 1.6e-05 8.76e-05 3.13e-05 
44 1 1.69379e-06 1.33e-05 7.38e-05 3.52e-05 
20 1 1.73588e-06 4.57e-05 6.41e-05 3.77e-05 
7 1 1.63067e-06 2.7e-05 9.17e-05 4.22e-05 
35 1 1.54651e-06 4.54e-05 8.57e-05 4.27e-05 
8 1 1.67275e-06 3.84e-05 7.67e-05 4.59e-05 
27 1 1.54651e-06 2.2e-05 8.42e-05 4.59e-05 
48 1 1.64119e-06 5.4e-05 2.06e-05 1.16e-05 
33 1 1.66223e-06 8.75e-05 4.04e-05 1.45e-05 
14 1 1.84108e-06 6.49e-05 2.77e-05 1.74e-05 
22 1 1.89368e-06 9.48e-05 3.64e-05 1.85e-05 
6 1 1.53599e-06 7.52e-05 1.22e-05 1.99e-05 
26 1 1.92524e-06 8.39e-05 3e-05 1.96e-05 
17 1 1.59911e-06 8.94e-05 4.7e-05 2.09e-05 
2 1 1.66223e-06 5.67e-05 1.2e-05 2.35e-05 
4 1 1.75692e-06 7.27e-05 4.56e-05 2.72e-05 
28 1 1.59911e-06 9.04e-05 3.99e-05 2.78e-05 
29 1 1.9042e-06 9.54e-05 1.02e-05 3.84e-05 
21 1 1.82004e-06 5.96e-05 2.59e-05 4.41e-05 
18 1 1.63067e-06 5.47e-05 6.03e-06 4.51e-05 
30 1 1.50443e-06 8.45e-05 7.39e-05 1.93e-06 
16 1 1.62015e-06 6.18e-05 8.84e-05 2.14e-06 
36 1 1.92524e-06 6.65e-05 7.19e-05 1.33e-05 
11 1 1.59911e-06 7.18e-05 5.55e-05 1.68e-05 
25 1 1.95681e-06 6.33e-05 8.25e-05 2.4e-05 
31 1 1.45182e-06 9.59e-05 8.68e-05 3.68e-05 
5 1 1.63067e-06 8.56e-05 6.89e-05 3.85e-05 
12 1 1.65023e-06 7.76722e-05 9.41699e-05 3.82861e-05 
49 1 1.65171e-06 6.49e-05 9.78e-05 3.87e-05 
3 1 1.46234e-06 9.35e-05 5.86e-05 4e-05 
37 1 1.87264e-06 7.62e-05 6.44e-05 4.32e-05 
24 1 1.54651e-06 7.01e-05 7.25e-05 4.38e-05 
46 1 1.55703e-06 5.25e-05 6.87e-05 4.65e-05 
15 1 1.58859e-06 7.66e-05 6.9e-05 4.78e-05 
52 1 1.49884e-06 7.86794e-05 9.44181e-05 3.94576e-05 
ITEM: TIMESTEP
1000
ITEM: NUMBER OF ATOMS
52
ITEM: BOX BOUNDS ff ff ff
0.0000000000000000e+00 1.0000000000000000e-04
0.0000000000000000e+00 1.0000000000000000e-04
0.0000000000000000e+00 5.0000000000000002e-05
ITEM: ATOMS id type diameter x y z 
41 1 1.74569e-06 2.46e-05 4.88e-05 5.27e-06 
19 1 1.85149e-06 2.67e-06 2.12e-05 8.83e-06 
40 1 1.73511e-06 2.81e-05 3.92e-05 1e-05 
9 1 1.70337e-06 2.58e-05 1.64e-05 1.34e-05 
10 1 1.81975e-06 1.99e-05 4.68e-05 1.97e-05 
13 1 1.52351e-06 4.53e-05 2.81e-05 2.04e-05 
39 1 1.55525e-06 2.89e-05 1.48e-05 2.6e-05 
50 1 1.74569e-06 5.01e-06 2.98e-05 3.03e-05 
47 1 1.61873e-06 4.09e-05 2.73e-05 3.43e-05 
32 1 1.49177e-06 2.07e-05 2.4e-05 3.71e-05 
1 1 1.66834e-06 8.83242e-06 1.647e-05 4.48863e-05 
51 1 1.51529e-06 9.83918e-06 1.67181e-05 4.60574e-05 
23 1 1.57641e-06 2e-05 8.13e-05 8.05e-06 
42 1 1.60815e-06 2.99e-05 5.78e-05 1.73e-05 
45 1 1.71395e-06 6.49e-06 5.44e-05 2.34e-05 
43 1 1.73511e-06 2.88e-05 5.25e-05 2.54e-05 
34 1 1.83033e-06 3.19e-05 6.7e-05 2.56e-05 
38 1 1.63989e-06 1.6e-05 8.76e-05 3.13e-05 
44 1 1.70337e-06 1.33e-05 7.38e-05 3.52e-05 
20 1 1.74569e-06 4.57e-05 6.41e-05 3.77e-05 
7 1 1.63989e-06 2.7e-05 9.17e-05 4.22e-05 
35 1 1.55525e-06 4.54e-05 8.57e-05 4.27e-05 
8 1 1.68221e-06 3.84e-05 7.67e-05 4.59e-05 
27 1 1.55525e-06 2.2e-05 8.42e-05 4.59e-05 
48 1 1.65047e-06 5.4e-05 2.06e-05 1.16e-05 
33 1 1.67163e-06 8.75e-05 4.04e-05 1.45e-05 
14 1 1.85149e-06 6.49e-05 2.77e-05 1.74e-05 
22 1 1.90439e-06 9.48e-05 3.64e-05 1.85e-05 
6 1 1.54467e-06 7.52e-05 1.22e-05 1.99e-05 
26 1 1.93613e-06 8.39e-05 3e-05 1.96e-05 
17 1 1.60815e-06 8.94e-05 4.7e-05 2.09e-05 
2 1 1.67163e-06 5.67e-05 1.2e-05 2.35e-05 
4 1 1.76685e-06 7.27e-05 4.56e-05 2.72e-05 
28 1 1.60815e-06 9.04e-05 3.99e-05 2.78e-05 
29 1 1.91497e-06 9.54e-05 1.02e-05 3.84e-05 
21 1 1.83033e-06 5.96e-05 2.59e-05 4.41e-05 
18 1 1.63989e-06 5.47e-05 6.03e-06 4.51e-05 
30 1 1.51293e-06 8.45e-05 7.39e-05 1.93e-06 
16 1 1.62931e-06 6.18e-05 8.84e-05 2.14e-06 
36 1 1.93613e-06 6.65e-05 7.19e-05 1.33e-05 
11 1 1.60815e-06 7.18e-05 5.55e-05 1.68e-05 
25 1 1.96787e-06 6.33e-05 8.25e-05 2.4e-05 
31 1 1.46003e-06 9.59e-05 8.68e-05 3.68e-05 
12 1 1.65956e-06 7.76722e-05 9.41699e-05 3.82861e-05 
5 1 1.63989e-06 8.56e-05 6.89e-05 3.85e-05 
49 1 1.66105e-06 6.49e-05 9.78e-05 3.87e-05 
52 1 1.50731e-06 7.86794e-05 9.44181e-05 3.94576e-05 
3 1 1.47061e-06 9.35e-05 5.86e-05 4e-05 
37 1 1.88323e-06 7.62e-05 6.44e-05 4.32e-05 
24 1 1.55525e-06 7.01e-05 7.25e-05 4.38e-05 
46 1 1.56583e-06 5.25e-05 6.87e-05 4.65e-05 
15 1 1.59757e-06 7.66e-05 6.9e-05 4.78e-05 
ITEM: TIMESTEP
1100
ITEM: NUMBER OF ATOMS
53
ITEM: BOX BOUNDS ff ff ff
0.0000000000000000e+00 1.0000000000000000e-04
0.0000000000000000e+00 1.0000000000000000e-04
0.0000000000000000e+00 5.0000000000000002e-05
ITEM: ATOMS id type diameter x y z 
41 1 1.75556e-06 2.46e-05 4.88e-05 5.27e-06 
19 1 1.86196e-06 2.67e-06 2.12e-05 8.83e-06 
40 1 1.74492e-06 2.81e-05 3.92e-05 1e-05 
9 1 1.713e-06 2.58e-05 1.64e-05 1.34e-05 
10 1 1.83004e-06 1.99e-05 4.68e-05 1.97e-05 
13 1 1.53212e-06 4.53e-05 2.81e-05 2.04e-05 
39 1 1.56404e-06 2.89e-05 1.48e-05 2.6e-05 
50 1 1.75556e-06 5.01e-06 2.98e-05 3.03e-05 
47 1 1.62788e-06 4.09e-05 2.73e-05 3.43e-05 
32 1 1.5002e-06 2.07e-05 2.4e-05 3.71e-05 
1 1 1.67778e-06 8.81955e-06 1.64668e-05 4.48714e-05 
51 1 1.52385e-06 9.85205e-06 1.67213e-05 4.60723e-05 
23 1 1.58532e-06 2e-05 8.13e-05 8.05e-06 
42 1 1.61724e-06 2.99e-05 5.78e-05 1.73e-05 
45 1 1.72364e-06 6.49e-06 5.44e-05 2.34e-05 
43 1 1.74492e-06 2.88e-05 5.25e-05 2.54e-05 
34 1 1.84068e-06 3.19e-05 6.7e-05 2.56e-05 
38 1 1.64916e-06 1.6e-05 8.76e-05 3.13e-05 
44 1 1.713e-06 1.33e-05 7.38e-05 3.52e-05 
20 1 1.75556e-06 4.57e-05 6.41e-05 3.77e-05 
7 1 1.64916e-06 2.7e-05 9.17e-05 4.22e-05 
35 1 1.56404e-06 4.54e-05 8.57e-05 4.27e-05 
8 1 1.69172e-06 3.84e-05 7.67e-05 4.59e-05 
27 1 1.56404e-06 2.2e-05 8.42e-05 4.59e-05 
48 1 1.6598e-06 5.4e-05 2.06e-05 1.16e-05 
33 1 1.68108e-06 8.75e-05 4.04e-05 1.45e-05 
14 1 1.86196e-06 6.49e-05 2.77e-05 1.74e-05 
22 1 1.91515e-06 9.48e-05 3.64e-05 1.85e-05 
6 1 1.5534e-06 7.52e-05 1.22e-05 1.99e-05 
26 1 1.94707e-06 8.39e-05 3e-05 1.96e-05 
17 1 1.61724e-06 8.94e-05 4.7e-05 2.09e-05 
2 1 1.68108e-06 5.67e-05 1.2e-05 2.35e-05 
4 1 1.77684e-06 7.27e-05 4.56e-05 2.72e-05 
28 1 1.61724e-06 9.04e-05 3.99e-05 2.78e-05 
29 1 1.92579e-06 9.54e-05 1.02e-05 3.84e-05 
21 1 1.84068e-06 5.96e-05 2.59e-05 4.41e-05 
18 1 1.64916e-06 5.47e-05 6.03e-06 4.51e-05 
30 1 1.52148e-06 8.45e-05 7.39e-05 1.93e-06 
16 1 1.63852e-06 6.18e-05 8.84e-05 2.14e-06 
36 1 1.94707e-06 6.65e-05 7.19e-05 1.33e-05 
11 1 1.61724e-06 7.18e-05 5.55e-05 1.68e-05 
25 1 1.65264e-06 6.34489e-05 8.17067e-05 2.38256e-05 
31 1 1.46829e-06 9.59e-05 8.68e-05 3.68e-05 
12 1 1.66895e-06 7.76722e-05 9.41699e-05 3.82861e-05 
5 1 1.64916e-06 8.56e-05 6.89e-05 3.85e-05 
49 1 1.67044e-06 6.49e-05 9.78e-05 3.87e-05 
52 1 1.51583e-06 7.86794e-05 9.44181e-05 3.94576e-05 
3 1 1.47892e-06 9.35e-05 5.86e-05 4e-05 
37 1 1.89388e-06 7.62e-05 6.44e-05 4.32e-05 
24 1 1.56404e-06 7.01e-05 7.25e-05 4.38e-05 
46 1 1.57468e-06 5.25e-05 6.87e-05 4.65e-05 
15 1 1.6066e-06 7.66e-05 6.9e-05 4.78e-05 
53 1 1.47925e-06 6.31667e-05 8.32101e-05 2.41561e-05 
ITEM: TIMESTEP
1200