 NUFEB Simulation

     50 atoms 
     2 atom types 
     4 nutrients 

  0.0e-4   1.00e-04  xlo xhi 
  0.0e-4   1.00e-04  ylo yhi 
  0.0e-4   5.00e-05  zlo zhi 

 Atoms 

     1 1 1.62e-06  370 8.00e-05 4.34e-05 2.47e-05 1.62e-06 
     2 1 1.87e-06  370 7.75e-05 3.62e-05 4.31e-05 1.87e-06 
     3 1 1.71e-06  370 3.06e-06 9.19e-05 2.45e-06 1.71e-06 
     4 1 1.50e-06  370 6.52e-05 4.36e-06 4.29e-05 1.50e-06 
     5 1 1.84e-06  370 5.36e-05 3.84e-05 2.01e-05 1.84e-06 
     6 1 1.90e-06  370 3.06e-05 6.32e-05 2.56e-06 1.90e-06 
     7 1 1.82e-06  370 5.47e-05 7.25e-05 1.79e-05 1.82e-06 
     8 1 1.64e-06  370 6.70e-05 6.37e-05 2.01e-05 1.64e-06 
     9 1 1.57e-06  370 6.20e-05 1.85e-05 2.86e-05 1.57e-06 
     10 1 1.43e-06  370 6.97e-05 7.72e-05 2.27e-05 1.43e-06 
     11 1 1.63e-06  370 6.82e-05 5.58e-05 3.96e-05 1.63e-06 
     12 1 1.91e-06  370 4.44e-05 1.76e-05 3.03e-05 1.91e-06 
     13 1 1.50e-06  370 8.57e-05 7.72e-05 1.76e-05 1.50e-06 
     14 1 1.61e-06  370 2.20e-06 3.86e-05 5.08e-06 1.61e-06 
     15 1 1.70e-06  370 7.07e-05 9.32e-05 1.69e-05 1.70e-06 
     16 1 1.91e-06  370 3.22e-05 6.23e-05 9.94e-06 1.91e-06 
     17 1 1.86e-06  370 6.21e-05 3.61e-05 2.07e-05 1.86e-06 
     18 1 1.50e-06  370 4.96e-05 9.67e-05 1.55e-05 1.50e-06 
     19 1 1.39e-06  370 8.38e-06 7.27e-06 2.78e-05 1.39e-06 
     20 1 1.47e-06  370 5.16e-05 5.36e-05 3.15e-05 1.47e-06 
     21 1 1.75e-06  370 8.40e-05 6.85e-05 1.94e-05 1.75e-06 
     22 1 1.85e-06  370 2.88e-05 4.01e-05 1.97e-05 1.85e-06 
     23 1 1.92e-06  370 6.41e-05 6.77e-06 1.08e-05 1.92e-06 
     24 1 1.86e-06  370 4.75e-05 5.45e-05 4.52e-05 1.86e-06 
     25 1 1.87e-06  370 3.46e-05 7.90e-05 4.40e-05 1.87e-06 
     26 1 1.47e-06  370 2.10e-05 1.61e-05 1.08e-05 1.47e-06 
     27 1 1.55e-06  370 4.03e-05 8.78e-05 4.41e-05 1.55e-06 
     28 1 1.83e-06  370 6.57e-05 9.56e-05 5.81e-06 1.83e-06 
     29 1 1.41e-06  370 9.24e-05 9.62e-05 9.02e-06 1.41e-06 
     30 1 1.93e-06  370 1.96e-05 8.54e-05 2.87e-05 1.93e-06 
     31 1 1.67e-06  370 4.68e-05 7.59e-05 2.59e-05 1.67e-06 
     32 1 1.60e-06  370 8.23e-05 2.67e-05 2.23e-05 1.60e-06 
     33 1 1.53e-06  370 2.21e-05 1.54e-05 4.02e-05 1.53e-06 
     34 1 1.42e-06  370 3.41e-05 4.38e-05 2.42e-05 1.42e-06 
     35 1 1.93e-06  370 3.13e-06 8.74e-05 2.58e-05 1.93e-06 
     36 1 1.86e-06  370 2.13e-05 8.17e-05 3.06e-05 1.86e-06 
     37 1 1.86e-06  370 8.17e-05 4.42e-05 3.64e-06 1.86e-06 
     38 1 1.82e-06  370 2.57e-05 6.66e-05 3.85e-05 1.82e-06 
     39 1 1.94e-06  370 9.33e-05 4.74e-05 3.95e-05 1.94e-06 
     40 1 1.91e-06  370 9.32e-05 2.31e-05 3.26e-05 1.91e-06 
     41 1 1.69e-06  370 8.31e-05 2.83e-05 5.36e-06 1.69e-06 
     42 1 1.91e-06  370 8.38e-05 3.18e-05 3.53e-05 1.91e-06 
     43 1 1.71e-06  370 5.73e-05 2.32e-05 1.75e-05 1.71e-06 
     44 1 1.60e-06  370 3.20e-06 3.99e-05 7.65e-06 1.60e-06 
     45 1 1.84e-06  370 7.30e-05 3.29e-06 1.60e-05 1.84e-06 
     46 1 1.55e-06  370 5.24e-05 3.70e-05 1.74e-05 1.55e-06 
     47 1 1.72e-06  370 2.53e-06 6.17e-05 1.84e-05 1.72e-06 
     48 1 1.54e-06  370 2.44e-05 8.19e-05 2.02e-05 1.54e-06 
     49 1 1.92e-06  370 2.17e-05 8.00e-05 3.82e-05 1.92e-06 
     50 1 1.46e-06  370 9.24e-05 4.38e-05 2.82e-05 1.46e-06 

 Nutrients 

     1 sub g nn nn nn 1.00e-01 1.00e-01 
     2 o2 l nn nn nd 9.00e-03 9.00e-03 
     3 suc l nn nn nn 3.42e-20 3.42e-20 
     4 co2 l nn nn nd 2.99e-02 2.99e-02 

 Type Name 

     1 cyano  
     2 ecw  

 Diffusion Coeffs 

     sub 0 
     o2 2.3e-09 
     suc 5.2e-10 
     co2 1.9e-09 

 Growth Rate 

     cyano 2.047e-05 
     ecw 6.71e-05 

 Ks 

     cyano 0.00035 0.0002 0.01 0.000138 
     ecw 0 0.001 3.6 0.05 

 Yield 

     cyano 0.55 
     ecw 0.43 

 Maintenance 

     cyano 0 
     ecw 9.5e-07 

 Decay 

     cyano 0 
     ecw 0 



