ITEM: TIMESTEP
0
ITEM: NUMBER OF ATOMS
50
ITEM: BOX BOUNDS ff ff ff
0.0000000000000000e+00 1.0000000000000000e-04
0.0000000000000000e+00 1.0000000000000000e-04
0.0000000000000000e+00 5.0000000000000002e-05
ITEM: ATOMS id type diameter x y z 
14 1 1.61e-06 2.2e-06 3.86e-05 5.08e-06 
44 1 1.6e-06 3.2e-06 3.99e-05 7.65e-06 
26 1 1.47e-06 2.1e-05 1.61e-05 1.08e-05 
22 1 1.85e-06 2.88e-05 4.01e-05 1.97e-05 
34 1 1.42e-06 3.41e-05 4.38e-05 2.42e-05 
19 1 1.39e-06 8.38e-06 7.27e-06 2.78e-05 
12 1 1.91e-06 4.44e-05 1.76e-05 3.03e-05 
33 1 1.53e-06 2.21e-05 1.54e-05 4.02e-05 
3 1 1.71e-06 3.06e-06 9.19e-05 2.45e-06 
6 1 1.9e-06 3.06e-05 6.32e-05 2.56e-06 
16 1 1.91e-06 3.22e-05 6.23e-05 9.94e-06 
18 1 1.5e-06 4.96e-05 9.67e-05 1.55e-05 
47 1 1.72e-06 2.53e-06 6.17e-05 1.84e-05 
48 1 1.54e-06 2.44e-05 8.19e-05 2.02e-05 
31 1 1.67e-06 4.68e-05 7.59e-05 2.59e-05 
35 1 1.93e-06 3.13e-06 8.74e-05 2.58e-05 
30 1 1.93e-06 1.96e-05 8.54e-05 2.87e-05 
36 1 1.86e-06 2.13e-05 8.17e-05 3.06e-05 
49 1 1.92e-06 2.17e-05 8e-05 3.82e-05 
38 1 1.82e-06 2.57e-05 6.66e-05 3.85e-05 
25 1 1.87e-06 3.46e-05 7.9e-05 4.4e-05 
27 1 1.55e-06 4.03e-05 8.78e-05 4.41e-05 
24 1 1.86e-06 4.75e-05 5.45e-05 4.52e-05 
37 1 1.86e-06 8.17e-05 4.42e-05 3.64e-06 
41 1 1.69e-06 8.31e-05 2.83e-05 5.36e-06 
23 1 1.92e-06 6.41e-05 6.77e-06 1.08e-05 
45 1 1.84e-06 7.3e-05 3.29e-06 1.6e-05 
43 1 1.71e-06 5.73e-05 2.32e-05 1.75e-05 
46 1 1.55e-06 5.24e-05 3.7e-05 1.74e-05 
5 1 1.84e-06 5.36e-05 3.84e-05 2.01e-05 
17 1 1.86e-06 6.21e-05 3.61e-05 2.07e-05 
32 1 1.6e-06 8.23e-05 2.67e-05 2.23e-05 
1 1 1.62e-06 8e-05 4.34e-05 2.47e-05 
50 1 1.46e-06 9.24e-05 4.38e-05 2.82e-05 
9 1 1.57e-06 6.2e-05 1.85e-05 2.86e-05 
40 1 1.91e-06 9.32e-05 2.31e-05 3.26e-05 
42 1 1.91e-06 8.38e-05 3.18e-05 3.53e-05 
39 1 1.94e-06 9.33e-05 4.74e-05 3.95e-05 
4 1 1.5e-06 6.52e-05 4.36e-06 4.29e-05 
2 1 1.87e-06 7.75e-05 3.62e-05 4.31e-05 
28 1 1.83e-06 6.57e-05 9.56e-05 5.81e-06 
29 1 1.41e-06 9.24e-05 9.62e-05 9.02e-06 
15 1 1.7e-06 7.07e-05 9.32e-05 1.69e-05 
7 1 1.82e-06 5.47e-05 7.25e-05 1.79e-05 
13 1 1.5e-06 8.57e-05 7.72e-05 1.76e-05 
21 1 1.75e-06 8.4e-05 6.85e-05 1.94e-05 
8 1 1.64e-06 6.7e-05 6.37e-05 2.01e-05 
10 1 1.43e-06 6.97e-05 7.72e-05 2.27e-05 
20 1 1.47e-06 5.16e-05 5.36e-05 3.15e-05 
11 1 1.63e-06 6.82e-05 5.58e-05 3.96e-05 
ITEM: TIMESTEP
100
ITEM: NUMBER OF ATOMS
50
ITEM: BOX BOUNDS ff ff ff
0.0000000000000000e+00 1.0000000000000000e-04
0.0000000000000000e+00 1.0000000000000000e-04
0.0000000000000000e+00 5.0000000000000002e-05
ITEM: ATOMS id type diameter x y z 
14 1 1.61996e-06 2.2e-06 3.86e-05 5.08e-06 
44 1 1.6099e-06 3.2e-06 3.99e-05 7.65e-06 
26 1 1.4791e-06 2.1e-05 1.61e-05 1.08e-05 
22 1 1.86145e-06 2.88e-05 4.01e-05 1.97e-05 
34 1 1.42879e-06 3.41e-05 4.38e-05 2.42e-05 
19 1 1.3986e-06 8.38e-06 7.27e-06 2.78e-05 
12 1 1.92182e-06 4.44e-05 1.76e-05 3.03e-05 
33 1 1.53947e-06 2.21e-05 1.54e-05 4.02e-05 
3 1 1.72058e-06 3.06e-06 9.19e-05 2.45e-06 
6 1 1.91176e-06 3.06e-05 6.32e-05 2.56e-06 
16 1 1.92182e-06 3.22e-05 6.23e-05 9.94e-06 
18 1 1.50928e-06 4.96e-05 9.67e-05 1.55e-05 
47 1 1.73064e-06 2.53e-06 6.17e-05 1.84e-05 
48 1 1.54953e-06 2.44e-05 8.19e-05 2.02e-05 
31 1 1.68033e-06 4.68e-05 7.59e-05 2.59e-05 
35 1 1.94194e-06 3.13e-06 8.74e-05 2.58e-05 
30 1 1.94194e-06 1.96e-05 8.54e-05 2.87e-05 
36 1 1.87151e-06 2.13e-05 8.17e-05 3.06e-05 
49 1 1.93188e-06 2.17e-05 8e-05 3.82e-05 
38 1 1.83126e-06 2.57e-05 6.66e-05 3.85e-05 
25 1 1.88157e-06 3.46e-05 7.9e-05 4.4e-05 
27 1 1.55959e-06 4.03e-05 8.78e-05 4.41e-05 
24 1 1.87151e-06 4.75e-05 5.45e-05 4.52e-05 
37 1 1.87151e-06 8.17e-05 4.42e-05 3.64e-06 
41 1 1.70046e-06 8.31e-05 2.83e-05 5.36e-06 
23 1 1.93188e-06 6.41e-05 6.77e-06 1.08e-05 
45 1 1.85139e-06 7.3e-05 3.29e-06 1.6e-05 
43 1 1.72058e-06 5.73e-05 2.32e-05 1.75e-05 
46 1 1.55959e-06 5.24e-05 3.7e-05 1.74e-05 
5 1 1.85139e-06 5.36e-05 3.84e-05 2.01e-05 
17 1 1.87151e-06 6.21e-05 3.61e-05 2.07e-05 
32 1 1.6099e-06 8.23e-05 2.67e-05 2.23e-05 
1 1 1.63003e-06 8e-05 4.34e-05 2.47e-05 
50 1 1.46904e-06 9.24e-05 4.38e-05 2.82e-05 
9 1 1.57972e-06 6.2e-05 1.85e-05 2.86e-05 
40 1 1.92182e-06 9.32e-05 2.31e-05 3.26e-05 
42 1 1.92182e-06 8.38e-05 3.18e-05 3.53e-05 
39 1 1.95201e-06 9.33e-05 4.74e-05 3.95e-05 
4 1 1.50928e-06 6.52e-05 4.36e-06 4.29e-05 
2 1 1.88157e-06 7.75e-05 3.62e-05 4.31e-05 
28 1 1.84132e-06 6.57e-05 9.56e-05 5.81e-06 
29 1 1.41873e-06 9.24e-05 9.62e-05 9.02e-06 
15 1 1.71052e-06 7.07e-05 9.32e-05 1.69e-05 
7 1 1.83126e-06 5.47e-05 7.25e-05 1.79e-05 
13 1 1.50928e-06 8.57e-05 7.72e-05 1.76e-05 
21 1 1.76083e-06 8.4e-05 6.85e-05 1.94e-05 
8 1 1.65015e-06 6.7e-05 6.37e-05 2.01e-05 
10 1 1.43885e-06 6.97e-05 7.72e-05 2.27e-05 
20 1 1.4791e-06 5.16e-05 5.36e-05 3.15e-05 
11 1 1.64009e-06 6.82e-05 5.58e-05 3.96e-05 
ITEM: TIMESTEP
200
ITEM: NUMBER OF ATOMS
50
ITEM: BOX BOUNDS ff ff ff
0.0000000000000000e+00 1.0000000000000000e-04
0.0000000000000000e+00 1.0000000000000000e-04
0.0000000000000000e+00 5.0000000000000002e-05
ITEM: ATOMS id type diameter x y z 
14 1 1.62999e-06 2.2e-06 3.86e-05 5.08e-06 
44 1 1.61986e-06 3.2e-06 3.99e-05 7.65e-06 
26 1 1.48825e-06 2.1e-05 1.61e-05 1.08e-05 
22 1 1.87297e-06 2.88e-05 4.01e-05 1.97e-05 
34 1 1.43763e-06 3.41e-05 4.38e-05 2.42e-05 
19 1 1.40726e-06 8.38e-06 7.27e-06 2.78e-05 
12 1 1.93371e-06 4.44e-05 1.76e-05 3.03e-05 
33 1 1.549e-06 2.21e-05 1.54e-05 4.02e-05 
3 1 1.73123e-06 3.06e-06 9.19e-05 2.45e-06 
6 1 1.92359e-06 3.06e-05 6.32e-05 2.56e-06 
16 1 1.93371e-06 3.22e-05 6.23e-05 9.94e-06 
18 1 1.51862e-06 4.96e-05 9.67e-05 1.55e-05 
47 1 1.74135e-06 2.53e-06 6.17e-05 1.84e-05 
48 1 1.55912e-06 2.44e-05 8.19e-05 2.02e-05 
31 1 1.69073e-06 4.68e-05 7.59e-05 2.59e-05 
35 1 1.95396e-06 3.13e-06 8.74e-05 2.58e-05 
30 1 1.95396e-06 1.96e-05 8.54e-05 2.87e-05 
36 1 1.88309e-06 2.13e-05 8.17e-05 3.06e-05 
49 1 1.94384e-06 2.17e-05 8e-05 3.82e-05 
38 1 1.8426e-06 2.57e-05 6.66e-05 3.85e-05 
25 1 1.89322e-06 3.46e-05 7.9e-05 4.4e-05 
27 1 1.56924e-06 4.03e-05 8.78e-05 4.41e-05 
24 1 1.88309e-06 4.75e-05 5.45e-05 4.52e-05 
37 1 1.88309e-06 8.17e-05 4.42e-05 3.64e-06 
41 1 1.71098e-06 8.31e-05 2.83e-05 5.36e-06 
23 1 1.94384e-06 6.41e-05 6.77e-06 1.08e-05 
45 1 1.86284e-06 7.3e-05 3.29e-06 1.6e-05 
43 1 1.73123e-06 5.73e-05 2.32e-05 1.75e-05 
46 1 1.56924e-06 5.24e-05 3.7e-05 1.74e-05 
5 1 1.86284e-06 5.36e-05 3.84e-05 2.01e-05 
17 1 1.88309e-06 6.21e-05 3.61e-05 2.07e-05 
32 1 1.61986e-06 8.23e-05 2.67e-05 2.23e-05 
1 1 1.64011e-06 8e-05 4.34e-05 2.47e-05 
50 1 1.47813e-06 9.24e-05 4.38e-05 2.82e-05 
9 1 1.58949e-06 6.2e-05 1.85e-05 2.86e-05 
40 1 1.93371e-06 9.32e-05 2.31e-05 3.26e-05 
42 1 1.93371e-06 8.38e-05 3.18e-05 3.53e-05 
39 1 1.96409e-06 9.33e-05 4.74e-05 3.95e-05 
4 1 1.51862e-06 6.52e-05 4.36e-06 4.29e-05 
2 1 1.89322e-06 7.75e-05 3.62e-05 4.31e-05 
28 1 1.85272e-06 6.57e-05 9.56e-05 5.81e-06 
29 1 1.42751e-06 9.24e-05 9.62e-05 9.02e-06 
15 1 1.72111e-06 7.07e-05 9.32e-05 1.69e-05 
7 1 1.8426e-06 5.47e-05 7.25e-05 1.79e-05 
13 1 1.51862e-06 8.57e-05 7.72e-05 1.76e-05 
21 1 1.77173e-06 8.4e-05 6.85e-05 1.94e-05 
8 1 1.66036e-06 6.7e-05 6.37e-05 2.01e-05 
10 1 1.44775e-06 6.97e-05 7.72e-05 2.27e-05 
20 1 1.48825e-06 5.16e-05 5.36e-05 3.15e-05 
11 1 1.65024e-06 6.82e-05 5.58e-05 3.96e-05 
ITEM: TIMESTEP
300
ITEM: NUMBER OF ATOMS
51
ITEM: BOX BOUNDS ff ff ff
0.0000000000000000e+00 1.0000000000000000e-04
0.0000000000000000e+00 1.0000000000000000e-04
0.0000000000000000e+00 5.0000000000000002e-05
ITEM: ATOMS id type diameter x y z 
14 1 1.64008e-06 2.2e-06 3.86e-05 5.08e-06 
44 1 1.62989e-06 3.2e-06 3.99e-05 7.65e-06 
26 1 1.49746e-06 2.1e-05 1.61e-05 1.08e-05 
22 1 1.88456e-06 2.88e-05 4.01e-05 1.97e-05 
34 1 1.44653e-06 3.41e-05 4.38e-05 2.42e-05 
19 1 1.41597e-06 8.38e-06 7.27e-06 2.78e-05 
12 1 1.94568e-06 4.44e-05 1.76e-05 3.03e-05 
33 1 1.55858e-06 2.21e-05 1.54e-05 4.02e-05 
3 1 1.74194e-06 3.06e-06 9.19e-05 2.45e-06 
6 1 1.93549e-06 3.06e-05 6.32e-05 2.56e-06 
16 1 1.94568e-06 3.22e-05 6.23e-05 9.94e-06 
18 1 1.52802e-06 4.96e-05 9.67e-05 1.55e-05 
47 1 1.75213e-06 2.53e-06 6.17e-05 1.84e-05 
48 1 1.56877e-06 2.44e-05 8.19e-05 2.02e-05 
31 1 1.7012e-06 4.68e-05 7.59e-05 2.59e-05 
35 1 1.96605e-06 3.13e-06 8.74e-05 2.58e-05 
30 1 1.96605e-06 1.96e-05 8.54e-05 2.87e-05 
36 1 1.89475e-06 2.13e-05 8.17e-05 3.06e-05 
49 1 1.95587e-06 2.17e-05 8e-05 3.82e-05 
38 1 1.854e-06 2.57e-05 6.66e-05 3.85e-05 
25 1 1.90493e-06 3.46e-05 7.9e-05 4.4e-05 
27 1 1.57895e-06 4.03e-05 8.78e-05 4.41e-05 
24 1 1.89475e-06 4.75e-05 5.45e-05 4.52e-05 
37 1 1.89475e-06 8.17e-05 4.42e-05 3.64e-06 
41 1 1.72157e-06 8.31e-05 2.83e-05 5.36e-06 
23 1 1.95587e-06 6.41e-05 6.77e-06 1.08e-05 
45 1 1.87437e-06 7.3e-05 3.29e-06 1.6e-05 
43 1 1.74194e-06 5.73e-05 2.32e-05 1.75e-05 
46 1 1.57895e-06 5.24e-05 3.7e-05 1.74e-05 
5 1 1.87437e-06 5.36e-05 3.84e-05 2.01e-05 
17 1 1.89475e-06 6.21e-05 3.61e-05 2.07e-05 
32 1 1.62989e-06 8.23e-05 2.67e-05 2.23e-05 
1 1 1.65026e-06 8e-05 4.34e-05 2.47e-05 
50 1 1.48727e-06 9.24e-05 4.38e-05 2.82e-05 
9 1 1.59933e-06 6.2e-05 1.85e-05 2.86e-05 
40 1 1.94568e-06 9.32e-05 2.31e-05 3.26e-05 
42 1 1.94568e-06 8.38e-05 3.18e-05 3.53e-05 
39 1 1.57329e-06 9.36595e-05 4.75554e-05 4.01811e-05 
4 1 1.52802e-06 6.52e-05 4.36e-06 4.29e-05 
2 1 1.90493e-06 7.75e-05 3.62e-05 4.31e-05 
51 1 1.56377e-06 9.29427e-05 4.72456e-05 3.8823e-05 
28 1 1.86419e-06 6.57e-05 9.56e-05 5.81e-06 
29 1 1.43634e-06 9.24e-05 9.62e-05 9.02e-06 
15 1 1.73176e-06 7.07e-05 9.32e-05 1.69e-05 
7 1 1.854e-06 5.47e-05 7.25e-05 1.79e-05 
13 1 1.52802e-06 8.57e-05 7.72e-05 1.76e-05 
21 1 1.78269e-06 8.4e-05 6.85e-05 1.94e-05 
8 1 1.67064e-06 6.7e-05 6.37e-05 2.01e-05 
10 1 1.45671e-06 6.97e-05 7.72e-05 2.27e-05 
20 1 1.49746e-06 5.16e-05 5.36e-05 3.15e-05 
11 1 1.66045e-06 6.82e-05 5.58e-05 3.96e-05 
ITEM: TIMESTEP
400
ITEM: NUMBER OF ATOMS
53
ITEM: BOX BOUNDS ff ff ff
0.0000000000000000e+00 1.0000000000000000e-04
0.0000000000000000e+00 1.0000000000000000e-04
0.0000000000000000e+00 5.0000000000000002e-05
ITEM: ATOMS id type diameter x y z 
14 1 1.65023e-06 2.2e-06 3.86e-05 5.08e-06 
44 1 1.63998e-06 3.2e-06 3.99e-05 7.65e-06 
26 1 1.50673e-06 2.1e-05 1.61e-05 1.08e-05 
22 1 1.89622e-06 2.88e-05 4.01e-05 1.97e-05 
34 1 1.45548e-06 3.41e-05 4.38e-05 2.42e-05 
19 1 1.42473e-06 8.38e-06 7.27e-06 2.78e-05 
12 1 1.95772e-06 4.44e-05 1.76e-05 3.03e-05 
33 1 1.56823e-06 2.21e-05 1.54e-05 4.02e-05 
3 1 1.75272e-06 3.06e-06 9.19e-05 2.45e-06 
6 1 1.94747e-06 3.06e-05 6.32e-05 2.56e-06 
16 1 1.95772e-06 3.22e-05 6.23e-05 9.94e-06 
18 1 1.53748e-06 4.96e-05 9.67e-05 1.55e-05 
47 1 1.76297e-06 2.53e-06 6.17e-05 1.84e-05 
48 1 1.57848e-06 2.44e-05 8.19e-05 2.02e-05 
31 1 1.71172e-06 4.68e-05 7.59e-05 2.59e-05 
35 1 1.57487e-06 3.48987e-06 8.75555e-05 2.64818e-05 
30 1 1.59364e-06 1.95634e-05 8.54668e-05 2.94922e-05 
36 1 1.90647e-06 2.13e-05 8.17e-05 3.06e-05 
49 1 1.96797e-06 2.17e-05 8e-05 3.82e-05 
38 1 1.86547e-06 2.57e-05 6.66e-05 3.85e-05 
25 1 1.91672e-06 3.46e-05 7.9e-05 4.4e-05 
27 1 1.58873e-06 4.03e-05 8.78e-05 4.41e-05 
24 1 1.90647e-06 4.75e-05 5.45e-05 4.52e-05 
52 1 1.56533e-06 2.77231e-06 8.72454e-05 2.51223e-05 
53 1 1.54587e-06 1.96355e-05 8.53352e-05 2.79315e-05 
37 1 1.90647e-06 8.17e-05 4.42e-05 3.64e-06 
41 1 1.73222e-06 8.31e-05 2.83e-05 5.36e-06 
23 1 1.96797e-06 6.41e-05 6.77e-06 1.08e-05 
45 1 1.88597e-06 7.3e-05 3.29e-06 1.6e-05 
43 1 1.75272e-06 5.73e-05 2.32e-05 1.75e-05 
46 1 1.58873e-06 5.24e-05 3.7e-05 1.74e-05 
5 1 1.88597e-06 5.36e-05 3.84e-05 2.01e-05 
17 1 1.90647e-06 6.21e-05 3.61e-05 2.07e-05 
32 1 1.63998e-06 8.23e-05 2.67e-05 2.23e-05 
1 1 1.66047e-06 8e-05 4.34e-05 2.47e-05 
50 1 1.49648e-06 9.24e-05 4.38e-05 2.82e-05 
9 1 1.60923e-06 6.2e-05 1.85e-05 2.86e-05 
40 1 1.95772e-06 9.32e-05 2.31e-05 3.26e-05 
42 1 1.95772e-06 8.38e-05 3.18e-05 3.53e-05 
39 1 1.58303e-06 9.36595e-05 4.75554e-05 4.01811e-05 
4 1 1.53748e-06 6.52e-05 4.36e-06 4.29e-05 
2 1 1.91672e-06 7.75e-05 3.62e-05 4.31e-05 
51 1 1.57345e-06 9.29427e-05 4.72456e-05 3.8823e-05 
28 1 1.87572e-06 6.57e-05 9.56e-05 5.81e-06 
29 1 1.44523e-06 9.24e-05 9.62e-05 9.02e-06 
15 1 1.74247e-06 7.07e-05 9.32e-05 1.69e-05 
7 1 1.86547e-06 5.47e-05 7.25e-05 1.79e-05 
13 1 1.53748e-06 8.57e-05 7.72e-05 1.76e-05 
21 1 1.79372e-06 8.4e-05 6.85e-05 1.94e-05 
8 1 1.68097e-06 6.7e-05 6.37e-05 2.01e-05 
10 1 1.46573e-06 6.97e-05 7.72e-05 2.27e-05 
20 1 1.50673e-06 5.16e-05 5.36e-05 3.15e-05 
11 1 1.67072e-06 6.82e-05 5.58e-05 3.96e-05 
ITEM: TIMESTEP
500
ITEM: NUMBER OF ATOMS
55
ITEM: BOX BOUNDS ff ff ff
0.0000000000000000e+00 1.0000000000000000e-04
0.0000000000000000e+00 1.0000000000000000e-04
0.0000000000000000e+00 5.0000000000000002e-05
ITEM: ATOMS id type diameter x y z 
14 1 1.66044e-06 2.2e-06 3.86e-05 5.08e-06 
44 1 1.65012e-06 3.2e-06 3.99e-05 7.65e-06 
26 1 1.51605e-06 2.1e-05 1.61e-05 1.08e-05 
22 1 1.90796e-06 2.88e-05 4.01e-05 1.97e-05 
34 1 1.46449e-06 3.41e-05 4.38e-05 2.42e-05 
19 1 1.43355e-06 8.38e-06 7.27e-06 2.78e-05 
12 1 1.96984e-06 4.44e-05 1.76e-05 3.03e-05 
33 1 1.57793e-06 2.21e-05 1.54e-05 4.02e-05 
3 1 1.76357e-06 3.06e-06 9.19e-05 2.45e-06 
6 1 1.95952e-06 3.06e-05 6.32e-05 2.56e-06 
16 1 1.96984e-06 3.22e-05 6.23e-05 9.94e-06 
18 1 1.54699e-06 4.96e-05 9.67e-05 1.55e-05 
47 1 1.77388e-06 2.53e-06 6.17e-05 1.84e-05 
48 1 1.58824e-06 2.44e-05 8.19e-05 2.02e-05 
31 1 1.72232e-06 4.68e-05 7.59e-05 2.59e-05 
35 1 1.58461e-06 3.48987e-06 8.75555e-05 2.64818e-05 
30 1 1.6035e-06 1.95634e-05 8.54668e-05 2.94922e-05 
36 1 1.91827e-06 2.13e-05 8.17e-05 3.06e-05 
49 1 1.58878e-06 2.22622e-05 7.97627e-05 3.76929e-05 
38 1 1.87702e-06 2.57e-05 6.66e-05 3.85e-05 
25 1 1.92858e-06 3.46e-05 7.9e-05 4.4e-05 
27 1 1.59856e-06 4.03e-05 8.78e-05 4.41e-05 
24 1 1.91827e-06 4.75e-05 5.45e-05 4.52e-05 
52 1 1.57502e-06 2.77231e-06 8.72454e-05 2.51223e-05 
53 1 1.55543e-06 1.96355e-05 8.53352e-05 2.79315e-05 
54 1 1.55413e-06 2.115e-05 8.02321e-05 3.86961e-05 
37 1 1.91827e-06 8.17e-05 4.42e-05 3.64e-06 
41 1 1.74294e-06 8.31e-05 2.83e-05 5.36e-06 
23 1 1.5764e-06 6.44602e-05 6.92567e-06 1.14825e-05 
45 1 1.89764e-06 7.3e-05 3.29e-06 1.6e-05 
43 1 1.76357e-06 5.73e-05 2.32e-05 1.75e-05 
46 1 1.59856e-06 5.24e-05 3.7e-05 1.74e-05 
55 1 1.56686e-06 6.3742e-05 6.61527e-06 1.01216e-05 
5 1 1.89764e-06 5.36e-05 3.84e-05 2.01e-05 
17 1 1.91827e-06 6.21e-05 3.61e-05 2.07e-05 
32 1 1.65012e-06 8.23e-05 2.67e-05 2.23e-05 
1 1 1.67075e-06 8e-05 4.34e-05 2.47e-05 
50 1 1.50574e-06 9.24e-05 4.38e-05 2.82e-05 
9 1 1.61918e-06 6.2e-05 1.85e-05 2.86e-05 
40 1 1.96984e-06 9.32e-05 2.31e-05 3.26e-05 
42 1 1.96984e-06 8.38e-05 3.18e-05 3.53e-05 
39 1 1.59282e-06 9.36595e-05 4.75554e-05 4.01811e-05 
4 1 1.54699e-06 6.52e-05 4.36e-06 4.29e-05 
2 1 1.92858e-06 7.75e-05 3.62e-05 4.31e-05 
51 1 1.58318e-06 9.29427e-05 4.72456e-05 3.8823e-05 
28 1 1.88733e-06 6.57e-05 9.56e-05 5.81e-06 
29 1 1.45417e-06 9.24e-05 9.62e-05 9.02e-06 
15 1 1.75326e-06 7.07e-05 9.32e-05 1.69e-05 
7 1 1.87702e-06 5.47e-05 7.25e-05 1.79e-05 
13 1 1.54699e-06 8.57e-05 7.72e-05 1.76e-05 
21 1 1.80482e-06 8.4e-05 6.85e-05 1.94e-05 
8 1 1.69138e-06 6.7e-05 6.37e-05 2.01e-05 
10 1 1.4748e-06 6.97e-05 7.72e-05 2.27e-05 
20 1 1.51605e-06 5.16e-05 5.36e-05 3.15e-05 
11 1 1.68106e-06 6.82e-05 5.58e-05 3.96e-05 
ITEM: TIMESTEP
600
ITEM: NUMBER OF ATOMS
59
ITEM: BOX BOUNDS ff ff ff
0.0000000000000000e+00 1.0000000000000000e-04
0.0000000000000000e+00 1.0000000000000000e-04
0.0000000000000000e+00 5.0000000000000002e-05
ITEM: ATOMS id type diameter x y z 
14 1 1.67071e-06 2.2e-06 3.86e-05 5.08e-06 
44 1 1.66034e-06 3.2e-06 3.99e-05 7.65e-06 
26 1 1.52543e-06 2.1e-05 1.61e-05 1.08e-05 
22 1 1.91976e-06 2.88e-05 4.01e-05 1.97e-05 
34 1 1.47355e-06 3.41e-05 4.38e-05 2.42e-05 
19 1 1.44242e-06 8.38e-06 7.27e-06 2.78e-05 
12 1 1.5779e-06 4.47606e-05 1.77558e-05 3.09831e-05 
33 1 1.5877e-06 2.21e-05 1.54e-05 4.02e-05 
56 1 1.56835e-06 4.40416e-05 1.74451e-05 2.9621e-05 
3 1 1.77448e-06 3.06e-06 9.19e-05 2.45e-06 
6 1 1.97165e-06 3.06e-05 6.32e-05 2.56e-06 
16 1 1.57789e-06 3.25606e-05 6.24558e-05 1.06231e-05 
18 1 1.55656e-06 4.96e-05 9.67e-05 1.55e-05 
47 1 1.78486e-06 2.53e-06 6.17e-05 1.84e-05 
57 1 1.56835e-06 3.18416e-05 6.21451e-05 9.26099e-06 
48 1 1.59807e-06 2.44e-05 8.19e-05 2.02e-05 
31 1 1.73298e-06 4.68e-05 7.59e-05 2.59e-05 
35 1 1.59442e-06 3.48987e-06 8.75555e-05 2.64818e-05 
30 1 1.61342e-06 1.95634e-05 8.54668e-05 2.94922e-05 
36 1 1.93014e-06 2.13e-05 8.17e-05 3.06e-05 
49 1 1.59861e-06 2.22622e-05 7.97627e-05 3.76929e-05 
38 1 1.88863e-06 2.57e-05 6.66e-05 3.85e-05 
25 1 1.94052e-06 3.46e-05 7.9e-05 4.4e-05 
27 1 1.60845e-06 4.03e-05 8.78e-05 4.41e-05 
24 1 1.93014e-06 4.75e-05 5.45e-05 4.52e-05 
52 1 1.58477e-06 2.77231e-06 8.72454e-05 2.51223e-05 
53 1 1.56506e-06 1.96355e-05 8.53352e-05 2.79315e-05 
54 1 1.56374e-06 2.115e-05 8.02321e-05 3.86961e-05 
37 1 1.93014e-06 8.17e-05 4.42e-05 3.64e-06 
41 1 1.75373e-06 8.31e-05 2.83e-05 5.36e-06 
23 1 1.58616e-06 6.44602e-05 6.92567e-06 1.14825e-05 
45 1 1.90939e-06 7.3e-05 3.29e-06 1.6e-05 
43 1 1.77448e-06 5.73e-05 2.32e-05 1.75e-05 
46 1 1.60845e-06 5.24e-05 3.7e-05 1.74e-05 
55 1 1.57656e-06 6.3742e-05 6.61527e-06 1.01216e-05 
5 1 1.90939e-06 5.36e-05 3.84e-05 2.01e-05 
17 1 1.93014e-06 6.21e-05 3.61e-05 2.07e-05 
32 1 1.66034e-06 8.23e-05 2.67e-05 2.23e-05 
1 1 1.68109e-06 8e-05 4.34e-05 2.47e-05 
50 1 1.51506e-06 9.24e-05 4.38e-05 2.82e-05 
9 1 1.6292e-06 6.2e-05 1.85e-05 2.86e-05 
40 1 1.5967e-06 9.31634e-05 2.31669e-05 3.33938e-05 
42 1 1.59029e-06 8.43628e-05 3.15625e-05 3.47924e-05 
39 1 1.60268e-06 9.36687e-05 4.75593e-05 4.01985e-05 
4 1 1.55656e-06 6.52e-05 4.36e-06 4.29e-05 
2 1 1.94052e-06 7.75e-05 3.62e-05 4.31e-05 
51 1 1.59298e-06 9.29335e-05 4.72416e-05 3.88056e-05 
58 1 1.54884e-06 9.32355e-05 2.30351e-05 3.183e-05 
59 1 1.5556e-06 8.32495e-05 3.20323e-05 3.57965e-05 
28 1 1.89901e-06 6.57e-05 9.56e-05 5.81e-06 
29 1 1.46317e-06 9.24e-05 9.62e-05 9.02e-06 
15 1 1.76411e-06 7.07e-05 9.32e-05 1.69e-05 
7 1 1.88863e-06 5.47e-05 7.25e-05 1.79e-05 
13 1 1.55656e-06 8.57e-05 7.72e-05 1.76e-05 
21 1 1.81599e-06 8.4e-05 6.85e-05 1.94e-05 
8 1 1.70184e-06 6.7e-05 6.37e-05 2.01e-05 
10 1 1.48393e-06 6.97e-05 7.72e-05 2.27e-05 
20 1 1.52543e-06 5.16e-05 5.36e-05 3.15e-05 
11 1 1.69147e-06 6.82e-05 5.58e-05 3.96e-05 
ITEM: TIMESTEP
700
ITEM: NUMBER OF ATOMS
60
ITEM: BOX BOUNDS ff ff ff
0.0000000000000000e+00 1.0000000000000000e-04
0.0000000000000000e+00 1.0000000000000000e-04
0.0000000000000000e+00 5.0000000000000002e-05
ITEM: ATOMS id type diameter x y z 
14 1 1.68105e-06 2.2e-06 3.86e-05 5.08e-06 
44 1 1.67061e-06 3.2e-06 3.99e-05 7.65e-06 
26 1 1.53487e-06 2.1e-05 1.61e-05 1.08e-05 
22 1 1.93164e-06 2.88e-05 4.01e-05 1.97e-05 
34 1 1.48267e-06 3.41e-05 4.38e-05 2.42e-05 
19 1 1.45134e-06 8.38e-06 7.27e-06 2.78e-05 
12 1 1.58766e-06 4.47606e-05 1.77558e-05 3.09831e-05 
33 1 1.59752e-06 2.21e-05 1.54e-05 4.02e-05 
56 1 1.57805e-06 4.40416e-05 1.74451e-05 2.9621e-05 
3 1 1.78547e-06 3.06e-06 9.19e-05 2.45e-06 
6 1 1.59817e-06 3.05633e-05 6.3267e-05 3.35448e-06 
16 1 1.58766e-06 3.25606e-05 6.24558e-05 1.06231e-05 
18 1 1.5662e-06 4.96e-05 9.67e-05 1.55e-05 
47 1 1.79591e-06 2.53e-06 6.17e-05 1.84e-05 
57 1 1.57805e-06 3.18416e-05 6.21451e-05 9.26099e-06 
60 1 1.55027e-06 3.06356e-05 6.3135e-05 1.78933e-06 
48 1 1.60796e-06 2.44e-05 8.19e-05 2.02e-05 
31 1 1.7437e-06 4.68e-05 7.59e-05 2.59e-05 
35 1 1.60428e-06 3.49902e-06 8.75595e-05 2.64992e-05 
30 1 1.62341e-06 1.95625e-05 8.54685e-05 2.95121e-05 
36 1 1.94209e-06 2.13e-05 8.17e-05 3.06e-05 
49 1 1.60851e-06 2.22622e-05 7.97627e-05 3.76929e-05 
38 1 1.90032e-06 2.57e-05 6.66e-05 3.85e-05 
25 1 1.95253e-06 3.46e-05 7.9e-05 4.4e-05 
27 1 1.6184e-06 4.03e-05 8.78e-05 4.41e-05 
24 1 1.94209e-06 4.75e-05 5.45e-05 4.52e-05 
52 1 1.59458e-06 2.76316e-06 8.72415e-05 2.5105e-05 
53 1 1.57474e-06 1.96364e-05 8.53335e-05 2.79116e-05 
54 1 1.57342e-06 2.115e-05 8.02321e-05 3.86961e-05 
37 1 1.94209e-06 8.17e-05 4.42e-05 3.64e-06 
41 1 1.76458e-06 8.31e-05 2.83e-05 5.36e-06 
23 1 1.59597e-06 6.44602e-05 6.92567e-06 1.14825e-05 
45 1 1.9212e-06 7.3e-05 3.29e-06 1.6e-05 
43 1 1.78547e-06 5.73e-05 2.32e-05 1.75e-05 
46 1 1.6184e-06 5.24e-05 3.7e-05 1.74e-05 
55 1 1.58631e-06 6.3742e-05 6.61527e-06 1.01216e-05 
5 1 1.9212e-06 5.36e-05 3.84e-05 2.01e-05 
17 1 1.94209e-06 6.21e-05 3.61e-05 2.07e-05 
32 1 1.67061e-06 8.23e-05 2.67e-05 2.23e-05 
1 1 1.69149e-06 8e-05 4.34e-05 2.47e-05 
50 1 1.52443e-06 9.24e-05 4.38e-05 2.82e-05 
9 1 1.63929e-06 6.2e-05 1.85e-05 2.86e-05 
40 1 1.60658e-06 9.31634e-05 2.31669e-05 3.33938e-05 
42 1 1.60013e-06 8.43628e-05 3.15625e-05 3.47924e-05 
39 1 1.6126e-06 9.36687e-05 4.75593e-05 4.01985e-05 
4 1 1.5662e-06 6.52e-05 4.36e-06 4.29e-05 
2 1 1.95253e-06 7.75e-05 3.62e-05 4.31e-05 
51 1 1.60284e-06 9.29335e-05 4.72416e-05 3.88056e-05 
58 1 1.55842e-06 9.32355e-05 2.30351e-05 3.183e-05 
59 1 1.56523e-06 8.32495e-05 3.20323e-05 3.57965e-05 
28 1 1.91076e-06 6.57e-05 9.56e-05 5.81e-06 
29 1 1.47223e-06 9.24e-05 9.62e-05 9.02e-06 
15 1 1.77502e-06 7.07e-05 9.32e-05 1.69e-05 
7 1 1.90032e-06 5.47e-05 7.25e-05 1.79e-05 
13 1 1.5662e-06 8.57e-05 7.72e-05 1.76e-05 
21 1 1.82723e-06 8.4e-05 6.85e-05 1.94e-05 
8 1 1.71238e-06 6.7e-05 6.37e-05 2.01e-05 
10 1 1.49311e-06 6.97e-05 7.72e-05 2.27e-05 
20 1 1.53487e-06 5.16e-05 5.36e-05 3.15e-05 
11 1 1.70193e-06 6.82e-05 5.58e-05 3.96e-05 
ITEM: TIMESTEP
800
ITEM: NUMBER OF ATOMS
60
ITEM: BOX BOUNDS ff ff ff
0.0000000000000000e+00 1.0000000000000000e-04
0.0000000000000000e+00 1.0000000000000000e-04
0.0000000000000000e+00 5.0000000000000002e-05
ITEM: ATOMS id type diameter x y z 
14 1 1.69146e-06 2.2e-06 3.86e-05 5.08e-06 
44 1 1.68095e-06 3.2e-06 3.99e-05 7.65e-06 
26 1 1.54437e-06 2.1e-05 1.61e-05 1.08e-05 
22 1 1.9436e-06 2.88e-05 4.01e-05 1.97e-05 
34 1 1.49184e-06 3.41e-05 4.38e-05 2.42e-05 
19 1 1.46032e-06 8.38e-06 7.27e-06 2.78e-05 
12 1 1.59748e-06 4.47606e-05 1.77558e-05 3.09831e-05 
33 1 1.60741e-06 2.21e-05 1.54e-05 4.02e-05 
56 1 1.58782e-06 4.40416e-05 1.74451e-05 2.9621e-05 
3 1 1.79651e-06 3.06e-06 9.19e-05 2.45e-06 
6 1 1.60806e-06 3.05633e-05 6.3267e-05 3.35448e-06 
16 1 1.59748e-06 3.25606e-05 6.24558e-05 1.06231e-05 
18 1 1.57589e-06 4.96e-05 9.67e-05 1.55e-05 
47 1 1.80702e-06 2.53e-06 6.17e-05 1.84e-05 
57 1 1.58782e-06 3.18416e-05 6.21451e-05 9.26099e-06 
60 1 1.55986e-06 3.06356e-05 6.3135e-05 1.78933e-06 
48 1 1.61791e-06 2.44e-05 8.19e-05 2.02e-05 
31 1 1.75449e-06 4.68e-05 7.59e-05 2.59e-05 
35 1 1.61421e-06 3.49902e-06 8.75595e-05 2.64992e-05 
30 1 1.63345e-06 1.95625e-05 8.54685e-05 2.95121e-05 
36 1 1.9541e-06 2.13e-05 8.17e-05 3.06e-05 
49 1 1.61846e-06 2.22764e-05 7.97567e-05 3.76801e-05 
38 1 1.91208e-06 2.57e-05 6.66e-05 3.85e-05 
25 1 1.96461e-06 3.46e-05 7.9e-05 4.4e-05 
27 1 1.62842e-06 4.03e-05 8.78e-05 4.41e-05 
24 1 1.9541e-06 4.75e-05 5.45e-05 4.52e-05 
52 1 1.60444e-06 2.76316e-06 8.72415e-05 2.5105e-05 
53 1 1.58449e-06 1.96364e-05 8.53335e-05 2.79116e-05 
54 1 1.58316e-06 2.11359e-05 8.02381e-05 3.87088e-05 
37 1 1.9541e-06 8.17e-05 4.42e-05 3.64e-06 
41 1 1.7755e-06 8.31e-05 2.83e-05 5.36e-06 
23 1 1.60585e-06 6.44694e-05 6.92963e-06 1.14998e-05 
45 1 1.93309e-06 7.3e-05 3.29e-06 1.6e-05 
43 1 1.79651e-06 5.73e-05 2.32e-05 1.75e-05 
46 1 1.62842e-06 5.24e-05 3.7e-05 1.74e-05 
55 1 1.59613e-06 6.37328e-05 6.61131e-06 1.01043e-05 
5 1 1.93309e-06 5.36e-05 3.84e-05 2.01e-05 
17 1 1.9541e-06 6.21e-05 3.61e-05 2.07e-05 
32 1 1.68095e-06 8.23e-05 2.67e-05 2.23e-05 
1 1 1.70196e-06 8e-05 4.34e-05 2.47e-05 
50 1 1.53387e-06 9.24e-05 4.38e-05 2.82e-05 
9 1 1.64943e-06 6.2e-05 1.85e-05 2.86e-05 
40 1 1.61653e-06 9.31634e-05 2.31669e-05 3.33938e-05 
42 1 1.61003e-06 8.43628e-05 3.15625e-05 3.47924e-05 
39 1 1.62258e-06 9.36687e-05 4.75593e-05 4.01985e-05 
4 1 1.57589e-06 6.52e-05 4.36e-06 4.29e-05 
2 1 1.96461e-06 7.75e-05 3.62e-05 4.31e-05 
51 1 1.61276e-06 9.29335e-05 4.72416e-05 3.88056e-05 
58 1 1.56807e-06 9.32355e-05 2.30351e-05 3.183e-05 
59 1 1.57491e-06 8.32495e-05 3.20323e-05 3.57965e-05 
28 1 1.92259e-06 6.57e-05 9.56e-05 5.81e-06 
29 1 1.48134e-06 9.24e-05 9.62e-05 9.02e-06 
15 1 1.78601e-06 7.07e-05 9.32e-05 1.69e-05 
7 1 1.91208e-06 5.47e-05 7.25e-05 1.79e-05 
13 1 1.57589e-06 8.57e-05 7.72e-05 1.76e-05 
21 1 1.83854e-06 8.4e-05 6.85e-05 1.94e-05 
8 1 1.72297e-06 6.7e-05 6.37e-05 2.01e-05 
10 1 1.50235e-06 6.97e-05 7.72e-05 2.27e-05 
20 1 1.54437e-06 5.16e-05 5.36e-05 3.15e-05 
11 1 1.71247e-06 6.82e-05 5.58e-05 3.96e-05 
ITEM: TIMESTEP
900
ITEM: NUMBER OF ATOMS
62
ITEM: BOX BOUNDS ff ff ff
0.0000000000000000e+00 1.0000000000000000e-04
0.0000000000000000e+00 1.0000000000000000e-04
0.0000000000000000e+00 5.0000000000000002e-05
ITEM: ATOMS id type diameter x y z 
14 1 1.70192e-06 2.2e-06 3.86e-05 5.08e-06 
44 1 1.69135e-06 3.2e-06 3.99e-05 7.65e-06 
26 1 1.55393e-06 2.1e-05 1.61e-05 1.08e-05 
22 1 1.95563e-06 2.88e-05 4.01e-05 1.97e-05 
34 1 1.50107e-06 3.41e-05 4.38e-05 2.42e-05 
19 1 1.46936e-06 8.38e-06 7.27e-06 2.78e-05 
12 1 1.60737e-06 4.47697e-05 1.77598e-05 3.10005e-05 
33 1 1.61736e-06 2.21e-05 1.54e-05 4.02e-05 
56 1 1.59764e-06 4.40325e-05 1.74412e-05 2.96037e-05 
3 1 1.80763e-06 3.06e-06 9.19e-05 2.45e-06 
6 1 1.61801e-06 3.05633e-05 6.3267e-05 3.35448e-06 
16 1 1.60737e-06 3.25697e-05 6.24598e-05 1.06405e-05 
18 1 1.58564e-06 4.96e-05 9.67e-05 1.55e-05 
47 1 1.8182e-06 2.53e-06 6.17e-05 1.84e-05 
57 1 1.59764e-06 3.18325e-05 6.21412e-05 9.24365e-06 
60 1 1.56951e-06 3.06356e-05 6.3135e-05 1.78933e-06 
48 1 1.62793e-06 2.44e-05 8.19e-05 2.02e-05 
31 1 1.76535e-06 4.68e-05 7.59e-05 2.59e-05 
35 1 1.6242e-06 3.49902e-06 8.75595e-05 2.64992e-05 
30 1 1.64356e-06 1.95625e-05 8.54685e-05 2.95121e-05 
36 1 1.9662e-06 2.13e-05 8.17e-05 3.06e-05 
49 1 1.62848e-06 2.22764e-05 7.97567e-05 3.76801e-05 
38 1 1.92391e-06 2.57e-05 6.66e-05 3.85e-05 
25 1 1.6369e-06 3.43105e-05 7.84699e-05 4.45509e-05 
27 1 1.6385e-06 4.03e-05 8.78e-05 4.41e-05 
24 1 1.9662e-06 4.75e-05 5.45e-05 4.52e-05 
52 1 1.61437e-06 2.76316e-06 8.72415e-05 2.5105e-05 
53 1 1.59429e-06 1.96364e-05 8.53335e-05 2.79116e-05 
54 1 1.59296e-06 2.11359e-05 8.02381e-05 3.87088e-05 
61 1 1.49456e-06 3.48643e-05 7.9484e-05 4.3497e-05 
37 1 1.9662e-06 8.17e-05 4.42e-05 3.64e-06 
41 1 1.78649e-06 8.31e-05 2.83e-05 5.36e-06 
23 1 1.61579e-06 6.44694e-05 6.92963e-06 1.14998e-05 
45 1 1.94505e-06 7.3e-05 3.29e-06 1.6e-05 
43 1 1.80763e-06 5.73e-05 2.32e-05 1.75e-05 
46 1 1.6385e-06 5.24e-05 3.7e-05 1.74e-05 
55 1 1.60601e-06 6.37328e-05 6.61131e-06 1.01043e-05 
5 1 1.94505e-06 5.36e-05 3.84e-05 2.01e-05 
17 1 1.9662e-06 6.21e-05 3.61e-05 2.07e-05 
32 1 1.69135e-06 8.23e-05 2.67e-05 2.23e-05 
1 1 1.71249e-06 8e-05 4.34e-05 2.47e-05 
50 1 1.54336e-06 9.24e-05 4.38e-05 2.82e-05 
9 1 1.65964e-06 6.2e-05 1.85e-05 2.86e-05 
40 1 1.62653e-06 9.31624e-05 2.31686e-05 3.34137e-05 
42 1 1.61999e-06 8.43769e-05 3.15565e-05 3.47796e-05 
39 1 1.63262e-06 9.36687e-05 4.75593e-05 4.01985e-05 
4 1 1.58564e-06 6.52e-05 4.36e-06 4.29e-05 
2 1 1.6369e-06 7.72105e-05 3.56699e-05 4.36509e-05 
51 1 1.62274e-06 9.29335e-05 4.72416e-05 3.88056e-05 
58 1 1.57777e-06 9.32365e-05 2.30334e-05 3.18101e-05 
59 1 1.58466e-06 8.32353e-05 3.20383e-05 3.58093e-05 
62 1 1.49456e-06 7.77643e-05 3.6684e-05 4.2597e-05 
28 1 1.93448e-06 6.57e-05 9.56e-05 5.81e-06 
29 1 1.4905e-06 9.24e-05 9.62e-05 9.02e-06 
15 1 1.79706e-06 7.07e-05 9.32e-05 1.69e-05 
7 1 1.92391e-06 5.47e-05 7.25e-05 1.79e-05 
13 1 1.58564e-06 8.57e-05 7.72e-05 1.76e-05 
21 1 1.84992e-06 8.4e-05 6.85e-05 1.94e-05 
8 1 1.73364e-06 6.7e-05 6.37e-05 2.01e-05 
10 1 1.51165e-06 6.97e-05 7.72e-05 2.27e-05 
20 1 1.55393e-06 5.16e-05 5.36e-05 3.15e-05 
11 1 1.72306e-06 6.82e-05 5.58e-05 3.96e-05 
ITEM: TIMESTEP
1000
ITEM: NUMBER OF ATOMS
66
ITEM: BOX BOUNDS ff ff ff
0.0000000000000000e+00 1.0000000000000000e-04
0.0000000000000000e+00 1.0000000000000000e-04
0.0000000000000000e+00 5.0000000000000002e-05
ITEM: ATOMS id type diameter x y z 
14 1 1.71245e-06 2.2e-06 3.86e-05 5.08e-06 
44 1 1.70182e-06 3.2e-06 3.99e-05 7.65e-06 
26 1 1.56355e-06 2.1e-05 1.61e-05 1.08e-05 
22 1 1.96773e-06 2.88e-05 4.01e-05 1.97e-05 
34 1 1.51036e-06 3.41e-05 4.38e-05 2.42e-05 
19 1 1.47845e-06 8.38e-06 7.27e-06 2.78e-05 
56 1 1.60753e-06 4.40325e-05 1.74412e-05 2.96037e-05 
12 1 1.61732e-06 4.47697e-05 1.77598e-05 3.10005e-05 
33 1 1.62736e-06 2.21e-05 1.54e-05 4.02e-05 
60 1 1.57922e-06 3.06365e-05 6.31334e-05 1.76943e-06 
3 1 1.81882e-06 3.06e-06 9.19e-05 2.45e-06 
6 1 1.62803e-06 3.05624e-05 6.32686e-05 3.37439e-06 
57 1 1.60753e-06 3.18325e-05 6.21412e-05 9.24365e-06 
16 1 1.61732e-06 3.25697e-05 6.24598e-05 1.06405e-05 
18 1 1.59545e-06 4.96e-05 9.67e-05 1.55e-05 
47 1 1.82945e-06 2.53e-06 6.17e-05 1.84e-05 
48 1 1.638e-06 2.44e-05 8.19e-05 2.02e-05 
52 1 1.62436e-06 2.76316e-06 8.72415e-05 2.5105e-05 
31 1 1.77627e-06 4.68e-05 7.59e-05 2.59e-05 
35 1 1.63425e-06 3.49902e-06 8.75595e-05 2.64992e-05 
53 1 1.60416e-06 1.96364e-05 8.53335e-05 2.79116e-05 
30 1 1.65373e-06 1.95625e-05 8.54685e-05 2.95121e-05 
36 1 1.62528e-06 2.07753e-05 8.14435e-05 3.00363e-05 
63 1 1.51102e-06 2.17878e-05 8.19385e-05 3.1124e-05 
49 1 1.63855e-06 2.22764e-05 7.97567e-05 3.76801e-05 
38 1 1.93582e-06 2.57e-05 6.66e-05 3.85e-05 
54 1 1.60281e-06 2.11359e-05 8.02381e-05 3.87088e-05 
61 1 1.50381e-06 3.48643e-05 7.9484e-05 4.3497e-05 
24 1 1.49345e-06 4.74653e-05 5.43413e-05 4.44721e-05 
27 1 1.64864e-06 4.03e-05 8.78e-05 4.41e-05 
25 1 1.64703e-06 3.43105e-05 7.84699e-05 4.45509e-05 
64 1 1.64015e-06 4.75381e-05 5.46743e-05 4.59995e-05 
65 1 1.54598e-06 8.17355e-05 4.41352e-05 2.87147e-06 
37 1 1.59375e-06 8.16634e-05 4.42668e-05 4.43228e-06 
41 1 1.79755e-06 8.31e-05 2.83e-05 5.36e-06 
55 1 1.61595e-06 6.37328e-05 6.61131e-06 1.01043e-05 
23 1 1.62579e-06 6.44694e-05 6.92963e-06 1.14998e-05 
45 1 1.95709e-06 7.3e-05 3.29e-06 1.6e-05 
43 1 1.81882e-06 5.73e-05 2.32e-05 1.75e-05 
46 1 1.64864e-06 5.24e-05 3.7e-05 1.74e-05 
17 1 1.62528e-06 6.15753e-05 3.58435e-05 2.01363e-05 
5 1 1.95709e-06 5.36e-05 3.84e-05 2.01e-05 
66 1 1.51102e-06 6.25878e-05 3.63385e-05 2.1224e-05 