 NUFEB Simulation

     100 atoms 
     2 atom types 
     4 nutrients 

  0.0e-4   1.00e-04  xlo xhi 
  0.0e-4   1.00e-04  ylo yhi 
  0.0e-4   1.00e-05  zlo zhi 

 Atoms 

     1 1 1.50e-06  370 2.90e-05 9.70e-06 2.23e-06 1.50e-06 
     2 1 1.40e-06  370 7.69e-05 4.15e-05 1.56e-06 1.40e-06 
     3 1 1.45e-06  370 9.64e-05 3.94e-05 8.02e-06 1.45e-06 
     4 1 1.75e-06  370 6.73e-05 8.75e-05 3.58e-06 1.75e-06 
     5 1 1.79e-06  370 9.39e-06 7.94e-05 2.41e-06 1.79e-06 
     6 1 1.41e-06  370 4.51e-06 7.84e-05 2.72e-06 1.41e-06 
     7 1 1.65e-06  370 1.70e-05 6.80e-05 3.94e-06 1.65e-06 
     8 1 1.61e-06  370 6.87e-05 4.33e-05 7.36e-06 1.61e-06 
     9 1 1.69e-06  370 2.61e-05 3.67e-05 2.94e-06 1.69e-06 
     10 1 1.65e-06  370 5.44e-05 7.36e-06 7.91e-06 1.65e-06 
     11 1 1.45e-06  370 6.53e-05 4.36e-05 7.40e-06 1.45e-06 
     12 1 1.58e-06  370 5.54e-06 3.10e-05 3.01e-06 1.58e-06 
     13 1 1.83e-06  370 1.92e-05 2.21e-05 2.71e-06 1.83e-06 
     14 1 1.94e-06  370 2.03e-06 7.98e-05 3.45e-06 1.94e-06 
     15 1 1.53e-06  370 9.81e-06 5.85e-05 5.87e-06 1.53e-06 
     16 1 1.66e-06  370 3.75e-05 9.52e-05 6.98e-06 1.66e-06 
     17 1 1.92e-06  370 5.08e-05 4.82e-05 7.39e-06 1.92e-06 
     18 1 1.49e-06  370 4.27e-06 2.30e-05 5.94e-06 1.49e-06 
     19 1 1.72e-06  370 4.87e-05 1.32e-05 3.70e-06 1.72e-06 
     20 1 1.53e-06  370 1.65e-06 7.85e-05 5.71e-06 1.53e-06 
     21 1 1.67e-06  370 1.35e-05 9.53e-05 6.92e-06 1.67e-06 
     22 1 1.37e-06  370 3.27e-05 3.79e-05 2.63e-06 1.37e-06 
     23 1 1.73e-06  370 4.90e-05 1.35e-05 6.71e-06 1.73e-06 
     24 1 1.87e-06  370 5.81e-05 8.81e-05 6.95e-06 1.87e-06 
     25 1 1.50e-06  370 5.46e-05 6.55e-05 2.72e-06 1.50e-06 
     26 1 1.46e-06  370 2.90e-06 3.35e-05 1.60e-06 1.46e-06 
     27 1 1.51e-06  370 5.34e-05 8.78e-05 5.59e-06 1.51e-06 
     28 1 1.94e-06  370 5.82e-05 4.39e-05 3.05e-06 1.94e-06 
     29 1 1.76e-06  370 6.43e-05 8.80e-05 3.30e-06 1.76e-06 
     30 1 1.76e-06  370 2.82e-05 2.05e-05 1.87e-06 1.76e-06 
     31 1 1.85e-06  370 8.56e-05 6.07e-05 6.94e-06 1.85e-06 
     32 1 1.47e-06  370 9.06e-05 9.80e-05 7.75e-06 1.47e-06 
     33 1 1.78e-06  370 5.79e-05 6.90e-05 5.48e-06 1.78e-06 
     34 1 1.61e-06  370 3.62e-05 2.00e-05 3.31e-06 1.61e-06 
     35 1 1.66e-06  370 7.33e-05 7.70e-05 5.45e-06 1.66e-06 
     36 1 1.70e-06  370 4.81e-05 7.48e-05 5.04e-06 1.70e-06 
     37 1 1.41e-06  370 5.84e-05 5.34e-05 5.58e-06 1.41e-06 
     38 1 1.55e-06  370 8.53e-05 9.76e-05 4.03e-06 1.55e-06 
     39 1 1.42e-06  370 6.78e-05 7.22e-05 2.42e-06 1.42e-06 
     40 1 1.52e-06  370 3.17e-05 2.53e-06 3.18e-06 1.52e-06 
     41 1 1.54e-06  370 6.13e-05 4.24e-05 3.16e-06 1.54e-06 
     42 1 1.88e-06  370 6.39e-05 2.54e-05 4.90e-06 1.88e-06 
     43 1 1.41e-06  370 6.95e-05 3.81e-05 8.11e-06 1.41e-06 
     44 1 1.93e-06  370 2.95e-05 5.90e-05 7.34e-06 1.93e-06 
     45 1 1.92e-06  370 7.75e-05 1.02e-05 7.49e-06 1.92e-06 
     46 1 1.78e-06  370 5.98e-05 7.14e-05 6.37e-06 1.78e-06 
     47 1 1.37e-06  370 9.41e-05 9.61e-05 2.73e-06 1.37e-06 
     48 1 1.66e-06  370 8.49e-05 4.30e-05 8.01e-06 1.66e-06 
     49 1 1.62e-06  370 4.32e-05 1.67e-05 6.94e-06 1.62e-06 
     50 1 1.45e-06  370 8.09e-06 2.34e-05 3.49e-06 1.45e-06 
     51 2 1.36e-06  230 5.62e-05 9.15e-05 4.65e-06 1.36e-06 
     52 2 9.19e-07  230 7.19e-05 1.90e-05 6.36e-06 9.19e-07 
     53 2 1.00e-06  230 3.32e-05 7.58e-05 1.45e-06 1.00e-06 
     54 2 1.36e-06  230 2.98e-05 6.35e-05 1.69e-06 1.36e-06 
     55 2 9.13e-07  230 3.95e-06 5.52e-05 4.27e-06 9.13e-07 
     56 2 9.71e-07  230 8.54e-05 3.34e-05 3.52e-06 9.71e-07 
     57 2 1.19e-06  230 7.12e-05 8.40e-05 1.68e-06 1.19e-06 
     58 2 9.22e-07  230 8.07e-05 8.19e-06 4.37e-06 9.22e-07 
     59 2 9.64e-07  230 3.77e-05 8.48e-05 7.14e-06 9.64e-07 
     60 2 1.00e-06  230 8.30e-05 8.22e-05 5.76e-06 1.00e-06 
     61 2 1.37e-06  230 5.79e-05 5.72e-05 3.74e-06 1.37e-06 
     62 2 1.30e-06  230 7.21e-05 2.94e-05 5.39e-06 1.30e-06 
     63 2 1.28e-06  230 7.12e-05 2.06e-05 8.12e-06 1.28e-06 
     64 2 8.95e-07  230 7.97e-05 4.28e-05 1.07e-06 8.95e-07 
     65 2 1.05e-06  230 4.97e-05 1.65e-05 6.57e-06 1.05e-06 
     66 2 1.24e-06  230 2.63e-05 4.55e-05 3.97e-06 1.24e-06 
     67 2 9.05e-07  230 7.93e-05 3.16e-05 3.96e-06 9.05e-07 
     68 2 9.73e-07  230 3.39e-05 3.84e-05 2.92e-06 9.73e-07 
     69 2 9.37e-07  230 6.79e-05 5.52e-05 7.98e-06 9.37e-07 
     70 2 1.18e-06  230 8.12e-05 1.68e-05 8.27e-06 1.18e-06 
     71 2 1.29e-06  230 9.45e-05 8.48e-05 1.95e-06 1.29e-06 
     72 2 9.72e-07  230 7.98e-05 3.17e-06 1.48e-06 9.72e-07 
     73 2 1.13e-06  230 8.78e-05 2.59e-05 4.72e-06 1.13e-06 
     74 2 9.56e-07  230 9.40e-05 6.54e-05 1.60e-06 9.56e-07 
     75 2 8.92e-07  230 3.83e-05 3.02e-05 3.28e-06 8.92e-07 
     76 2 1.29e-06  230 8.03e-05 3.40e-05 8.42e-06 1.29e-06 
     77 2 1.00e-06  230 3.35e-05 2.38e-05 7.25e-06 1.00e-06 
     78 2 1.02e-06  230 1.38e-05 3.21e-05 3.73e-06 1.02e-06 
     79 2 1.15e-06  230 6.63e-05 8.80e-06 2.94e-06 1.15e-06 
     80 2 1.35e-06  230 8.48e-05 9.18e-06 5.32e-06 1.35e-06 
     81 2 1.18e-06  230 4.75e-05 5.28e-05 7.01e-06 1.18e-06 
     82 2 9.42e-07  230 4.60e-05 8.13e-05 5.93e-06 9.42e-07 
     83 2 8.82e-07  230 5.01e-05 5.26e-05 5.03e-06 8.82e-07 
     84 2 1.01e-06  230 1.75e-05 8.61e-05 7.34e-06 1.01e-06 
     85 2 1.06e-06  230 4.60e-05 7.65e-05 8.43e-06 1.06e-06 
     86 2 1.08e-06  230 4.20e-05 9.16e-05 1.83e-06 1.08e-06 
     87 2 9.54e-07  230 6.62e-05 1.90e-05 2.49e-06 9.54e-07 
     88 2 1.34e-06  230 8.19e-05 8.21e-05 7.12e-06 1.34e-06 
     89 2 1.19e-06  230 1.06e-05 1.98e-05 4.79e-06 1.19e-06 
     90 2 9.99e-07  230 1.19e-05 9.41e-05 1.28e-06 9.99e-07 
     91 2 1.07e-06  230 6.74e-05 2.93e-05 1.48e-06 1.07e-06 
     92 2 1.26e-06  230 1.25e-05 7.96e-05 2.27e-06 1.26e-06 
     93 2 1.03e-06  230 4.75e-05 4.94e-06 3.97e-06 1.03e-06 
     94 2 1.20e-06  230 9.63e-05 3.27e-05 6.27e-06 1.20e-06 
     95 2 1.05e-06  230 9.80e-05 4.46e-06 6.90e-06 1.05e-06 
     96 2 1.23e-06  230 8.97e-05 2.67e-05 6.15e-06 1.23e-06 
     97 2 1.31e-06  230 8.58e-05 5.36e-05 8.59e-06 1.31e-06 
     98 2 1.32e-06  230 1.34e-05 4.82e-05 6.19e-06 1.32e-06 
     99 2 1.26e-06  230 3.77e-05 1.41e-05 7.68e-06 1.26e-06 
     100 2 9.57e-07  230 7.04e-05 2.58e-05 2.81e-06 9.57e-07 

 Nutrients 

     1 sub g nn nn nn 1.00e-01 1.00e-01 
     2 o2 l nn nn nd 9.00e-03 9.00e-03 
     3 suc l nn nn nn 3.42e-20 3.42e-20 
     4 co2 l nn nn nd 2.99e-02 2.99e-02 

 Type Name 

     1 cyano  
     2 ecw  

 Diffusion Coeffs 

     sub 0 
     o2 2.3e-09 
     suc 5.2e-10 
     co2 1.9e-09 

 Growth Rate 

     cyano 1.67e-05 
     ecw 3e-05 

 Ks 

     cyano 0.00035 0.0002 0.01 0.000138 
     ecw 0 0.001 3.6 0.05 

 Yield 

     cyano 0.55 
     ecw 0.43 

 Maintenance 

     cyano 0 
     ecw 9.5e-07 

 Decay 

     cyano 0 
     ecw 0 



