LAMMPS (20 Nov 2019)
Reading data file ...
  orthogonal box = (0 0 0) to (0.0001 0.0001 1e-05)
  8 by 4 by 1 MPI processor grid
  reading atoms ...
  100 atoms
  4 nutrients
Lattice spacing in x,y,z = 100 100 100
50 atoms in group CYANO
50 atoms in group ECW
Model is defined as a closed system. 
Neighbor list info ...
  update every 1 steps, delay 0 steps, check yes
  max neighbors/atom: 5000, page size: 100000
  master list distance cutoff = 2.44e-06
  ghost atom cutoff = 2.44e-06
  binsize = 1.22e-06, bins = 82 82 9
  1 neighbor lists, perpetual/occasional/extra = 1 0 0
  (1) pair gran/hooke/history, perpetual
      attributes: half, newton off, size, history
      pair build: half/size/bin/newtoff
      stencil: half/bin/3d/newtoff
      bin: standard
Setting up Verlet run ...
  Unit style    : lj
  Current step  : 0
  Time step     : 10
Per MPI rank memory allocation (min/avg/max) = 6.792 | 10.33 | 12.11 Mbytes
Step CPU Atoms c_myNtypes[1] c_myNtypes[2] c_myMass[1] c_myMass[2] c_myCon[1] c_myCon[2] c_myCon[3] c_myCon[4] 
       0            0      100           50           50 4.3575751e-14 8.5498617e-15          0.1        0.009     3.42e-20       0.0299 
number of iterations: 324977 
     100    15.762827      127           50           77 4.4153227e-14 8.5447748e-15          0.1 0.0090007567  0.035012338   0.02989874 
number of iterations: 3854 
     200    16.089778      140           50           90 4.4738355e-14 8.5417172e-15          0.1 0.0090007666   0.06933799  0.029898723 
number of iterations: 2956 
     300    16.366881      140           50           90 4.5331237e-14 8.540769e-15          0.1 0.0090007767   0.10406722  0.029898706 
number of iterations: 2482 
     400    16.608566      142           52           90 4.5931977e-14 8.541916e-15          0.1 0.0090007835   0.13920757  0.029898694 
number of iterations: 2180 
     500    16.852866      143           53           90 4.6540677e-14 8.5451477e-15          0.1 0.0090007872   0.17476601  0.029898688 
number of iterations: 1965 
     600    17.088338      145           55           90 4.7157444e-14 8.550452e-15          0.1 0.0090007909   0.21074924  0.029898682 
number of iterations: 1802 
     700    17.303242      145           55           90 4.7782385e-14 8.5578184e-15          0.1 0.0090008012   0.24716392  0.029898665 
number of iterations: 1674 
     800    17.531733      145           55           90 4.8415607e-14 8.5672378e-15          0.1 0.0090008117    0.2840167  0.029898647 
number of iterations: 1571 
     900    17.734588      147           55           92 4.9057221e-14 8.5787025e-15          0.1 0.0090008224   0.32131425  0.029898629 
number of iterations: 1485 
    1000    17.966495      147           55           92 4.9707338e-14 8.5922061e-15          0.1 0.0090008332   0.35906327  0.029898611 
number of iterations: 1412 
    1100    18.161503      148           56           92 5.0366071e-14 8.6077494e-15          0.1 0.0090008441   0.39727052  0.029898593 
number of iterations: 1397 
    1200    18.362611      149           57           92 5.1033533e-14 8.6253235e-15          0.1 0.0090008552   0.43594287  0.029898574 
number of iterations: 1393 
    1300    18.547318      149           57           92 5.170984e-14 8.6449261e-15          0.1 0.0090008664   0.47508708  0.029898555 
number of iterations: 1396 
    1400    19.023985      149           57           92 5.239511e-14 8.6665563e-15          0.1 0.0090008778   0.51471005  0.029898536 
number of iterations: 1399 
    1500    19.284256      150           58           92 5.3089461e-14 8.6902146e-15          0.1 0.0090008893   0.55481874  0.029898517 
number of iterations: 1401 
    1600    19.482501      150           58           92 5.3793014e-14 8.715903e-15          0.1  0.009000901   0.59542015  0.029898497 
number of iterations: 1470 
    1700    19.687463      151           59           92 5.450589e-14 8.7436236e-15          0.1 0.0090009129   0.63652132  0.029898477 
number of iterations: 1407 
    1800    19.875108      151           59           92 5.5228214e-14 8.7733818e-15          0.1 0.0090009249   0.67812943  0.029898457 
number of iterations: 1410 
    1900    20.062631      151           59           92 5.596011e-14 8.8051832e-15          0.1  0.009000937   0.72025168  0.029898437 
number of iterations: 1413 
    2000    20.270725      153           59           94 5.6701706e-14 8.8390347e-15          0.1 0.0090009494   0.76289533  0.029898416 
number of iterations: 1415 
    2100    20.436568      153           59           94 5.7453129e-14 8.8749446e-15          0.1 0.0090009619   0.80606771  0.029898395 
number of iterations: 1418 
    2200    20.644396      154           60           94 5.821451e-14 8.9129184e-15          0.1 0.0090009745   0.84977619  0.029898374 
number of iterations: 1415 
    2300    20.817724      156           62           94 5.8985981e-14 8.9529688e-15          0.1 0.0090009824   0.89402829  0.029898361 
number of iterations: 1422 
    2400    20.997199      157           62           95 5.9767676e-14 8.9951108e-15          0.1 0.0090009953   0.93883157  0.029898339 
number of iterations: 1425 
    2500    21.175173      159           62           97 6.0559729e-14 9.0393565e-15          0.1 0.0090010084   0.98419364  0.029898317 
number of iterations: 1420 
    2600    21.364116      161           64           97 6.136228e-14 9.085719e-15          0.1 0.0090010168     1.030122  0.029898303 
number of iterations: 1491 
    2700    21.554891      163           65           98 6.2175466e-14 9.1342176e-15          0.1 0.0090010302    1.0766247  0.029898281 
number of iterations: 1433 
    2800    21.744788      163           65           98 6.2999428e-14 9.1848668e-15          0.1 0.0090010437    1.1237094  0.029898258 
number of iterations: 1436 
    2900    21.930736      164           65           99 6.383431e-14 9.2376854e-15          0.1 0.0090010575    1.1713843  0.029898235 
number of iterations: 1439 
    3000    22.166523      165           66           99 6.4680256e-14 9.2926921e-15          0.1 0.0090010714    1.2196572  0.029898212 
number of iterations: 1442 
    3100    22.417101      166           67           99 6.5537412e-14 9.3499075e-15          0.1 0.0090010855    1.2685363  0.029898188 
number of iterations: 1445 
    3200    22.600225      168           67          101 6.6405928e-14 9.4093534e-15          0.1 0.0090010998    1.3180298  0.029898164 
number of iterations: 1448 
    3300    22.795845      169           67          102 6.7285953e-14 9.4710529e-15          0.1 0.0090011143    1.3681459   0.02989814 
number of iterations: 1467 
    3400    22.988057      172           68          104 6.8177641e-14 9.5350295e-15          0.1  0.009001129     1.418893  0.029898115 
number of iterations: 1484 
    3500    23.168418      173           69          104 6.9081145e-14 9.6013098e-15          0.1 0.0090011438    1.4702795   0.02989809 
number of iterations: 1493 
    3600    23.370738      174           69          105 6.9996623e-14 9.6699199e-15          0.1 0.0090011589    1.5223141  0.029898065 
number of iterations: 1459 
    3700    23.546733      178           69          109 7.0924233e-14 9.7408874e-15          0.1 0.0090011742    1.5750052  0.029898039 
number of iterations: 1559 
    3800     23.86119      179           70          109 7.1864136e-14 9.8142421e-15          0.1 0.0090011912    1.6283617  0.029898011 
number of iterations: 1549 
    3900    24.050342      182           73          109 7.2816495e-14 9.8900176e-15          0.1 0.0090012114    1.6823924  0.029897977 
number of iterations: 1467 
    4000    24.267494      183           73          110 7.3781474e-14 9.9682437e-15          0.1 0.0090012274    1.7371061   0.02989795 
number of iterations: 1475 
    4100    24.450909      185           75          110 7.4759242e-14 1.0048954e-14          0.1 0.0090012336    1.7925119   0.02989794 
number of iterations: 1471 
    4200    24.636802      186           75          111 7.5749967e-14 1.0132184e-14          0.1 0.0090012499     1.848619  0.029897912 
number of iterations: 1474 
    4300    24.840354      187           75          112 7.6753821e-14 1.0217968e-14          0.1 0.0090012663    1.9054364  0.029897885 
number of iterations: 1482 
    4400    25.034504      189           77          112 7.7770979e-14 1.0306344e-14          0.1 0.0090012799    1.9629735  0.029897862 
number of iterations: 1478 
    4500    25.235048      191           79          112 7.8801616e-14 1.0397352e-14          0.1 0.0090012968    2.0212398  0.029897834 
number of iterations: 1481 
    4600    25.403738      194           82          112 7.9845911e-14 1.0491032e-14          0.1 0.0090013106    2.0802446  0.029897811 
number of iterations: 1489 
    4700    25.596339      197           83          114 8.0904046e-14 1.0587426e-14          0.1 0.0090013213    2.1399976  0.029897793 
number of iterations: 1487 
    4800    25.789222      199           83          116 8.1976203e-14 1.0686576e-14          0.1 0.0090013387    2.2005087  0.029897763 
number of iterations: 1490 
    4900     25.98807      201           83          118 8.3062568e-14 1.0788527e-14          0.1 0.0090013564    2.2617875  0.029897734 
number of iterations: 1493 
    5000    26.203429      202           83          119 8.4163331e-14 1.0893325e-14          0.1 0.0090013743    2.3238442  0.029897704 
number of iterations: 1589 
    5100    26.398512      206           85          121 8.5278681e-14 1.100101e-14          0.1 0.0090013922    2.3866886  0.029897674 
number of iterations: 1505 
    5200    26.576079      208           86          122 8.6408811e-14 1.111164e-14          0.1 0.0090014105     2.450331  0.029897643 
number of iterations: 1575 
    5300    26.773952      210           86          124 8.7553919e-14 1.1225264e-14          0.1 0.0090014331    2.5147817  0.029897605 
number of iterations: 1504 
    5400    26.972918      211           86          125 8.8714201e-14 1.1341935e-14          0.1  0.009001452    2.5800511  0.029897574 
number of iterations: 1650 
    5500    27.167013      213           88          125 8.988986e-14 1.1461708e-14          0.1 0.0090014734    2.6461494  0.029897538 
number of iterations: 1511 
    5600    27.383034      215           89          126 9.1081099e-14 1.1584635e-14          0.1 0.0090014929    2.7130875  0.029897505 
number of iterations: 1525 
    5700    27.577782      217           90          127 9.2288124e-14 1.1710778e-14          0.1 0.0090015126    2.7808762  0.029897472 
number of iterations: 1594 
    5800    27.759424      220           92          128 9.3511145e-14 1.1840192e-14          0.1 0.0090015226    2.8495265  0.029897455 
number of iterations: 1532 
    5900     27.93737      221           93          128 9.4750374e-14 1.1972941e-14          0.1 0.0090015427    2.9190492  0.029897421 
number of iterations: 1520 
    6000    28.118488      223           93          130 9.6006025e-14 1.2109086e-14          0.1 0.0090015631    2.9894554  0.029897387 
number of iterations: 1527 
    6100    28.321061      227           94          133 9.7278317e-14 1.2248692e-14          0.1 0.0090015837    3.0607561  0.029897353 
number of iterations: 1563 
    6200    28.559735      230           96          134 9.8567469e-14 1.2391825e-14          0.1 0.0090016058    3.1329631  0.029897316 
number of iterations: 1624 
    6300    28.865799      233           98          135 9.9873705e-14 1.2538556e-14          0.1  0.009001632    3.2060876  0.029897272 
number of iterations: 1525 
    6400    29.150267      235           99          136 1.0119725e-13 1.2688952e-14          0.1 0.0090016485    3.2801412  0.029897244 
number of iterations: 1610 
    6500    29.343202      237          100          137 1.0253834e-13 1.2843086e-14          0.1 0.0090016751    3.3551356    0.0298972 
number of iterations: 1612 
    6600    29.534441      240          102          138 1.038972e-13 1.3001033e-14          0.1 0.0090016995    3.4310829  0.029897159 
number of iterations: 1634 
    6700    29.770576      241          103          138 1.0527406e-13 1.3162867e-14          0.1 0.0090017153    3.5079948  0.029897132 
number of iterations: 1541 
    6800    29.942964      243          104          139 1.0666918e-13 1.3328667e-14          0.1 0.0090017355    3.5858836  0.029897098 
number of iterations: 1544 
    6900     30.12474      245          105          140 1.0808278e-13 1.3498515e-14          0.1 0.0090017584    3.6647616   0.02989706 
number of iterations: 1544 
    7000    30.313171      250          109          141 1.0951511e-13 1.3672492e-14          0.1 0.0090017748     3.744641  0.029897032 
number of iterations: 1548 
    7100    30.532303      251          109          142 1.1096643e-13 1.3850685e-14          0.1 0.0090017982    3.8255346  0.029896993 
number of iterations: 1616 
    7200    30.723361      256          113          143 1.1243698e-13 1.4033183e-14          0.1 0.0090018149    3.9074551  0.029896965 
number of iterations: 1554 
    7300    30.911459      259          114          145 1.1392702e-13 1.4220072e-14          0.1 0.0090018388    3.9904152  0.029896925 
number of iterations: 1553 
    7400    31.077772      263          116          147 1.154368e-13 1.4411449e-14          0.1 0.0090018583    4.0744281  0.029896892 
number of iterations: 1581 
    7500    31.282047      266          118          148 1.1696659e-13 1.4607406e-14          0.1  0.009001884    4.1595067  0.029896849 
number of iterations: 1562 
    7600    31.484392      269          118          151 1.1851666e-13 1.4808039e-14          0.1 0.0090019088    4.2456642  0.029896807 
number of iterations: 1575 
    7700    31.682355      273          121          152 1.2008726e-13 1.501345e-14          0.1 0.0090019358    4.3329138  0.029896762 
number of iterations: 1613 
    7800     31.88172      280          123          157 1.2167868e-13 1.5223739e-14          0.1 0.0090019613    4.4212695  0.029896719 
number of iterations: 1569 
    7900    32.085521      283          125          158 1.2329119e-13 1.5439017e-14          0.1 0.0090019842    4.5107447  0.029896681 
number of iterations: 1651 
    8000    32.316503      284          126          158 1.2492507e-13 1.5659385e-14          0.1 0.0090020137    4.6013533  0.029896631 
number of iterations: 1575 
    8100    32.536296      289          129          160 1.265806e-13 1.5884955e-14          0.1 0.0090020334    4.6931093  0.029896598 
number of iterations: 1578 
    8200    32.737177      294          129          165 1.2825808e-13 1.6115836e-14          0.1 0.0090020602    4.7860268  0.029896553 
number of iterations: 1581 
    8300     32.92349      302          133          169 1.2995778e-13 1.6352152e-14          0.1 0.0090020865    4.8801204  0.029896509 
number of iterations: 1583 
    8400    33.103415      305          133          172   1.3168e-13 1.6594017e-14          0.1 0.0090021071    4.9754042  0.029896474 
number of iterations: 1587 
    8500    33.285038      311          134          177 1.3342505e-13 1.6841554e-14          0.1 0.0090021334    5.0718929   0.02989643 
number of iterations: 1631 
    8600    33.487187      317          135          182 1.3519323e-13 1.7094888e-14          0.1 0.0090021661    5.1696011  0.029896375 
number of iterations: 1670 
    8700    33.680487      323          138          185 1.3698483e-13 1.7354149e-14          0.1 0.0090022025    5.2685438  0.029896314 
number of iterations: 1623 
    8800     34.02261      331          142          189 1.3880018e-13 1.7619471e-14          0.1 0.0090022364    5.3687359  0.029896257 
number of iterations: 1598 
    8900    34.206361      334          143          191 1.4063959e-13 1.7890989e-14          0.1 0.0090022659    5.4701927  0.029896208 
number of iterations: 1598 
    9000    34.376883      340          145          195 1.4250338e-13 1.8168841e-14          0.1 0.0090022927    5.5729299  0.029896163 
number of iterations: 1603 
    9100    34.573109      342          145          197 1.4439186e-13 1.8453167e-14          0.1 0.0090023229    5.6769629  0.029896112 
number of iterations: 1604 
    9200    34.762297      347          146          201 1.4630537e-13 1.8744116e-14          0.1 0.0090023535    5.7823072  0.029896061 
number of iterations: 1607 
    9300    34.942932      353          147          206 1.4824423e-13 1.9041838e-14          0.1 0.0090023798    5.8889791  0.029896016 
number of iterations: 1611 
    9400    35.137096      361          150          211 1.502088e-13 1.934649e-14          0.1  0.009002408    5.9969941  0.029895969 
number of iterations: 1671 
    9500    35.325821      367          152          215 1.5219939e-13 1.9658226e-14          0.1 0.0090024434    6.1063686   0.02989591 
number of iterations: 1616 
    9600    35.511741      371          153          218 1.5421637e-13 1.9977208e-14          0.1 0.0090024689    6.2171189  0.029895867 
number of iterations: 1619 
    9700    35.691455      374          154          220 1.5626007e-13 2.0303602e-14          0.1 0.0090024983    6.3292618  0.029895817 
number of iterations: 1619 
    9800    35.879761      382          158          224 1.5833086e-13 2.0637579e-14          0.1 0.0090025189    6.4428139  0.029895782 
number of iterations: 1663 
    9900    36.077033      386          159          227 1.6042909e-13 2.0979316e-14          0.1  0.009002555    6.5577921  0.029895722 
number of iterations: 1628 
   10000    36.264036      388          159          229 1.6255513e-13 2.132899e-14          0.1 0.0090025886    6.6742135  0.029895665 
number of iterations: 1725 
   10100    36.484235      392          160          232 1.6470934e-13 2.1686783e-14          0.1 0.0090026272    6.7920953    0.0298956 
number of iterations: 1654 
   10200    36.672021      398          162          236 1.668921e-13 2.2052884e-14          0.1 0.0090026649     6.911455  0.029895537 
number of iterations: 1649 
   10300    36.870617      401          163          238 1.6910379e-13 2.2427484e-14          0.1 0.0090026957    7.0323102  0.029895485 
number of iterations: 1638 
   10400      37.0626      410          165          245 1.7134478e-13 2.2810782e-14          0.1 0.0090027278    7.1546787  0.029895431 
number of iterations: 1640 
   10500    37.251048      416          166          250 1.7361548e-13 2.3202978e-14          0.1 0.0090027591    7.2785784  0.029895378 
number of iterations: 1834 
   10600    37.460345      429          175          254 1.7591626e-13 2.3604288e-14          0.1 0.0090027985    7.4040274  0.029895312 
number of iterations: 1653 
   10700    37.656028      435          179          256 1.7824754e-13 2.4014921e-14          0.1 0.0090028341    7.5310442  0.029895252 
number of iterations: 1655 
   10800    37.856638      437          179          258 1.8060971e-13 2.4435095e-14          0.1 0.0090028714    7.6596471  0.029895189 
number of iterations: 1687 
   10900    38.051125      444          181          263 1.8300318e-13 2.4865035e-14          0.1 0.0090029091     7.789855  0.029895126 
number of iterations: 1635 
   11000    38.235187      453          184          269 1.8542838e-13 2.5304971e-14          0.1 0.0090029458    7.9216865  0.029895064 
number of iterations: 1700 
   11100    38.440265      457          187          270 1.8788571e-13 2.5755137e-14          0.1 0.0090029892    8.0551609  0.029894991 
number of iterations: 1718 
   11200    38.652679      466          189          277 1.903756e-13 2.6215783e-14          0.1 0.0090030412    8.1902973  0.029894904 
number of iterations: 1669 
   11300    38.962602      473          192          281 1.928985e-13 2.6687154e-14          0.1 0.0090030715    8.3271152  0.029894853 
number of iterations: 1743 
   11400    39.202331      482          193          289 1.9545482e-13 2.7169497e-14          0.1 0.0090031159    8.4656338  0.029894778 
number of iterations: 1697 
   11500    39.401642      488          195          293 1.9804503e-13 2.7663076e-14          0.1 0.0090031609    8.6058731  0.029894702 
number of iterations: 1672 
   11600    39.592015      493          196          297 2.0066956e-13 2.8168156e-14          0.1 0.0090031929    8.7478533  0.029894648 
number of iterations: 1690 
   11700    39.810998      497          197          300 2.0332887e-13 2.8685014e-14          0.1 0.0090032387    8.8915944  0.029894571 
number of iterations: 1750 
   11800    40.017481      507          202          305 2.0602342e-13 2.9213928e-14          0.1 0.0090032838    9.0371167  0.029894495 
number of iterations: 1725 
   11900    40.229784      514          207          307 2.0875368e-13 2.9755183e-14          0.1 0.0090033244    9.1844409  0.029894427 
number of iterations: 1688 
   12000    40.434132      519          208          311 2.1152012e-13 3.0309077e-14          0.1 0.0090033673    9.3335878  0.029894354 
number of iterations: 1688 
   12100    40.640505      526          211          315 2.1432323e-13 3.0875912e-14          0.1 0.0090034099    9.4845782  0.029894282 
number of iterations: 1750 
   12200     40.84147      535          213          322 2.1716348e-13 3.1455998e-14          0.1 0.0090034695     9.637433  0.029894182 
number of iterations: 1712 
   12300    41.041436      548          218          330 2.2004137e-13 3.2049656e-14          0.1 0.0090035169    9.7921735  0.029894102 
number of iterations: 1753 
   12400    41.252116      559          219          340 2.229574e-13 3.2657209e-14          0.1 0.0090035706    9.9488215  0.029894012 
number of iterations: 1752 
   12500    41.452572      571          223          348 2.2591207e-13 3.3278994e-14          0.1 0.0090036171    10.107399  0.029893934 
number of iterations: 1692 
   12600    41.643372      591          227          364 2.289059e-13 3.3915358e-14          0.1 0.0090036648    10.267927  0.029893853 
number of iterations: 1697 
   12700    41.828176      601          231          370 2.319394e-13 3.4566648e-14          0.1  0.009003703    10.430428  0.029893789 
number of iterations: 1731 
   12800    42.041196      607          232          375 2.350131e-13 3.5233224e-14          0.1 0.0090037517    10.594924  0.029893706 
number of iterations: 1711 
   12900    42.275046      624          235          389 2.3812754e-13 3.5915455e-14          0.1 0.0090037966    10.761438  0.029893631 
number of iterations: 1743 
   13000    42.500812      631          236          395 2.4128325e-13 3.6613719e-14          0.1 0.0090038506    10.929993   0.02989354 
number of iterations: 1709 
   13100    42.715681      640          239          401 2.4448078e-13 3.7328401e-14          0.1 0.0090038999    11.100611  0.029893456 
number of iterations: 1750 
   13200    42.913495      650          243          407 2.4772068e-13  3.80599e-14          0.1 0.0090039512    11.273315   0.02989337 
number of iterations: 1763 
   13300    43.107073      658          247          411 2.5100352e-13 3.8808626e-14          0.1 0.0090040046    11.448129   0.02989328 
number of iterations: 1813 
   13400    43.313216      671          249          422 2.5432986e-13 3.9574996e-14          0.1 0.0090040688    11.625075  0.029893172 
number of iterations: 1829 
   13500    43.520492      682          252          430 2.5770029e-13 4.0359442e-14          0.1 0.0090041269    11.804178  0.029893074 
number of iterations: 1755 
   13600    43.724006      699          260          439 2.6111538e-13 4.1162402e-14          0.1 0.0090041853    11.985461  0.029892975 
number of iterations: 1747 
   13700    44.102398      710          263          447 2.6457573e-13 4.1984326e-14          0.1 0.0090042438    12.168949  0.029892876 
number of iterations: 1745 
   13800      44.3032      726          269          457 2.6808193e-13 4.2825672e-14          0.1 0.0090043031    12.354665  0.029892776 
number of iterations: 1786 
   13900    44.498557      737          273          464 2.716346e-13 4.3686916e-14          0.1 0.0090043631    12.542634  0.029892675 
number of iterations: 1755 
   14000    44.719911      744          275          469 2.7523435e-13 4.4568544e-14          0.1 0.0090044203    12.732881  0.029892578 
number of iterations: 1764 
   14100    44.915311      756          279          477 2.788818e-13 4.5471057e-14          0.1  0.009004477    12.925429  0.029892483 
number of iterations: 1750 
   14200    45.131655      768          281          487 2.8257759e-13 4.6394969e-14          0.1 0.0090045308    13.120304  0.029892391 
number of iterations: 1752 
   14300    45.329461      778          284          494 2.8632236e-13 4.7340805e-14          0.1 0.0090045853    13.317531  0.029892299 
number of iterations: 1741 
   14400    45.530017      797          290          507 2.9011676e-13 4.8309103e-14          0.1 0.0090046375    13.517136  0.029892211 
number of iterations: 1749 
   14500    45.730813      810          293          517 2.9396143e-13 4.9300411e-14          0.1 0.0090046939    13.719143  0.029892115 
number of iterations: 1782 
   14600    45.947778      832          298          534 2.9785706e-13 5.0315289e-14          0.1 0.0090047459    13.923579  0.029892027 
number of iterations: 1762 
   14700    46.133884      844          302          542 3.0180431e-13 5.1354322e-14          0.1 0.0090048053     14.13047  0.029891926 
number of iterations: 1764 
   14800     46.36662      859          307          552 3.0580388e-13 5.2418099e-14          0.1 0.0090048631     14.33984  0.029891829 
number of iterations: 1766 
   14900    46.568271      872          309          563 3.0985644e-13 5.3507228e-14          0.1 0.0090049274    14.551718   0.02989172 
number of iterations: 1796 
   15000    46.796992      891          315          576 3.1396271e-13 5.4622344e-14          0.1 0.0090049963    14.766129  0.029891603 
number of iterations: 1819 
   15100    46.994789      908          322          586 3.181234e-13 5.5764074e-14          0.1 0.0090050673    14.983098  0.029891483 
number of iterations: 1773 
   15200    47.210249      926          324          602 3.2233922e-13 5.6933078e-14          0.1 0.0090051318    15.202654  0.029891374 
number of iterations: 1828 
   15300    47.404375      943          330          613 3.2661092e-13 5.8130034e-14          0.1 0.0090052098    15.424822  0.029891242 
number of iterations: 1759 
   15400    47.606061      956          333          623 3.3093922e-13 5.9355629e-14          0.1 0.0090052578     15.64963   0.02989116 
number of iterations: 1820 
   15500    47.800761      969          339          630 3.3532488e-13 6.0610576e-14          0.1  0.009005322    15.877105  0.029891051 
number of iterations: 1805 
   15600    47.982361      989          341          648 3.3976866e-13 6.1895594e-14          0.1  0.009005402    16.107274  0.029890916 
number of iterations: 1789 
   15700    48.198319     1011          345          666 3.4427133e-13 6.321143e-14          0.1  0.009005476    16.340164  0.029890791 
number of iterations: 1855 
   15800    48.412176     1032          345          687 3.4883367e-13 6.4558843e-14          0.1 0.0090055552    16.575804  0.029890656 
number of iterations: 1795 
   15900    48.624621     1042          347          695 3.5345648e-13 6.5938614e-14          0.1 0.0090056279     16.81422  0.029890533 
number of iterations: 1803 
   16000    48.826265     1061          348          713 3.5814054e-13 6.7351547e-14          0.1 0.0090057015    17.055442  0.029890408 
number of iterations: 1798 
   16100    49.205882     1078          352          726 3.6288668e-13 6.8798461e-14          0.1 0.0090057735    17.299497  0.029890286 
number of iterations: 1799 
   16200    49.424733     1092          357          735 3.6769571e-13  7.02802e-14          0.1  0.009005846    17.546412  0.029890163 
number of iterations: 1840 
   16300    49.659076     1113          358          755 3.7256847e-13 7.1797623e-14          0.1 0.0090059213    17.796217  0.029890035 
number of iterations: 1824 
   16400    49.869165     1136          365          771 3.7750581e-13 7.3351622e-14          0.1 0.0090059972     18.04894  0.029889906 
number of iterations: 1822 
   16500    50.072376     1157          372          785 3.8250858e-13  7.49431e-14          0.1 0.0090060706    18.304609  0.029889782 
number of iterations: 1829 
   16600    50.266035     1186          377          809 3.8757764e-13 7.657299e-14          0.1 0.0090061616    18.563253  0.029889627 
number of iterations: 1824 
   16700    50.473214     1202          382          820 3.9271388e-13 7.8242254e-14          0.1 0.0090062468    18.824901  0.029889483 
number of iterations: 1896 
   16800    50.709869     1223          383          840 3.9791819e-13 7.9951871e-14          0.1 0.0090063284    19.089581  0.029889344 
number of iterations: 1844 
   16900    50.925482     1251          391          860 4.0319146e-13 8.1702845e-14          0.1 0.0090064065    19.357323  0.029889211 
number of iterations: 1814 
   17000    51.134054     1278          398          880 4.0853462e-13 8.3496209e-14          0.1 0.0090064781    19.628154  0.029889089 
number of iterations: 1850 
   17100    51.341832     1308          402          906 4.1394858e-13 8.5333019e-14          0.1 0.0090065628    19.902106  0.029888945 
number of iterations: 1834 
   17200    51.568752     1335          403          932 4.1943429e-13 8.7214358e-14          0.1 0.0090066446    20.179206  0.029888806 
number of iterations: 1835 
   17300    51.773002     1347          405          942 4.249927e-13 8.9141337e-14          0.1 0.0090067314    20.459484  0.029888658 
number of iterations: 1837 
   17400    51.980775     1369          411          958 4.3062477e-13 9.1115099e-14          0.1 0.0090068182     20.74297   0.02988851 
number of iterations: 1875 
   17500    52.198091     1402          422          980 4.3633148e-13 9.3136811e-14          0.1 0.0090069079    21.029693  0.029888358 
number of iterations: 1894 
   17600     52.45708     1437          431         1006 4.4211381e-13 9.5207661e-14          0.1 0.0090070046    21.319682  0.029888193 
number of iterations: 1875 
   17700    52.697415     1468          442         1026 4.4797277e-13 9.7328885e-14          0.1 0.0090071162    21.612968  0.029888004 
number of iterations: 1869 
   17800    52.910021     1497          449         1048 4.5390937e-13 9.9501744e-14          0.1 0.0090072184    21.909578   0.02988783 
number of iterations: 1853 
   17900    53.120274     1520          452         1068 4.5992464e-13 1.0172752e-13          0.1 0.0090073125    22.209543   0.02988767 
number of iterations: 1894 
   18000    53.336514     1549          459         1090 4.6601963e-13 1.0400755e-13          0.1 0.0090073998    22.512893  0.029887521 
number of iterations: 1867 
   18100     53.54304     1579          465         1114 4.7219539e-13 1.0634318e-13          0.1 0.0090074944    22.819658   0.02988736 
number of iterations: 1875 
   18200    53.761421     1609          473         1136  4.78453e-13 1.0873581e-13          0.1 0.0090075852    23.129865  0.029887205 
number of iterations: 1922 
   18300    54.110714     1647          485         1162 4.8479353e-13 1.1118686e-13          0.1 0.0090076779    23.443546  0.029887046 
number of iterations: 1907 
   18400    54.346634     1681          492         1189 4.9121808e-13 1.136978e-13          0.1  0.009007778     23.76073  0.029886875 
number of iterations: 1872 
   18500    54.576284     1713          497         1216 4.9772778e-13 1.1627014e-13          0.1 0.0090078905    24.081445  0.029886684 
number of iterations: 1866 
   18600    54.807316     1753          504         1249 5.0432374e-13 1.1890541e-13          0.1 0.0090079897    24.405723  0.029886514 
number of iterations: 1876 
   18700    55.032929     1786          508         1278 5.1100711e-13 1.216052e-13          0.1 0.0090080916    24.733591   0.02988634 
number of iterations: 1900 
   18800    55.246281     1816          515         1301 5.1777905e-13 1.2437112e-13          0.1 0.0090081935     25.06508  0.029886166 
number of iterations: 1878 
   18900    55.477445     1856          523         1333 5.2464073e-13 1.2720483e-13          0.1 0.0090082836    25.400218  0.029886011 
number of iterations: 1931 
   19000    55.713923     1894          535         1359 5.3159334e-13 1.3010804e-13          0.1  0.009008404    25.739035  0.029885806 
number of iterations: 1960 
   19100    55.940547     1940          547         1393 5.3863809e-13 1.330825e-13          0.1 0.0090085215    26.081561  0.029885605 
number of iterations: 1904 
   19200    56.167031     1981          554         1427 5.457762e-13   1.3613e-13          0.1 0.0090086423    26.427823  0.029885399 
number of iterations: 1905 
   19300    56.381249     2029          562         1467 5.530089e-13 1.3925238e-13          0.1 0.0090087693     26.77785  0.029885182 
number of iterations: 1894 
   19400    56.640017     2058          565         1493 5.6033745e-13 1.4245152e-13          0.1 0.0090088803    27.131671  0.029884992 
number of iterations: 1931 
   19500    56.880328     2111          573         1538 5.6776311e-13 1.4572935e-13          0.1 0.0090089865    27.489315   0.02988481 
number of iterations: 1950 
   19600    57.110293     2158          581         1577 5.7528719e-13 1.4908784e-13          0.1 0.0090091026    27.850809  0.029884611 
number of iterations: 1924 
   19700    57.353889     2197          584         1613 5.8291097e-13 1.5252903e-13          0.1 0.0090092152    28.216182  0.029884418 
number of iterations: 1915 
   19800    57.574534     2237          593         1644 5.9063578e-13  1.56055e-13          0.1 0.0090093383    28.585462  0.029884207 
number of iterations: 1907 
   19900    57.805979     2283          601         1682 5.9846297e-13 1.5966789e-13          0.1 0.0090094575    28.958676  0.029884003 
number of iterations: 1933 
   20000    58.038011     2330          603         1727 6.0639388e-13 1.633699e-13          0.1  0.009009581    29.335852  0.029883791 
number of iterations: 1938 
   20100    58.278342     2369          610         1759 6.1442989e-13 1.6716326e-13          0.1 0.0090097017    29.717016  0.029883584 
number of iterations: 1904 
   20200    58.509334     2410          616         1794 6.2142722e-13 1.7105025e-13          0.1 0.0090097955    30.101317  0.029883421 
number of iterations: 1918 
   20300    58.751319     2457          620         1837 6.2966246e-13 1.7503326e-13          0.1 0.0090099145    30.489649  0.029883217 
number of iterations: 1931 
   20400    59.191213     2500          626         1874 6.3800682e-13 1.7911471e-13          0.1 0.0090100408    30.882036  0.029882999 
number of iterations: 1935 
   20500     59.45124     2554          632         1922 6.4646177e-13 1.8329709e-13          0.1 0.0090101668    31.278506  0.029882783 
number of iterations: 1920 
   20600    59.664682     2604          645         1959 6.5502876e-13 1.8758293e-13          0.1 0.0090102916    31.679082  0.029882568 
number of iterations: 1957 
   20700    59.899324     2664          654         2010 6.6370929e-13 1.9197487e-13          0.1 0.0090104285    32.083789  0.029882333 
number of iterations: 1990 
   20800    60.124742     2724          662         2062 6.7250484e-13 1.9647557e-13          0.1 0.0090105787    32.492652  0.029882075 
number of iterations: 1953 
   20900    60.349981     2785          674         2111 6.8141696e-13 2.0108778e-13          0.1 0.0090107393    32.905694    0.0298818 
number of iterations: 1959 
   21000    60.586468     2847          683         2164 6.9044718e-13 2.0581434e-13          0.1 0.0090108876    33.322939  0.029881546 
number of iterations: 1979 
   21100    60.828801     2898          691         2207 6.9959706e-13 2.1065812e-13          0.1 0.0090110341    33.744411  0.029881293 
number of iterations: 1952 
   21200    61.093553     2955          699         2256 7.088682e-13 2.1562209e-13          0.1 0.0090111741    34.170131  0.029881053 
number of iterations: 1957 
   21300    61.325891     3023          710         2313 7.1826221e-13 2.207093e-13          0.1  0.009011322     34.60012  0.029880798 
number of iterations: 1951 
   21400    61.556267     3090          711         2379 7.2640057e-13 2.2592282e-13          0.1 0.0090114301    35.033342  0.029880609 
number of iterations: 1968 
   21500     61.77508     3148          718         2430 7.3602692e-13 2.3126587e-13          0.1 0.0090115912    35.470861  0.029880332 
number of iterations: 1954 
   21600    62.005756     3211          726         2485 7.4578083e-13 2.3674173e-13          0.1 0.0090117288    35.912698  0.029880093 
number of iterations: 1962 
   21700    62.241252     3279          736         2543  7.55664e-13 2.4235376e-13          0.1 0.0090118779     36.35887  0.029879836 
number of iterations: 1953 
   21800    62.499223     3345          745         2600 7.6567814e-13 2.4810541e-13          0.1 0.0090119969    36.809398  0.029879628 
number of iterations: 1969 
   21900    62.733439     3432          754         2678 7.7582499e-13 2.5400022e-13          0.1 0.0090121536    37.264297  0.029879358 
number of iterations: 1979 
   22000    62.984736     3499          766         2733 7.8610631e-13 2.6004181e-13          0.1 0.0090123285    37.723585  0.029879057 
number of iterations: 1963 
   22100    63.220009     3577          774         2803 7.9652388e-13 2.662339e-13          0.1 0.0090124882    38.187277   0.02987878 
number of iterations: 1971 
   22200    63.443047     3655          782         2873 8.070795e-13 2.7258033e-13          0.1 0.0090126594    38.655389  0.029878485 
number of iterations: 1984 
   22300    63.678219     3726          789         2937  8.17775e-13 2.7908498e-13          0.1 0.0090128193    39.127934  0.029878208 
number of iterations: 1963 
   22400    63.975584     3801          796         3005 8.2861224e-13 2.8575188e-13          0.1 0.0090129677    39.604924   0.02987795 
number of iterations: 1988 
   22500    64.339094     3897          808         3089 8.3959309e-13 2.9258514e-13          0.1 0.0090131387    40.086372  0.029877653 
number of iterations: 1990 
   22600    64.571729     3965          819         3146 8.5071946e-13 2.9958896e-13          0.1 0.0090133157    40.572288  0.029877347 
number of iterations: 1992 
   22700    64.813746     4060          830         3230 8.6199328e-13 3.0676771e-13          0.1 0.0090134963    41.062682  0.029877034 
number of iterations: 2012 
   22800    65.050151     4161          841         3320 8.734165e-13 3.141258e-13          0.1 0.0090136818    41.557564  0.029876713 
number of iterations: 1998 
   22900    65.299583     4256          860         3396 8.849911e-13 3.216678e-13          0.1  0.009013844    42.056941   0.02987643 
number of iterations: 1987 
   23000    65.537081     4343          873         3470 8.9671909e-13 3.2939837e-13          0.1 0.0090140116    42.560819  0.029876138 
number of iterations: 2033 
   23100    65.782836     4443          889         3554 9.086025e-13 3.3732231e-13          0.1 0.0090142009    43.069203   0.02987581 
number of iterations: 2008 
   23200    66.008423     4547          905         3642 9.2064338e-13 3.454445e-13          0.1 0.0090143923    43.582096  0.029875478 
number of iterations: 2019 
   23300     66.27028     4654          919         3735 9.3284383e-13   3.5377e-13          0.1 0.0090145938    44.099501  0.029875129 
number of iterations: 1994 
   23400     66.56963     4744          935         3809 9.4520597e-13 3.6230396e-13          0.1 0.0090147385    44.621418  0.029874874 
number of iterations: 2050 
   23500    66.807872     4847          952         3895 9.5773192e-13 3.7105169e-13          0.1 0.0090149365    45.147847  0.029874529 
number of iterations: 1989 
   23600    67.061333     4929          963         3966 9.7042387e-13 3.8001862e-13          0.1 0.0090151062    45.678785  0.029874231 
number of iterations: 2024 
   23700    67.307127     5044          980         4064 9.8328401e-13 3.8921034e-13          0.1 0.0090152856    46.214229  0.029873917 
number of iterations: 2034 
   23800    67.615675     5164          994         4170 9.9631457e-13 3.9863254e-13          0.1 0.0090154854    46.754172  0.029873569 
number of iterations: 2069 
   23900    67.862191     5300         1011         4289 1.0095178e-12 4.082911e-13          0.1 0.0090157138    47.298608  0.029873173 
number of iterations: 2025 
   24000    68.124934     5412         1028         4384 1.022896e-12 4.1819205e-13          0.1 0.0090159039    47.847527  0.029872839 
number of iterations: 2097 
   24100    68.406631     5520         1044         4476 1.0364515e-12 4.2834154e-13          0.1 0.0090161424    48.400919  0.029872425 
number of iterations: 2022 
   24200     68.64748     5640         1051         4589 1.0501867e-12 4.3874589e-13          0.1 0.0090163483    48.958769  0.029872065 
number of iterations: 2069 
   24300    68.898494     5782         1065         4717 1.0641038e-12 4.4941157e-13          0.1 0.0090165589    49.521062  0.029871696 
number of iterations: 2045 
   24400    69.439993     5896         1078         4818 1.0782054e-12 4.6034525e-13          0.1 0.0090167659    50.087782  0.029871333 
number of iterations: 2033 
   24500    69.711569     6033         1092         4941 1.0911293e-12 4.7155365e-13          0.1 0.0090169501    50.657861  0.029871008 
number of iterations: 2055 
   24600    69.977645     6168         1109         5059 1.1055891e-12 4.8304383e-13          0.1 0.0090171675    51.232312  0.029870627 
number of iterations: 2036 
   24700    70.228358     6314         1122         5192 1.1202404e-12 4.9474091e-13          0.1 0.0090173718    51.811157  0.029870267 
number of iterations: 2037 
   24800    70.502458     6457         1134         5323 1.1350859e-12 5.0681432e-13          0.1 0.0090175759    52.394324  0.029869906 
number of iterations: 2044 
   24900    70.748915     6614         1146         5468 1.1501281e-12 5.1907485e-13          0.1 0.0090177891    52.981849   0.02986953 
number of iterations: 2040 
   25000    71.011078     6766         1163         5603 1.1653697e-12 5.3176073e-13          0.1 0.0090179952    53.573637  0.029869166 
number of iterations: 2074 
   25100    71.293574     6912         1171         5741 1.1808133e-12 5.4476599e-13          0.1 0.0090182111    54.169653  0.029868784 
number of iterations: 2070 
   25200    71.567034     7065         1183         5882 1.1952758e-12 5.5809874e-13          0.1 0.0090184455    54.768951  0.029868372 
number of iterations: 2051 
   25300    71.844308     7225         1199         6026 1.2111156e-12 5.7176735e-13          0.1 0.0090186894    55.372388  0.029867943 
number of iterations: 2083 
   25400    72.161486     7392         1218         6174 1.2271654e-12 5.8578037e-13          0.1 0.0090189172    55.979922   0.02986754 
number of iterations: 2059 
   25500    72.512462     7555         1236         6319 1.2434279e-12 6.0014652e-13          0.1 0.0090191439    56.591506  0.029867137 
number of iterations: 2078 
   25600    72.824477     7727         1251         6476 1.2599059e-12 6.1487484e-13          0.1 0.0090193751     57.20709  0.029866728 
number of iterations: 2102 
   25700    73.121397     7888         1265         6623 1.2755779e-12 6.2985924e-13          0.1 0.0090196011    57.825902  0.029866326 
number of iterations: 2046 
   25800    73.390171     8050         1275         6775 1.2924819e-12 6.4533691e-13          0.1 0.0090198228    58.448597  0.029865931 
number of iterations: 2084 
   25900    73.650804     8219         1286         6933 1.3096099e-12 6.6120503e-13          0.1 0.0090200752    59.075116  0.029865483 
number of iterations: 2080 
   26000    73.968672     8390         1301         7089 1.3269649e-12 6.774736e-13          0.1 0.0090203101    59.705395  0.029865064 
number of iterations: 2082 
   26100     74.28694     8598         1319         7279  1.34455e-12 6.9415283e-13          0.1  0.009020568    60.339366  0.029864607 
number of iterations: 2101 
   26200     74.57619     8804         1331         7473 1.362368e-12 7.1125312e-13          0.1 0.0090208119    60.976957  0.029864173 
number of iterations: 2069 
   26300     74.87374     8993         1352         7641 1.3804222e-12 7.2878524e-13          0.1 0.0090210585    61.618096  0.029863733 
number of iterations: 2086 
   26400    75.155991     9185         1374         7811 1.3987156e-12 7.4676018e-13          0.1  0.009021319    62.262702  0.029863268 
number of iterations: 2079 
   26500    75.432404     9397         1390         8007 1.4172514e-12 7.6518925e-13          0.1 0.0090215771    62.910691  0.029862807 
number of iterations: 2095 
   26600    75.720744     9626         1412         8214 1.4360329e-12 7.8408402e-13          0.1 0.0090218404    63.561976  0.029862337 
number of iterations: 2136 
   26700     76.00464     9863         1431         8432 1.4537595e-12 8.0345628e-13          0.1 0.0090221282    64.215462  0.029861824 
number of iterations: 2068 
   26800    76.288248    10098         1456         8642 1.4730248e-12 8.2331823e-13          0.1 0.0090223734    64.872042  0.029861383 
number of iterations: 2069 
   26900    76.559882    10309         1464         8845 1.4925454e-12 8.4325822e-13          0.1 0.0090226202    65.531854  0.029860938 
number of iterations: 2111 
   27000    76.896199    10557         1482         9075 1.5123246e-12 8.6412688e-13          0.1 0.0090229172    66.194557  0.029860408 
number of iterations: 2109 
   27100    77.194098    10787         1497         9290 1.532366e-12 8.8552338e-13          0.1 0.0090232005    66.860036    0.0298599 
number of iterations: 2126 
   27200    77.514812    11036         1514         9522 1.552673e-12 9.0746117e-13          0.1 0.0090235252    67.528175  0.029859322 
number of iterations: 2154 
   27300    77.804234    11307         1539         9768 1.573249e-12 9.2985491e-13          0.1 0.0090238394    68.198908  0.029858761 
number of iterations: 2155 
   27400    78.099399    11554         1555         9999 1.5940978e-12 9.5291467e-13          0.1 0.0090241602     68.87205  0.029858187 
number of iterations: 2143 
   27500    78.408445    11811         1573        10238 1.6152228e-12 9.7655814e-13          0.1 0.0090244704    69.547466  0.029857631 
number of iterations: 2117 
   27600    78.711778    12090         1602        10488 1.6366278e-12 1.0008002e-12          0.1 0.0090247872    70.225015  0.029857062 
number of iterations: 2072 
   27700    79.016069    12386         1622        10764 1.6583164e-12 1.0255825e-12          0.1 0.0090250532    70.904595  0.029856577 
number of iterations: 2147 
   27800    79.353721    12657         1640        11017 1.6791422e-12 1.0509262e-12          0.1 0.0090253636    71.585206  0.029856016 
number of iterations: 2099 
   27900    79.671631    12953         1658        11295 1.7002417e-12 1.0769476e-12          0.1 0.0090256432    72.266661  0.029855507 
number of iterations: 2168 
   28000    80.051813    13248         1679        11569 1.7227734e-12 1.1037322e-12          0.1 0.0090259673    72.949604  0.029854921 
number of iterations: 2132 
   28100    80.370146    13573         1704        11869 1.7447128e-12 1.1311954e-12          0.1 0.0090263082    73.633179  0.029854307 
number of iterations: 2120 
   28200    80.683281    13900         1731        12169 1.7678337e-12 1.1593545e-12          0.1 0.0090266303    74.317878  0.029853724 
number of iterations: 2159 
   28300    80.996442    14223         1757        12466 1.7912611e-12 1.1882272e-12          0.1 0.0090269909    75.003513  0.029853074 
number of iterations: 2147 
   28400    81.355795    14549         1775        12774 1.8149989e-12 1.2175116e-12          0.1 0.0090273432    75.690073  0.029852437 
number of iterations: 2175 
   28500    81.701394    14901         1805        13096 1.8390512e-12 1.2478587e-12          0.1 0.0090276992    76.377176  0.029851793 
number of iterations: 2137 
   28600     82.03594    15248         1829        13419 1.8634223e-12 1.2788814e-12          0.1 0.0090280499    77.064662  0.029851156 
number of iterations: 2170 
   28700     82.39043    15608         1857        13751 1.8881164e-12 1.3107845e-12          0.1 0.0090283847    77.752256  0.029850545 
number of iterations: 2173 
   28800    82.772316    15983         1888        14095 1.9116648e-12 1.3434965e-12          0.1 0.0090286992    78.438599  0.029849965 
number of iterations: 2139 
   28900    83.112095    16352         1900        14452 1.9369982e-12 1.3770381e-12          0.1 0.0090290373     79.12457  0.029849346 
number of iterations: 2161 
   29000    83.456543    16741         1931        14810 1.9613832e-12 1.4111882e-12          0.1 0.0090293819    79.809076  0.029848714 
number of iterations: 2162 
   29100    83.793927    17121         1961        15160 1.9873755e-12 1.4463516e-12          0.1 0.0090297411    80.492752  0.029848057 
number of iterations: 2170 
   29200    84.183662    17533         1995        15538 2.0137121e-12 1.4823997e-12          0.1 0.0090301268    81.175337  0.029847353 
number of iterations: 2158 
   29300    84.569189    17968         2020        15948 2.0391939e-12 1.5190438e-12          0.1 0.0090304863    81.855817  0.029846693 
number of iterations: 2198 
   29400    84.929325    18376         2048        16328 2.0662172e-12 1.5569343e-12          0.1 0.0090308832    82.534641  0.029845968 
number of iterations: 2147 
   29500    85.283894    18870         2076        16794 2.0926999e-12 1.5957729e-12          0.1 0.0090312105    83.210831  0.029845357 
number of iterations: 2156 
   29600    85.692586    19283         2100        17183 2.1204323e-12 1.6356226e-12          0.1 0.0090315427    83.884747  0.029844736 
number of iterations: 2192 
   29700    86.085435    19736         2138        17598 2.1477419e-12 1.6764645e-12          0.1 0.0090319268    84.555475  0.029844025 
number of iterations: 2122 
   29800    86.466383    20206         2170        18036 2.1753523e-12 1.718304e-12          0.1 0.0090322569    85.222656  0.029843405 
number of iterations: 2210 
   29900    86.900025    20657         2191        18466 2.2041801e-12 1.7612649e-12          0.1  0.009032682    85.886561  0.029842624 
number of iterations: 2173 
   30000    87.292418    21160         2220        18940 2.2333898e-12 1.8052803e-12          0.1 0.0090330612    86.546856  0.029841917 
number of iterations: 2197 
   30100     87.70205    21644         2246        19398 2.2610806e-12 1.8504372e-12          0.1 0.0090334428    87.201698  0.029841206 
number of iterations: 2203 
   30200    88.090058    22157         2276        19881 2.289548e-12 1.8965349e-12          0.1 0.0090338148    87.851121  0.029840508 
number of iterations: 2200 
   30300    88.478977    22677         2302        20375 2.318916e-12 1.9439332e-12          0.1 0.0090342287     88.49505  0.029839737 
number of iterations: 2198 
   30400    88.882133    23215         2334        20881 2.3486784e-12 1.9926275e-12          0.1 0.0090346126    89.133018  0.029839015 
number of iterations: 2206 
   30500    89.333735    23761         2353        21408 2.379803e-12 2.0424186e-12          0.1 0.0090350199    89.765421   0.02983825 
number of iterations: 2232 
   30600     89.85179    24306         2384        21922  2.41134e-12 2.0933656e-12          0.1 0.0090354403    90.391891  0.029837465 
number of iterations: 2201 
   30700    90.261419    24902         2414        22488 2.443295e-12 2.1456502e-12          0.1 0.0090358857     91.01196  0.029836634 
number of iterations: 2232 
   30800    90.686788    25535         2447        23088 2.4746172e-12 2.1993477e-12          0.1 0.0090363344    91.624301  0.029835794 
number of iterations: 2217 
   30900     91.15551    26139         2479        23660 2.5074106e-12 2.2540985e-12          0.1 0.0090367413    92.229423  0.029835022 
number of iterations: 2187 
   31000    91.631122    26768         2510        24258 2.5397527e-12 2.3102068e-12          0.1 0.0090371188    92.826175  0.029834297 
number of iterations: 2207 
   31100    92.067512    27389         2544        24845 2.5734093e-12 2.3677449e-12          0.1 0.0090375482     93.41472  0.029833483 
number of iterations: 2245 
   31200    92.576484    28036         2579        25457 2.6063748e-12 2.4270187e-12          0.1 0.0090380366    93.993504  0.029832569 
number of iterations: 2238 
   31300    93.039041    28711         2614        26097 2.6409143e-12 2.4877984e-12          0.1 0.0090385424    94.562841  0.029831622 
number of iterations: 2244 
   31400    93.551436    29396         2644        26752 2.6738946e-12 2.5497284e-12          0.1 0.0090390185    95.120857  0.029830724 
number of iterations: 2230 
   31500    94.011063    30088         2670        27418 2.7080513e-12 2.6135728e-12          0.1 0.0090394349    95.667329  0.029829921 
number of iterations: 2225 
   31600     94.50213    30825         2699        28126 2.7439382e-12 2.6784407e-12          0.1 0.0090398996    96.202974  0.029829036 
number of iterations: 2182 
   31700    94.987559    31558         2739        28819 2.7769942e-12 2.7455068e-12          0.1 0.0090402784    96.724325  0.029828289 
number of iterations: 2189 
   31800    95.463352    32332         2773        29559 2.8117526e-12 2.8134921e-12          0.1 0.0090406364    97.232149  0.029827574 
number of iterations: 2243 
   31900    95.994432    33104         2806        30298 2.8480266e-12 2.883685e-12          0.1 0.0090411152    97.726306  0.029826657 
number of iterations: 2208 
   32000     96.48474    33902         2843        31059 2.8846757e-12 2.9560839e-12          0.1 0.0090415418    98.205784  0.029825823 
number of iterations: 2254 
   32100    96.998571    34711         2878        31833 2.9229032e-12 3.0298617e-12          0.1 0.0090420184    98.670984  0.029824905 
number of iterations: 2242 
   32200    97.518017    35523         2915        32608 2.9616372e-12 3.1050121e-12          0.1  0.009042446     99.12148  0.029824064 
number of iterations: 2286 
   32300    98.057544    36345         2949        33396 3.0008845e-12 3.1827887e-12          0.1 0.0090430109    99.556124  0.029822992 
number of iterations: 2267 
   32400    98.612392    37180         2973        34207 3.0393853e-12 3.2623248e-12          0.1 0.0090434618    99.973304  0.029822103 
number of iterations: 2272 
   32500    99.366512    38066         3016        35050 3.0775259e-12 3.3435797e-12          0.1 0.0090439386    100.37173  0.029821169 
number of iterations: 2264 
   32600    99.963229    38940         3064        35876 3.118309e-12 3.4271844e-12          0.1 0.0090444314    100.75206  0.029820206 
number of iterations: 2239 
   32700    100.54634    39853         3102        36751 3.1573414e-12 3.5119449e-12          0.1 0.0090448695    101.11227  0.029819329 
number of iterations: 2257 
   32800    101.16715    40859         3141        37718 3.1991821e-12 3.5997806e-12          0.1 0.0090453484     101.4527  0.029818378 
number of iterations: 2261 
   32900    101.76987    41818         3170        38648 3.2398098e-12 3.6898774e-12          0.1 0.0090458164    101.77111  0.029817443 
number of iterations: 2280 
   33000    102.39605    42830         3210        39620 3.2827434e-12 3.7812499e-12          0.1 0.0090463335    102.06851  0.029816425 
number of iterations: 2252 
   33100    103.03201    43864         3252        40612 3.3239804e-12 3.875461e-12          0.1 0.0090467801    102.34194  0.029815519 
number of iterations: 2274 
   33200    103.66731    44959         3293        41666 3.3654853e-12 3.9723023e-12          0.1 0.0090472782    102.59007  0.029814524 
number of iterations: 2254 
   33300    104.43253    46011         3332        42679 3.4078113e-12 4.071282e-12          0.1 0.0090477625    102.81229  0.029813547 
number of iterations: 2283 
   33400    105.12143    47155         3384        43771 3.451122e-12 4.1719575e-12          0.1 0.0090482802    103.00835  0.029812515 
number of iterations: 2306 
   33500     105.8021    48324         3426        44898 3.4939799e-12 4.2754998e-12          0.1 0.0090488555    103.17625  0.029811379 
number of iterations: 2272 
   33600    106.49984    49469         3490        45979 3.5390459e-12 4.3819805e-12          0.1 0.0090493474    103.31595  0.029810377 
number of iterations: 2299 
   33700    107.20688    50671         3527        47144 3.5840747e-12 4.4909165e-12          0.1 0.0090498602    103.42602   0.02980934 
number of iterations: 2267 
   33800    107.92332    51880         3567        48313 3.6304405e-12 4.6025544e-12          0.1 0.0090503358     103.5059  0.029808355 
number of iterations: 2286 
   33900    108.67892    53106         3604        49502 3.6785506e-12 4.7162407e-12          0.1 0.0090508559    103.55574  0.029807293 
number of iterations: 2278 
   34000    109.51838    54391         3653        50738 3.7261704e-12 4.8324944e-12          0.1 0.0090513513    103.57368   0.02980627 
number of iterations: 2295 
   34100    110.26747    55731         3714        52017 3.7723842e-12 4.9523267e-12          0.1 0.0090518791    103.55657  0.029805187 
number of iterations: 2295 
   34200    111.05704    57068         3769        53299 3.8216778e-12 5.0742737e-12          0.1 0.0090524756    103.50556  0.029803986 
number of iterations: 2287 
   34300    111.85876    58415         3818        54597 3.8691268e-12 5.1996272e-12          0.1 0.0090529521    103.41726  0.029802982 
number of iterations: 2294 
   34400      112.716    59817         3876        55941 3.9182614e-12 5.3290477e-12          0.1 0.0090534655    103.29062  0.029801908 
number of iterations: 2299 
   34500    113.55873    61240         3930        57310 3.9671695e-12 5.4592605e-12          0.1 0.0090539782    103.12503  0.029800829 
number of iterations: 2299 
   34600    114.46032    62709         3977        58732 4.0176523e-12 5.5941792e-12          0.1 0.0090545602    102.91899  0.029799632 
number of iterations: 2292 
   34700    115.35514    64180         4026        60154 4.068247e-12 5.7316673e-12          0.1 0.0090550916    102.67112  0.029798518 
number of iterations: 2268 
   34800    116.25713    65631         4089        61542 4.119745e-12 5.8720528e-12          0.1 0.0090556122    102.38046  0.029797418 
number of iterations: 2300 
   34900    117.18245    67149         4130        63019 4.1699603e-12 6.0164688e-12          0.1 0.0090562251    102.04372  0.029796157 
number of iterations: 2322 
   35000    118.11254    68756         4182        64574 4.2228158e-12 6.1635977e-12          0.1 0.0090568104     101.6614  0.029794937 
Loop time of 118.113 on 32 procs for 35000 steps with 68756 atoms

Performance: 256026907.598 tau/day, 296.327 timesteps/s
91.9% CPU use with 32 MPI tasks x no OpenMP threads

MPI task timing breakdown:
Section |  min time  |  avg time  |  max time  |%varavg| %total
---------------------------------------------------------------
Pair    | 0.29799    | 1.602      | 5.0076     |  98.8 |  1.36
Neigh   | 0.10697    | 0.59421    | 1.6555     |  51.9 |  0.50
Comm    | 0.43473    | 0.7575     | 1.0986     |  20.2 |  0.64
Output  | 35.945     | 35.945     | 35.952     |   0.0 | 30.43
Modify  | 73.538     | 73.739     | 74.023     |   1.6 | 62.43
Other   |            | 5.475      |            |       |  4.64

Nlocal:    2148.62 ave 4747 max 624 min
Histogram: 6 5 5 1 6 3 2 2 0 2
Nghost:    1267.97 ave 2745 max 509 min
Histogram: 6 5 4 7 3 3 1 1 1 1
Neighs:    16945.5 ave 44684 max 4492 min
Histogram: 8 7 2 5 4 1 2 1 0 2

Total # of neighbors = 542257
Ave neighs/atom = 7.88669
Neighbor list builds = 746
Dangerous builds = 0
Total wall time: 0:01:58
