ITEM: TIMESTEP
0
ITEM: NUMBER OF ATOMS
50
ITEM: BOX BOUNDS ff ff ff
0.0000000000000000e+00 1.0000000000000000e-04
0.0000000000000000e+00 1.0000000000000000e-04
0.0000000000000000e+00 5.0000000000000002e-05
ITEM: ATOMS id type diameter x y z 
4 1 1.44e-06 3.27e-06 4.11e-06 4.78e-06 
39 1 1.73e-06 3.16e-05 4.15e-05 5.31e-06 
12 1 1.5e-06 1.26e-05 3.74e-05 1e-05 
5 1 1.56e-06 1.96e-06 4.91e-05 1.11e-05 
2 1 1.43e-06 2.61e-05 2.29e-05 1.16e-05 
19 1 1.68e-06 4.17e-05 1.94e-05 1.35e-05 
15 1 1.54e-06 3.78e-05 6.53e-06 1.38e-05 
27 1 1.55e-06 3.78e-05 1.89e-05 2.05e-05 
11 1 1.61e-06 3.38e-05 3.98e-05 2.35e-05 
31 1 1.47e-06 2.2e-05 5.6e-06 2.37e-05 
49 1 1.67e-06 2.45e-05 4.74e-05 2.58e-05 
14 1 1.65e-06 4.81e-05 3.95e-05 2.82e-05 
6 1 1.87e-06 3.62e-05 2.07e-06 3.9e-05 
36 1 1.84e-06 3.05e-05 2.06e-05 3.85e-05 
29 1 1.9e-06 8.26e-06 8.39e-05 3.7e-06 
18 1 1.53e-06 2.8e-05 8.64e-05 3.86e-06 
50 1 1.59e-06 2.86e-05 5.26e-05 7.43e-06 
13 1 1.44e-06 3.13e-05 6.66e-05 8.33e-06 
22 1 1.9e-06 4.19e-05 6.56e-05 1.09e-05 
23 1 1.5e-06 1.87e-05 7.89e-05 1.71e-05 
24 1 1.84e-06 3.92e-05 6.57e-05 1.84e-05 
37 1 1.88e-06 3.39e-05 8.44e-05 2.32e-05 
20 1 1.78e-06 4.35e-05 8.19e-05 2.42e-05 
48 1 1.92e-06 9.46e-06 6.78e-05 2.82e-05 
38 1 1.4e-06 4.17e-06 5.45e-05 3.57e-05 
3 1 1.89e-06 4.2e-05 6.05e-05 4.06e-05 
32 1 1.67e-06 4.14e-05 6.62e-05 4.64e-05 
21 1 1.68e-06 8.53e-05 3.53e-05 4e-06 
35 1 1.65e-06 9.75e-05 1.15e-05 4.27e-06 
1 1 1.93e-06 6.06e-05 3.9e-05 1.56e-05 
44 1 1.59e-06 8.64e-05 3.31e-05 1.77e-05 
7 1 1.54e-06 6.7e-05 2.2e-05 2.23e-05 
42 1 1.75e-06 9.33e-05 2.36e-05 2.36e-05 
43 1 1.39e-06 8.14e-05 3.18e-05 2.49e-05 
47 1 1.43e-06 9.18e-05 3.03e-05 2.5e-05 
33 1 1.86e-06 5.94e-05 1.99e-05 2.77e-05 
46 1 1.66e-06 6.24e-05 3.31e-05 2.77e-05 
28 1 1.81e-06 8.26e-05 4.47e-06 2.84e-05 
34 1 1.5e-06 7.36e-05 3.13e-05 3.45e-05 
8 1 1.65e-06 5.45e-05 4.24e-05 3.81e-05 
26 1 1.76e-06 7.34e-05 4.3e-05 4.05e-05 
41 1 1.7e-06 7.36e-05 2.09e-05 4.32e-05 
25 1 1.94e-06 6.72e-05 1.87e-05 4.79e-05 
16 1 1.52e-06 5.41e-05 5.29e-05 3.27e-06 
40 1 1.76e-06 5.32e-05 7.81e-05 2.08e-05 
30 1 1.46e-06 9.47e-05 7.97e-05 2.14e-05 
9 1 1.77e-06 9.07e-05 8.92e-05 2.34e-05 
45 1 1.42e-06 9.63e-05 8.73e-05 3.74e-05 
17 1 1.63e-06 8.44e-05 5.43e-05 4.08e-05 
10 1 1.57e-06 5.02e-05 6.64e-05 4.39e-05 
ITEM: TIMESTEP
100
ITEM: NUMBER OF ATOMS
50
ITEM: BOX BOUNDS ff ff ff
0.0000000000000000e+00 1.0000000000000000e-04
0.0000000000000000e+00 1.0000000000000000e-04
0.0000000000000000e+00 5.0000000000000002e-05
ITEM: ATOMS id type diameter x y z 
4 1 1.44776e-06 3.27e-06 4.11e-06 4.78e-06 
39 1 1.73932e-06 3.16e-05 4.15e-05 5.31e-06 
12 1 1.50808e-06 1.26e-05 3.74e-05 1e-05 
5 1 1.5684e-06 1.96e-06 4.91e-05 1.11e-05 
2 1 1.4377e-06 2.61e-05 2.29e-05 1.16e-05 
19 1 1.68905e-06 4.17e-05 1.94e-05 1.35e-05 
15 1 1.54829e-06 3.78e-05 6.53e-06 1.38e-05 
27 1 1.55835e-06 3.78e-05 1.89e-05 2.05e-05 
11 1 1.61867e-06 3.38e-05 3.98e-05 2.35e-05 
31 1 1.47792e-06 2.2e-05 5.6e-06 2.37e-05 
49 1 1.67899e-06 2.45e-05 4.74e-05 2.58e-05 
14 1 1.65889e-06 4.81e-05 3.95e-05 2.82e-05 
6 1 1.88007e-06 3.62e-05 2.07e-06 3.9e-05 
36 1 1.84991e-06 3.05e-05 2.06e-05 3.85e-05 
29 1 1.91023e-06 8.26e-06 8.39e-05 3.7e-06 
18 1 1.53824e-06 2.8e-05 8.64e-05 3.86e-06 
50 1 1.59856e-06 2.86e-05 5.26e-05 7.43e-06 
13 1 1.44776e-06 3.13e-05 6.66e-05 8.33e-06 
22 1 1.91023e-06 4.19e-05 6.56e-05 1.09e-05 
23 1 1.50808e-06 1.87e-05 7.89e-05 1.71e-05 
24 1 1.84991e-06 3.92e-05 6.57e-05 1.84e-05 
37 1 1.89012e-06 3.39e-05 8.44e-05 2.32e-05 
20 1 1.78959e-06 4.35e-05 8.19e-05 2.42e-05 
48 1 1.93034e-06 9.46e-06 6.78e-05 2.82e-05 
38 1 1.40754e-06 4.17e-06 5.45e-05 3.57e-05 
3 1 1.90018e-06 4.2e-05 6.05e-05 4.06e-05 
32 1 1.67899e-06 4.14e-05 6.62e-05 4.64e-05 
21 1 1.68905e-06 8.53e-05 3.53e-05 4e-06 
35 1 1.65889e-06 9.75e-05 1.15e-05 4.27e-06 
1 1 1.94039e-06 6.06e-05 3.9e-05 1.56e-05 
44 1 1.59856e-06 8.64e-05 3.31e-05 1.77e-05 
7 1 1.54829e-06 6.7e-05 2.2e-05 2.23e-05 
42 1 1.75942e-06 9.33e-05 2.36e-05 2.36e-05 
43 1 1.39749e-06 8.14e-05 3.18e-05 2.49e-05 
47 1 1.4377e-06 9.18e-05 3.03e-05 2.5e-05 
33 1 1.87002e-06 5.94e-05 1.99e-05 2.77e-05 
46 1 1.66894e-06 6.24e-05 3.31e-05 2.77e-05 
28 1 1.81975e-06 8.26e-05 4.47e-06 2.84e-05 
34 1 1.50808e-06 7.36e-05 3.13e-05 3.45e-05 
8 1 1.65889e-06 5.45e-05 4.24e-05 3.81e-05 
26 1 1.76948e-06 7.34e-05 4.3e-05 4.05e-05 
41 1 1.70916e-06 7.36e-05 2.09e-05 4.32e-05 
25 1 1.95045e-06 6.72e-05 1.87e-05 4.79e-05 
16 1 1.52819e-06 5.41e-05 5.29e-05 3.27e-06 
40 1 1.76948e-06 5.32e-05 7.81e-05 2.08e-05 
30 1 1.46786e-06 9.47e-05 7.97e-05 2.14e-05 
9 1 1.77953e-06 9.07e-05 8.92e-05 2.34e-05 
45 1 1.42765e-06 9.63e-05 8.73e-05 3.74e-05 
17 1 1.63878e-06 8.44e-05 5.43e-05 4.08e-05 
10 1 1.57846e-06 5.02e-05 6.64e-05 4.39e-05 
ITEM: TIMESTEP
200
ITEM: NUMBER OF ATOMS
50
ITEM: BOX BOUNDS ff ff ff
0.0000000000000000e+00 1.0000000000000000e-04
0.0000000000000000e+00 1.0000000000000000e-04
0.0000000000000000e+00 5.0000000000000002e-05
ITEM: ATOMS id type diameter x y z 
4 1 1.45555e-06 3.27e-06 4.11e-06 4.78e-06 
39 1 1.74868e-06 3.16e-05 4.15e-05 5.31e-06 
12 1 1.5162e-06 1.26e-05 3.74e-05 1e-05 
5 1 1.57685e-06 1.96e-06 4.91e-05 1.11e-05 
2 1 1.44544e-06 2.61e-05 2.29e-05 1.16e-05 
19 1 1.69814e-06 4.17e-05 1.94e-05 1.35e-05 
15 1 1.55663e-06 3.78e-05 6.53e-06 1.38e-05 
27 1 1.56674e-06 3.78e-05 1.89e-05 2.05e-05 
11 1 1.62739e-06 3.38e-05 3.98e-05 2.35e-05 
31 1 1.48588e-06 2.2e-05 5.6e-06 2.37e-05 
49 1 1.68804e-06 2.45e-05 4.74e-05 2.58e-05 
14 1 1.66782e-06 4.81e-05 3.95e-05 2.82e-05 
6 1 1.8902e-06 3.62e-05 2.07e-06 3.9e-05 
36 1 1.85987e-06 3.05e-05 2.06e-05 3.85e-05 
29 1 1.92052e-06 8.26e-06 8.39e-05 3.7e-06 
18 1 1.54652e-06 2.8e-05 8.64e-05 3.86e-06 
50 1 1.60717e-06 2.86e-05 5.26e-05 7.43e-06 
13 1 1.45555e-06 3.13e-05 6.66e-05 8.33e-06 
22 1 1.92052e-06 4.19e-05 6.56e-05 1.09e-05 
23 1 1.5162e-06 1.87e-05 7.89e-05 1.71e-05 
24 1 1.85987e-06 3.92e-05 6.57e-05 1.84e-05 
37 1 1.9003e-06 3.39e-05 8.44e-05 2.32e-05 
20 1 1.79922e-06 4.35e-05 8.19e-05 2.42e-05 
48 1 1.94074e-06 9.46e-06 6.78e-05 2.82e-05 
38 1 1.41512e-06 4.17e-06 5.45e-05 3.57e-05 
3 1 1.91041e-06 4.2e-05 6.05e-05 4.06e-05 
32 1 1.68804e-06 4.14e-05 6.62e-05 4.64e-05 
21 1 1.69814e-06 8.53e-05 3.53e-05 4e-06 
35 1 1.66782e-06 9.75e-05 1.15e-05 4.27e-06 
1 1 1.95084e-06 6.06e-05 3.9e-05 1.56e-05 
44 1 1.60717e-06 8.64e-05 3.31e-05 1.77e-05 
7 1 1.55663e-06 6.7e-05 2.2e-05 2.23e-05 
42 1 1.7689e-06 9.33e-05 2.36e-05 2.36e-05 
43 1 1.40501e-06 8.14e-05 3.18e-05 2.49e-05 
47 1 1.44544e-06 9.18e-05 3.03e-05 2.5e-05 
33 1 1.88009e-06 5.94e-05 1.99e-05 2.77e-05 
46 1 1.67793e-06 6.24e-05 3.31e-05 2.77e-05 
28 1 1.82955e-06 8.26e-05 4.47e-06 2.84e-05 
34 1 1.5162e-06 7.36e-05 3.13e-05 3.45e-05 
8 1 1.66782e-06 5.45e-05 4.24e-05 3.81e-05 
26 1 1.77901e-06 7.34e-05 4.3e-05 4.05e-05 
41 1 1.71836e-06 7.36e-05 2.09e-05 4.32e-05 
25 1 1.96095e-06 6.72e-05 1.87e-05 4.79e-05 
16 1 1.53642e-06 5.41e-05 5.29e-05 3.27e-06 
40 1 1.77901e-06 5.32e-05 7.81e-05 2.08e-05 
30 1 1.47577e-06 9.47e-05 7.97e-05 2.14e-05 
9 1 1.78912e-06 9.07e-05 8.92e-05 2.34e-05 
45 1 1.43534e-06 9.63e-05 8.73e-05 3.74e-05 
17 1 1.6476e-06 8.44e-05 5.43e-05 4.08e-05 
10 1 1.58696e-06 5.02e-05 6.64e-05 4.39e-05 
ITEM: TIMESTEP
300
ITEM: NUMBER OF ATOMS
51
ITEM: BOX BOUNDS ff ff ff
0.0000000000000000e+00 1.0000000000000000e-04
0.0000000000000000e+00 1.0000000000000000e-04
0.0000000000000000e+00 5.0000000000000002e-05
ITEM: ATOMS id type diameter x y z 
4 1 1.46339e-06 3.27e-06 4.11e-06 4.78e-06 
39 1 1.7581e-06 3.16e-05 4.15e-05 5.31e-06 
12 1 1.52437e-06 1.26e-05 3.74e-05 1e-05 
5 1 1.58534e-06 1.96e-06 4.91e-05 1.11e-05 
2 1 1.45323e-06 2.61e-05 2.29e-05 1.16e-05 
19 1 1.70729e-06 4.17e-05 1.94e-05 1.35e-05 
15 1 1.56502e-06 3.78e-05 6.53e-06 1.38e-05 
27 1 1.57518e-06 3.78e-05 1.89e-05 2.05e-05 
11 1 1.63615e-06 3.38e-05 3.98e-05 2.35e-05 
31 1 1.49388e-06 2.2e-05 5.6e-06 2.37e-05 
49 1 1.69713e-06 2.45e-05 4.74e-05 2.58e-05 
14 1 1.6768e-06 4.81e-05 3.95e-05 2.82e-05 
6 1 1.90038e-06 3.62e-05 2.07e-06 3.9e-05 
36 1 1.86989e-06 3.05e-05 2.06e-05 3.85e-05 
29 1 1.93086e-06 8.26e-06 8.39e-05 3.7e-06 
18 1 1.55485e-06 2.8e-05 8.64e-05 3.86e-06 
50 1 1.61583e-06 2.86e-05 5.26e-05 7.43e-06 
13 1 1.46339e-06 3.13e-05 6.66e-05 8.33e-06 
22 1 1.93086e-06 4.19e-05 6.56e-05 1.09e-05 
23 1 1.52437e-06 1.87e-05 7.89e-05 1.71e-05 
24 1 1.86989e-06 3.92e-05 6.57e-05 1.84e-05 
37 1 1.91054e-06 3.39e-05 8.44e-05 2.32e-05 
20 1 1.80891e-06 4.35e-05 8.19e-05 2.42e-05 
48 1 1.95119e-06 9.46e-06 6.78e-05 2.82e-05 
38 1 1.42274e-06 4.17e-06 5.45e-05 3.57e-05 
3 1 1.9207e-06 4.2e-05 6.05e-05 4.06e-05 
32 1 1.69713e-06 4.14e-05 6.62e-05 4.64e-05 
21 1 1.70729e-06 8.53e-05 3.53e-05 4e-06 
35 1 1.6768e-06 9.75e-05 1.15e-05 4.27e-06 
1 1 1.96135e-06 6.06e-05 3.9e-05 1.56e-05 
44 1 1.61583e-06 8.64e-05 3.31e-05 1.77e-05 
7 1 1.56502e-06 6.7e-05 2.2e-05 2.23e-05 
42 1 1.77843e-06 9.33e-05 2.36e-05 2.36e-05 
43 1 1.41258e-06 8.14e-05 3.18e-05 2.49e-05 
47 1 1.45323e-06 9.18e-05 3.03e-05 2.5e-05 
33 1 1.89021e-06 5.94e-05 1.99e-05 2.77e-05 
46 1 1.68696e-06 6.24e-05 3.31e-05 2.77e-05 
28 1 1.8394e-06 8.26e-05 4.47e-06 2.84e-05 
34 1 1.52437e-06 7.36e-05 3.13e-05 3.45e-05 
8 1 1.6768e-06 5.45e-05 4.24e-05 3.81e-05 
26 1 1.78859e-06 7.34e-05 4.3e-05 4.05e-05 
41 1 1.72761e-06 7.36e-05 2.09e-05 4.32e-05 
25 1 1.55633e-06 6.74383e-05 1.80432e-05 4.8242e-05 
51 1 1.57316e-06 6.69591e-05 1.93639e-05 4.75543e-05 
16 1 1.54469e-06 5.41e-05 5.29e-05 3.27e-06 
40 1 1.78859e-06 5.32e-05 7.81e-05 2.08e-05 
30 1 1.48372e-06 9.47e-05 7.97e-05 2.14e-05 
9 1 1.79875e-06 9.07e-05 8.92e-05 2.34e-05 
45 1 1.44307e-06 9.63e-05 8.73e-05 3.74e-05 
17 1 1.65648e-06 8.44e-05 5.43e-05 4.08e-05 
10 1 1.5955e-06 5.02e-05 6.64e-05 4.39e-05 
ITEM: TIMESTEP
400
ITEM: NUMBER OF ATOMS
52
ITEM: BOX BOUNDS ff ff ff
0.0000000000000000e+00 1.0000000000000000e-04
0.0000000000000000e+00 1.0000000000000000e-04
0.0000000000000000e+00 5.0000000000000002e-05
ITEM: ATOMS id type diameter x y z 
4 1 1.47127e-06 3.27e-06 4.11e-06 4.78e-06 
39 1 1.76757e-06 3.16e-05 4.15e-05 5.31e-06 
12 1 1.53258e-06 1.26e-05 3.74e-05 1e-05 
5 1 1.59388e-06 1.96e-06 4.91e-05 1.11e-05 
2 1 1.46106e-06 2.61e-05 2.29e-05 1.16e-05 
19 1 1.71648e-06 4.17e-05 1.94e-05 1.35e-05 
15 1 1.57344e-06 3.78e-05 6.53e-06 1.38e-05 
27 1 1.58366e-06 3.78e-05 1.89e-05 2.05e-05 
11 1 1.64496e-06 3.38e-05 3.98e-05 2.35e-05 
31 1 1.50192e-06 2.2e-05 5.6e-06 2.37e-05 
49 1 1.70627e-06 2.45e-05 4.74e-05 2.58e-05 
14 1 1.68583e-06 4.81e-05 3.95e-05 2.82e-05 
6 1 1.91061e-06 3.62e-05 2.07e-06 3.9e-05 
36 1 1.87996e-06 3.05e-05 2.06e-05 3.85e-05 
29 1 1.94126e-06 8.26e-06 8.39e-05 3.7e-06 
18 1 1.56323e-06 2.8e-05 8.64e-05 3.86e-06 
50 1 1.62453e-06 2.86e-05 5.26e-05 7.43e-06 
13 1 1.47127e-06 3.13e-05 6.66e-05 8.33e-06 
22 1 1.94126e-06 4.19e-05 6.56e-05 1.09e-05 
23 1 1.53258e-06 1.87e-05 7.89e-05 1.71e-05 
24 1 1.87996e-06 3.92e-05 6.57e-05 1.84e-05 
37 1 1.92083e-06 3.39e-05 8.44e-05 2.32e-05 
20 1 1.81866e-06 4.35e-05 8.19e-05 2.42e-05 
48 1 1.9617e-06 9.46e-06 6.78e-05 2.82e-05 
38 1 1.4304e-06 4.17e-06 5.45e-05 3.57e-05 
3 1 1.93105e-06 4.2e-05 6.05e-05 4.06e-05 
32 1 1.70627e-06 4.14e-05 6.62e-05 4.64e-05 
21 1 1.71648e-06 8.53e-05 3.53e-05 4e-06 
35 1 1.68583e-06 9.75e-05 1.15e-05 4.27e-06 
1 1 1.55665e-06 6.08384e-05 3.83431e-05 1.59421e-05 
44 1 1.62453e-06 8.64e-05 3.31e-05 1.77e-05 
52 1 1.57348e-06 6.03591e-05 3.9664e-05 1.52542e-05 
7 1 1.57344e-06 6.7e-05 2.2e-05 2.23e-05 
42 1 1.788e-06 9.33e-05 2.36e-05 2.36e-05 
43 1 1.42019e-06 8.14e-05 3.18e-05 2.49e-05 
47 1 1.46106e-06 9.18e-05 3.03e-05 2.5e-05 
33 1 1.90039e-06 5.94e-05 1.99e-05 2.77e-05 
46 1 1.69605e-06 6.24e-05 3.31e-05 2.77e-05 
28 1 1.84931e-06 8.26e-05 4.47e-06 2.84e-05 
34 1 1.53258e-06 7.36e-05 3.13e-05 3.45e-05 
8 1 1.68583e-06 5.45e-05 4.24e-05 3.81e-05 
26 1 1.79822e-06 7.34e-05 4.3e-05 4.05e-05 
41 1 1.73692e-06 7.36e-05 2.09e-05 4.32e-05 
25 1 1.56471e-06 6.74383e-05 1.80432e-05 4.8242e-05 
51 1 1.58163e-06 6.69591e-05 1.93639e-05 4.75543e-05 
16 1 1.55301e-06 5.41e-05 5.29e-05 3.27e-06 
40 1 1.79822e-06 5.32e-05 7.81e-05 2.08e-05 
30 1 1.49171e-06 9.47e-05 7.97e-05 2.14e-05 
9 1 1.80844e-06 9.07e-05 8.92e-05 2.34e-05 
45 1 1.45084e-06 9.63e-05 8.73e-05 3.74e-05 
17 1 1.6654e-06 8.44e-05 5.43e-05 4.08e-05 
10 1 1.6041e-06 5.02e-05 6.64e-05 4.39e-05 
ITEM: TIMESTEP
500
ITEM: NUMBER OF ATOMS
53
ITEM: BOX BOUNDS ff ff ff
0.0000000000000000e+00 1.0000000000000000e-04
0.0000000000000000e+00 1.0000000000000000e-04
0.0000000000000000e+00 5.0000000000000002e-05
ITEM: ATOMS id type diameter x y z 
4 1 1.4792e-06 3.27e-06 4.11e-06 4.78e-06 
39 1 1.77709e-06 3.16e-05 4.15e-05 5.31e-06 
12 1 1.54083e-06 1.26e-05 3.74e-05 1e-05 
5 1 1.60246e-06 1.96e-06 4.91e-05 1.11e-05 
2 1 1.46892e-06 2.61e-05 2.29e-05 1.16e-05 
19 1 1.72573e-06 4.17e-05 1.94e-05 1.35e-05 
15 1 1.58192e-06 3.78e-05 6.53e-06 1.38e-05 
27 1 1.59219e-06 3.78e-05 1.89e-05 2.05e-05 
11 1 1.65382e-06 3.38e-05 3.98e-05 2.35e-05 
31 1 1.51001e-06 2.2e-05 5.6e-06 2.37e-05 
49 1 1.71546e-06 2.45e-05 4.74e-05 2.58e-05 
14 1 1.69491e-06 4.81e-05 3.95e-05 2.82e-05 
6 1 1.9209e-06 3.62e-05 2.07e-06 3.9e-05 
36 1 1.89008e-06 3.05e-05 2.06e-05 3.85e-05 
29 1 1.95172e-06 8.26e-06 8.39e-05 3.7e-06 
18 1 1.57165e-06 2.8e-05 8.64e-05 3.86e-06 
50 1 1.63328e-06 2.86e-05 5.26e-05 7.43e-06 
13 1 1.4792e-06 3.13e-05 6.66e-05 8.33e-06 
22 1 1.95172e-06 4.19e-05 6.56e-05 1.09e-05 
23 1 1.54083e-06 1.87e-05 7.89e-05 1.71e-05 
24 1 1.89008e-06 3.92e-05 6.57e-05 1.84e-05 
37 1 1.93117e-06 3.39e-05 8.44e-05 2.32e-05 
20 1 1.82845e-06 4.35e-05 8.19e-05 2.42e-05 
48 1 1.55692e-06 9.6984e-06 6.7143e-05 2.85421e-05 
38 1 1.43811e-06 4.17e-06 5.45e-05 3.57e-05 
3 1 1.94144e-06 4.2e-05 6.05e-05 4.06e-05 
32 1 1.71546e-06 4.14e-05 6.62e-05 4.64e-05 
53 1 1.57376e-06 9.21902e-06 6.84641e-05 2.78542e-05 
21 1 1.72573e-06 8.53e-05 3.53e-05 4e-06 
35 1 1.69491e-06 9.75e-05 1.15e-05 4.27e-06 
1 1 1.56503e-06 6.08384e-05 3.83431e-05 1.59421e-05 
44 1 1.63328e-06 8.64e-05 3.31e-05 1.77e-05 
52 1 1.58195e-06 6.03591e-05 3.9664e-05 1.52542e-05 
7 1 1.58192e-06 6.7e-05 2.2e-05 2.23e-05 
42 1 1.79763e-06 9.33e-05 2.36e-05 2.36e-05 
43 1 1.42784e-06 8.14e-05 3.18e-05 2.49e-05 
47 1 1.46892e-06 9.18e-05 3.03e-05 2.5e-05 
33 1 1.91063e-06 5.94e-05 1.99e-05 2.77e-05 
46 1 1.70518e-06 6.24e-05 3.31e-05 2.77e-05 
28 1 1.85927e-06 8.26e-05 4.47e-06 2.84e-05 
34 1 1.54083e-06 7.36e-05 3.13e-05 3.45e-05 
8 1 1.69491e-06 5.45e-05 4.24e-05 3.81e-05 
26 1 1.80791e-06 7.34e-05 4.3e-05 4.05e-05 
41 1 1.74627e-06 7.36e-05 2.09e-05 4.32e-05 
25 1 1.57314e-06 6.74383e-05 1.80432e-05 4.8242e-05 
51 1 1.59015e-06 6.69591e-05 1.93639e-05 4.75543e-05 
16 1 1.56137e-06 5.41e-05 5.29e-05 3.27e-06 
40 1 1.80791e-06 5.32e-05 7.81e-05 2.08e-05 
30 1 1.49974e-06 9.47e-05 7.97e-05 2.14e-05 
9 1 1.81818e-06 9.07e-05 8.92e-05 2.34e-05 
45 1 1.45865e-06 9.63e-05 8.73e-05 3.74e-05 
17 1 1.67437e-06 8.44e-05 5.43e-05 4.08e-05 
10 1 1.61273e-06 5.02e-05 6.64e-05 4.39e-05 
ITEM: TIMESTEP
600
ITEM: NUMBER OF ATOMS
53
ITEM: BOX BOUNDS ff ff ff
0.0000000000000000e+00 1.0000000000000000e-04
0.0000000000000000e+00 1.0000000000000000e-04
0.0000000000000000e+00 5.0000000000000002e-05
ITEM: ATOMS id type diameter x y z 
4 1 1.48716e-06 3.27e-06 4.11e-06 4.78e-06 
39 1 1.78666e-06 3.16e-05 4.15e-05 5.31e-06 
12 1 1.54913e-06 1.26e-05 3.74e-05 1e-05 
5 1 1.61109e-06 1.96e-06 4.91e-05 1.11e-05 
2 1 1.47683e-06 2.61e-05 2.29e-05 1.16e-05 
19 1 1.73502e-06 4.17e-05 1.94e-05 1.35e-05 
15 1 1.59044e-06 3.78e-05 6.53e-06 1.38e-05 
27 1 1.60077e-06 3.78e-05 1.89e-05 2.05e-05 
11 1 1.66273e-06 3.38e-05 3.98e-05 2.35e-05 
31 1 1.51814e-06 2.2e-05 5.6e-06 2.37e-05 
49 1 1.7247e-06 2.45e-05 4.74e-05 2.58e-05 
14 1 1.70404e-06 4.81e-05 3.95e-05 2.82e-05 
6 1 1.93125e-06 3.62e-05 2.07e-06 3.9e-05 
36 1 1.90026e-06 3.05e-05 2.06e-05 3.85e-05 
29 1 1.96223e-06 8.26e-06 8.39e-05 3.7e-06 
18 1 1.58011e-06 2.8e-05 8.64e-05 3.86e-06 
50 1 1.64208e-06 2.86e-05 5.26e-05 7.43e-06 
13 1 1.48716e-06 3.13e-05 6.66e-05 8.33e-06 
22 1 1.96223e-06 4.19e-05 6.56e-05 1.09e-05 
23 1 1.54913e-06 1.87e-05 7.89e-05 1.71e-05 
24 1 1.90026e-06 3.92e-05 6.57e-05 1.84e-05 
37 1 1.94157e-06 3.39e-05 8.44e-05 2.32e-05 
20 1 1.8383e-06 4.35e-05 8.19e-05 2.42e-05 
48 1 1.56531e-06 9.6984e-06 6.7143e-05 2.85421e-05 
38 1 1.44585e-06 4.17e-06 5.45e-05 3.57e-05 
3 1 1.9519e-06 4.2e-05 6.05e-05 4.06e-05 
32 1 1.7247e-06 4.14e-05 6.62e-05 4.64e-05 
53 1 1.58223e-06 9.21902e-06 6.84641e-05 2.78542e-05 
21 1 1.73502e-06 8.53e-05 3.53e-05 4e-06 
35 1 1.70404e-06 9.75e-05 1.15e-05 4.27e-06 
1 1 1.57346e-06 6.08384e-05 3.83431e-05 1.59421e-05 
44 1 1.64208e-06 8.64e-05 3.31e-05 1.77e-05 
52 1 1.59047e-06 6.03591e-05 3.9664e-05 1.52542e-05 
7 1 1.59044e-06 6.7e-05 2.2e-05 2.23e-05 
42 1 1.80732e-06 9.33e-05 2.36e-05 2.36e-05 
43 1 1.43552e-06 8.14e-05 3.18e-05 2.49e-05 
47 1 1.47683e-06 9.18e-05 3.03e-05 2.5e-05 
33 1 1.92092e-06 5.94e-05 1.99e-05 2.77e-05 
46 1 1.71437e-06 6.24e-05 3.31e-05 2.77e-05 
28 1 1.86928e-06 8.26e-05 4.47e-06 2.84e-05 
34 1 1.54913e-06 7.36e-05 3.13e-05 3.45e-05 
8 1 1.70404e-06 5.45e-05 4.24e-05 3.81e-05 
26 1 1.81764e-06 7.34e-05 4.3e-05 4.05e-05 
41 1 1.75568e-06 7.36e-05 2.09e-05 4.32e-05 
25 1 1.58161e-06 6.74383e-05 1.80432e-05 4.8242e-05 
51 1 1.59871e-06 6.69591e-05 1.93639e-05 4.75543e-05 
16 1 1.56978e-06 5.41e-05 5.29e-05 3.27e-06 
40 1 1.81764e-06 5.32e-05 7.81e-05 2.08e-05 
30 1 1.50782e-06 9.47e-05 7.97e-05 2.14e-05 
9 1 1.82797e-06 9.07e-05 8.92e-05 2.34e-05 
45 1 1.46651e-06 9.63e-05 8.73e-05 3.74e-05 
17 1 1.68339e-06 8.44e-05 5.43e-05 4.08e-05 
10 1 1.62142e-06 5.02e-05 6.64e-05 4.39e-05 
ITEM: TIMESTEP
700
ITEM: NUMBER OF ATOMS
55
ITEM: BOX BOUNDS ff ff ff
0.0000000000000000e+00 1.0000000000000000e-04
0.0000000000000000e+00 1.0000000000000000e-04
0.0000000000000000e+00 5.0000000000000002e-05
ITEM: ATOMS id type diameter x y z 
4 1 1.49517e-06 3.27e-06 4.11e-06 4.78e-06 
39 1 1.79628e-06 3.16e-05 4.15e-05 5.31e-06 
12 1 1.55747e-06 1.26e-05 3.74e-05 1e-05 
5 1 1.61977e-06 1.96e-06 4.91e-05 1.11e-05 
2 1 1.48479e-06 2.61e-05 2.29e-05 1.16e-05 
19 1 1.74437e-06 4.17e-05 1.94e-05 1.35e-05 
15 1 1.599e-06 3.78e-05 6.53e-06 1.38e-05 
27 1 1.60939e-06 3.78e-05 1.89e-05 2.05e-05 
11 1 1.67168e-06 3.38e-05 3.98e-05 2.35e-05 
31 1 1.52632e-06 2.2e-05 5.6e-06 2.37e-05 
49 1 1.73398e-06 2.45e-05 4.74e-05 2.58e-05 
14 1 1.71322e-06 4.81e-05 3.95e-05 2.82e-05 
6 1 1.94165e-06 3.62e-05 2.07e-06 3.9e-05 
36 1 1.9105e-06 3.05e-05 2.06e-05 3.85e-05 
29 1 1.55735e-06 8.49847e-06 8.32428e-05 4.04222e-06 
18 1 1.58862e-06 2.8e-05 8.64e-05 3.86e-06 
50 1 1.65092e-06 2.86e-05 5.26e-05 7.43e-06 
13 1 1.49517e-06 3.13e-05 6.66e-05 8.33e-06 
22 1 1.48334e-06 4.22553e-05 6.52999e-05 1.03226e-05 
23 1 1.55747e-06 1.87e-05 7.89e-05 1.71e-05 
24 1 1.9105e-06 3.92e-05 6.57e-05 1.84e-05 
54 1 1.57418e-06 8.01896e-06 8.45643e-05 3.35408e-06 
55 1 1.6404e-06 4.15071e-05 6.59319e-05 1.15385e-05 
37 1 1.95203e-06 3.39e-05 8.44e-05 2.32e-05 
20 1 1.8482e-06 4.35e-05 8.19e-05 2.42e-05 
48 1 1.57374e-06 9.6984e-06 6.7143e-05 2.85421e-05 
38 1 1.45364e-06 4.17e-06 5.45e-05 3.57e-05 
3 1 1.96241e-06 4.2e-05 6.05e-05 4.06e-05 
32 1 1.73398e-06 4.14e-05 6.62e-05 4.64e-05 
53 1 1.59075e-06 9.21902e-06 6.84641e-05 2.78542e-05 
21 1 1.74437e-06 8.53e-05 3.53e-05 4e-06 
35 1 1.71322e-06 9.75e-05 1.15e-05 4.27e-06 
1 1 1.58193e-06 6.08384e-05 3.83431e-05 1.59421e-05 
44 1 1.65092e-06 8.64e-05 3.31e-05 1.77e-05 
52 1 1.59904e-06 6.03591e-05 3.9664e-05 1.52542e-05 
7 1 1.599e-06 6.7e-05 2.2e-05 2.23e-05 
42 1 1.81705e-06 9.33e-05 2.36e-05 2.36e-05 
43 1 1.44326e-06 8.14e-05 3.18e-05 2.49e-05 
47 1 1.48479e-06 9.18e-05 3.03e-05 2.5e-05 
33 1 1.93126e-06 5.94e-05 1.99e-05 2.77e-05 
46 1 1.7236e-06 6.24e-05 3.31e-05 2.77e-05 
28 1 1.87935e-06 8.26e-05 4.47e-06 2.84e-05 
34 1 1.55747e-06 7.36e-05 3.13e-05 3.45e-05 
8 1 1.71322e-06 5.45e-05 4.24e-05 3.81e-05 
26 1 1.82743e-06 7.34e-05 4.3e-05 4.05e-05 
41 1 1.76513e-06 7.36e-05 2.09e-05 4.32e-05 
25 1 1.59013e-06 6.74444e-05 1.80264e-05 4.82508e-05 
51 1 1.60732e-06 6.6953e-05 1.93807e-05 4.75455e-05 
16 1 1.57824e-06 5.41e-05 5.29e-05 3.27e-06 
40 1 1.82743e-06 5.32e-05 7.81e-05 2.08e-05 
30 1 1.51594e-06 9.47e-05 7.97e-05 2.14e-05 
9 1 1.83782e-06 9.07e-05 8.92e-05 2.34e-05 
45 1 1.47441e-06 9.63e-05 8.73e-05 3.74e-05 
17 1 1.69245e-06 8.44e-05 5.43e-05 4.08e-05 
10 1 1.63015e-06 5.02e-05 6.64e-05 4.39e-05 
ITEM: TIMESTEP
800
ITEM: NUMBER OF ATOMS
56
ITEM: BOX BOUNDS ff ff ff
0.0000000000000000e+00 1.0000000000000000e-04
0.0000000000000000e+00 1.0000000000000000e-04
0.0000000000000000e+00 5.0000000000000002e-05
ITEM: ATOMS id type diameter x y z 
4 1 1.50322e-06 3.27e-06 4.11e-06 4.78e-06 
39 1 1.80596e-06 3.16e-05 4.15e-05 5.31e-06 
12 1 1.56586e-06 1.26e-05 3.74e-05 1e-05 
5 1 1.62849e-06 1.96e-06 4.91e-05 1.11e-05 
2 1 1.49278e-06 2.61e-05 2.29e-05 1.16e-05 
19 1 1.75376e-06 4.17e-05 1.94e-05 1.35e-05 
15 1 1.60761e-06 3.78e-05 6.53e-06 1.38e-05 
27 1 1.61805e-06 3.78e-05 1.89e-05 2.05e-05 
11 1 1.68069e-06 3.38e-05 3.98e-05 2.35e-05 
31 1 1.53454e-06 2.2e-05 5.6e-06 2.37e-05 
49 1 1.74332e-06 2.45e-05 4.74e-05 2.58e-05 
14 1 1.72244e-06 4.81e-05 3.95e-05 2.82e-05 
6 1 1.9521e-06 3.62e-05 2.07e-06 3.9e-05 
36 1 1.92079e-06 3.05e-05 2.06e-05 3.85e-05 
29 1 1.56573e-06 8.49847e-06 8.32428e-05 4.04222e-06 
18 1 1.59718e-06 2.8e-05 8.64e-05 3.86e-06 
50 1 1.65981e-06 2.86e-05 5.26e-05 7.43e-06 
13 1 1.50322e-06 3.13e-05 6.66e-05 8.33e-06 
22 1 1.49133e-06 4.22553e-05 6.52999e-05 1.03226e-05 
23 1 1.56586e-06 1.87e-05 7.89e-05 1.71e-05 
24 1 1.92079e-06 3.92e-05 6.57e-05 1.84e-05 
54 1 1.58266e-06 8.01896e-06 8.45643e-05 3.35408e-06 
55 1 1.64924e-06 4.15071e-05 6.59319e-05 1.15385e-05 
37 1 1.96254e-06 3.39e-05 8.44e-05 2.32e-05 
20 1 1.85815e-06 4.35e-05 8.19e-05 2.42e-05 
48 1 1.58221e-06 9.6984e-06 6.7143e-05 2.85421e-05 
38 1 1.46147e-06 4.17e-06 5.45e-05 3.57e-05 
3 1 1.48348e-06 4.23553e-05 6.01999e-05 4.00226e-05 
32 1 1.74332e-06 4.14e-05 6.62e-05 4.64e-05 
53 1 1.59932e-06 9.21902e-06 6.84641e-05 2.78542e-05 
56 1 1.64056e-06 4.16071e-05 6.08319e-05 4.12386e-05 
21 1 1.75376e-06 8.53e-05 3.53e-05 4e-06 
35 1 1.72244e-06 9.75e-05 1.15e-05 4.27e-06 
1 1 1.59045e-06 6.08445e-05 3.83262e-05 1.59509e-05 
44 1 1.65981e-06 8.64e-05 3.31e-05 1.77e-05 
52 1 1.60765e-06 6.03529e-05 3.96809e-05 1.52454e-05 
7 1 1.60761e-06 6.7e-05 2.2e-05 2.23e-05 
42 1 1.82683e-06 9.33e-05 2.36e-05 2.36e-05 
43 1 1.45103e-06 8.14e-05 3.18e-05 2.49e-05 
47 1 1.49278e-06 9.18e-05 3.03e-05 2.5e-05 
33 1 1.94166e-06 5.94e-05 1.99e-05 2.77e-05 
46 1 1.73288e-06 6.24e-05 3.31e-05 2.77e-05 
28 1 1.88947e-06 8.26e-05 4.47e-06 2.84e-05 
34 1 1.56586e-06 7.36e-05 3.13e-05 3.45e-05 
8 1 1.72244e-06 5.45e-05 4.24e-05 3.81e-05 
26 1 1.83727e-06 7.34e-05 4.3e-05 4.05e-05 
41 1 1.77464e-06 7.36e-05 2.09e-05 4.32e-05 
25 1 1.5987e-06 6.74444e-05 1.80264e-05 4.82508e-05 
51 1 1.61598e-06 6.6953e-05 1.93807e-05 4.75455e-05 
16 1 1.58674e-06 5.41e-05 5.29e-05 3.27e-06 
40 1 1.83727e-06 5.32e-05 7.81e-05 2.08e-05 
30 1 1.5241e-06 9.47e-05 7.97e-05 2.14e-05 
9 1 1.84771e-06 9.07e-05 8.92e-05 2.34e-05 
45 1 1.48235e-06 9.63e-05 8.73e-05 3.74e-05 
17 1 1.70157e-06 8.44e-05 5.43e-05 4.08e-05 
10 1 1.63893e-06 5.02e-05 6.64e-05 4.39e-05 
ITEM: TIMESTEP
900
ITEM: NUMBER OF ATOMS
57
ITEM: BOX BOUNDS ff ff ff
0.0000000000000000e+00 1.0000000000000000e-04
0.0000000000000000e+00 1.0000000000000000e-04
0.0000000000000000e+00 5.0000000000000002e-05
ITEM: ATOMS id type diameter x y z 
4 1 1.51132e-06 3.27e-06 4.11e-06 4.78e-06 
39 1 1.81568e-06 3.16e-05 4.15e-05 5.31e-06 
12 1 1.57429e-06 1.26e-05 3.74e-05 1e-05 
5 1 1.63726e-06 1.96e-06 4.91e-05 1.11e-05 
2 1 1.50082e-06 2.61e-05 2.29e-05 1.16e-05 
19 1 1.76321e-06 4.17e-05 1.94e-05 1.35e-05 
15 1 1.61627e-06 3.78e-05 6.53e-06 1.38e-05 
27 1 1.62677e-06 3.78e-05 1.89e-05 2.05e-05 
11 1 1.68974e-06 3.38e-05 3.98e-05 2.35e-05 
31 1 1.54281e-06 2.2e-05 5.6e-06 2.37e-05 
49 1 1.75271e-06 2.45e-05 4.74e-05 2.58e-05 
14 1 1.73172e-06 4.81e-05 3.95e-05 2.82e-05 
6 1 1.96262e-06 3.62e-05 2.07e-06 3.9e-05 
36 1 1.93113e-06 3.05e-05 2.06e-05 3.85e-05 
29 1 1.57416e-06 8.49847e-06 8.32428e-05 4.04222e-06 
18 1 1.60578e-06 2.8e-05 8.64e-05 3.86e-06 
50 1 1.66875e-06 2.86e-05 5.26e-05 7.43e-06 
13 1 1.51132e-06 3.13e-05 6.66e-05 8.33e-06 
22 1 1.49936e-06 4.22553e-05 6.52999e-05 1.03226e-05 
23 1 1.57429e-06 1.87e-05 7.89e-05 1.71e-05 
24 1 1.93113e-06 3.92e-05 6.57e-05 1.84e-05 
54 1 1.59118e-06 8.01896e-06 8.45643e-05 3.35408e-06 
55 1 1.65812e-06 4.15071e-05 6.59319e-05 1.15385e-05 
37 1 1.51442e-06 3.43067e-05 8.39301e-05 2.27679e-05 
20 1 1.86816e-06 4.35e-05 8.19e-05 2.42e-05 
48 1 1.59073e-06 9.70453e-06 6.71261e-05 2.85509e-05 
38 1 1.46934e-06 4.17e-06 5.45e-05 3.57e-05 
3 1 1.49147e-06 4.23553e-05 6.01999e-05 4.00226e-05 
32 1 1.75271e-06 4.14e-05 6.62e-05 4.64e-05 
53 1 1.60793e-06 9.21289e-06 6.8481e-05 2.78454e-05 
56 1 1.64939e-06 4.16071e-05 6.08319e-05 4.12386e-05 
57 1 1.6145e-06 3.34664e-05 8.49009e-05 2.36606e-05 
21 1 1.76321e-06 8.53e-05 3.53e-05 4e-06 
35 1 1.73172e-06 9.75e-05 1.15e-05 4.27e-06 
1 1 1.59902e-06 6.08445e-05 3.83262e-05 1.59509e-05 
44 1 1.66875e-06 8.64e-05 3.31e-05 1.77e-05 
52 1 1.61631e-06 6.03529e-05 3.96809e-05 1.52454e-05 
7 1 1.61627e-06 6.7e-05 2.2e-05 2.23e-05 
42 1 1.83667e-06 9.33e-05 2.36e-05 2.36e-05 
43 1 1.45884e-06 8.14e-05 3.18e-05 2.49e-05 
47 1 1.50082e-06 9.18e-05 3.03e-05 2.5e-05 
33 1 1.95212e-06 5.94e-05 1.99e-05 2.77e-05 
46 1 1.74222e-06 6.24e-05 3.31e-05 2.77e-05 
28 1 1.89964e-06 8.26e-05 4.47e-06 2.84e-05 
34 1 1.57429e-06 7.36e-05 3.13e-05 3.45e-05 
8 1 1.73172e-06 5.45e-05 4.24e-05 3.81e-05 
26 1 1.84717e-06 7.34e-05 4.3e-05 4.05e-05 
41 1 1.7842e-06 7.36e-05 2.09e-05 4.32e-05 
25 1 1.60731e-06 6.74444e-05 1.80264e-05 4.82508e-05 
51 1 1.62468e-06 6.6953e-05 1.93807e-05 4.75455e-05 
16 1 1.59528e-06 5.41e-05 5.29e-05 3.27e-06 
40 1 1.84717e-06 5.32e-05 7.81e-05 2.08e-05 
30 1 1.53231e-06 9.47e-05 7.97e-05 2.14e-05 
9 1 1.85766e-06 9.07e-05 8.92e-05 2.34e-05 
45 1 1.49033e-06 9.63e-05 8.73e-05 3.74e-05 
17 1 1.71073e-06 8.44e-05 5.43e-05 4.08e-05 
10 1 1.64776e-06 5.02e-05 6.64e-05 4.39e-05 
ITEM: TIMESTEP
1000
ITEM: NUMBER OF ATOMS
58
ITEM: BOX BOUNDS ff ff ff
0.0000000000000000e+00 1.0000000000000000e-04
0.0000000000000000e+00 1.0000000000000000e-04
0.0000000000000000e+00 5.0000000000000002e-05
ITEM: ATOMS id type diameter x y z 
4 1 1.51946e-06 3.27e-06 4.11e-06 4.78e-06 
39 1 1.82546e-06 3.16e-05 4.15e-05 5.31e-06 
12 1 1.58277e-06 1.26e-05 3.74e-05 1e-05 
5 1 1.64608e-06 1.96e-06 4.91e-05 1.11e-05 
2 1 1.50891e-06 2.61e-05 2.29e-05 1.16e-05 
19 1 1.7727e-06 4.17e-05 1.94e-05 1.35e-05 
15 1 1.62498e-06 3.78e-05 6.53e-06 1.38e-05 
27 1 1.63553e-06 3.78e-05 1.89e-05 2.05e-05 
11 1 1.69884e-06 3.38e-05 3.98e-05 2.35e-05 
31 1 1.55111e-06 2.2e-05 5.6e-06 2.37e-05 
49 1 1.76215e-06 2.45e-05 4.74e-05 2.58e-05 
14 1 1.74105e-06 4.81e-05 3.95e-05 2.82e-05 
58 1 1.57449e-06 3.59589e-05 2.73442e-06 3.8654e-05 
36 1 1.94153e-06 3.05e-05 2.06e-05 3.85e-05 
6 1 1.55765e-06 3.64385e-05 1.41269e-06 3.93423e-05 
54 1 1.59975e-06 8.01896e-06 8.45643e-05 3.35408e-06 
18 1 1.61443e-06 2.8e-05 8.64e-05 3.86e-06 
29 1 1.58264e-06 8.49847e-06 8.32428e-05 4.04222e-06 
50 1 1.67774e-06 2.86e-05 5.26e-05 7.43e-06 
13 1 1.51946e-06 3.13e-05 6.66e-05 8.33e-06 
22 1 1.50743e-06 4.22553e-05 6.52999e-05 1.03226e-05 
55 1 1.66705e-06 4.15071e-05 6.59319e-05 1.15385e-05 
23 1 1.58277e-06 1.87e-05 7.89e-05 1.71e-05 
24 1 1.94153e-06 3.92e-05 6.57e-05 1.84e-05 
37 1 1.52258e-06 3.43067e-05 8.39301e-05 2.27679e-05 
57 1 1.62319e-06 3.34664e-05 8.49009e-05 2.36606e-05 
20 1 1.87822e-06 4.35e-05 8.19e-05 2.42e-05 
53 1 1.61659e-06 9.21289e-06 6.8481e-05 2.78454e-05 
48 1 1.5993e-06 9.70453e-06 6.71261e-05 2.85509e-05 
38 1 1.47725e-06 4.17e-06 5.45e-05 3.57e-05 
3 1 1.4995e-06 4.23553e-05 6.01999e-05 4.00226e-05 
56 1 1.65828e-06 4.16071e-05 6.08319e-05 4.12386e-05 
32 1 1.76215e-06 4.14e-05 6.62e-05 4.64e-05 
21 1 1.7727e-06 8.53e-05 3.53e-05 4e-06 
35 1 1.74105e-06 9.75e-05 1.15e-05 4.27e-06 
52 1 1.62501e-06 6.03529e-05 3.96809e-05 1.52454e-05 
1 1 1.60763e-06 6.08445e-05 3.83262e-05 1.59509e-05 
44 1 1.67774e-06 8.64e-05 3.31e-05 1.77e-05 
7 1 1.62498e-06 6.7e-05 2.2e-05 2.23e-05 
42 1 1.84656e-06 9.33e-05 2.36e-05 2.36e-05 
43 1 1.4667e-06 8.14e-05 3.18e-05 2.49e-05 
47 1 1.50891e-06 9.18e-05 3.03e-05 2.5e-05 
33 1 1.96263e-06 5.94e-05 1.99e-05 2.77e-05 
46 1 1.7516e-06 6.24e-05 3.31e-05 2.77e-05 
28 1 1.90988e-06 8.26e-05 4.47e-06 2.84e-05 
34 1 1.58277e-06 7.36e-05 3.13e-05 3.45e-05 
8 1 1.74105e-06 5.45e-05 4.24e-05 3.81e-05 
26 1 1.85712e-06 7.34e-05 4.3e-05 4.05e-05 
41 1 1.79381e-06 7.36e-05 2.09e-05 4.32e-05 
51 1 1.63343e-06 6.6953e-05 1.93807e-05 4.75455e-05 
25 1 1.61596e-06 6.74444e-05 1.80264e-05 4.82508e-05 
16 1 1.60387e-06 5.41e-05 5.29e-05 3.27e-06 
40 1 1.85712e-06 5.32e-05 7.81e-05 2.08e-05 
30 1 1.54056e-06 9.47e-05 7.97e-05 2.14e-05 
9 1 1.86767e-06 9.07e-05 8.92e-05 2.34e-05 
45 1 1.49836e-06 9.63e-05 8.73e-05 3.74e-05 
17 1 1.71994e-06 8.44e-05 5.43e-05 4.08e-05 
10 1 1.65663e-06 5.02e-05 6.64e-05 4.39e-05 
ITEM: TIMESTEP
1100
ITEM: NUMBER OF ATOMS
59
ITEM: BOX BOUNDS ff ff ff
0.0000000000000000e+00 1.0000000000000000e-04
0.0000000000000000e+00 1.0000000000000000e-04
0.0000000000000000e+00 5.0000000000000002e-05
ITEM: ATOMS id type diameter x y z 
4 1 1.52764e-06 3.27e-06 4.11e-06 4.78e-06 
39 1 1.83529e-06 3.16e-05 4.15e-05 5.31e-06 
12 1 1.59129e-06 1.26e-05 3.74e-05 1e-05 
5 1 1.65495e-06 1.96e-06 4.91e-05 1.11e-05 
2 1 1.51703e-06 2.61e-05 2.29e-05 1.16e-05 
19 1 1.78225e-06 4.17e-05 1.94e-05 1.35e-05 
15 1 1.63373e-06 3.78e-05 6.53e-06 1.38e-05 
27 1 1.64434e-06 3.78e-05 1.89e-05 2.05e-05 
11 1 1.70799e-06 3.38e-05 3.98e-05 2.35e-05 
31 1 1.55947e-06 2.2e-05 5.6e-06 2.37e-05 
49 1 1.77164e-06 2.45e-05 4.74e-05 2.58e-05 
14 1 1.75042e-06 4.81e-05 3.95e-05 2.82e-05 
58 1 1.58297e-06 3.59589e-05 2.73442e-06 3.8654e-05 