LAMMPS (20 Nov 2019)
Reading data file ...
  orthogonal box = (0 0 0) to (0.0001 0.0001 5e-05)
  2 by 2 by 2 MPI processor grid
  reading atoms ...
  50 atoms
  4 nutrients
Lattice spacing in x,y,z = 100 100 100
50 atoms in group CYANO
0 atoms in group ECW
Model is defined as a closed system. 
Neighbor list info ...
  update every 1 steps, delay 0 steps, check yes
  max neighbors/atom: 5000, page size: 100000
  master list distance cutoff = 2.41e-06
  ghost atom cutoff = 2.41e-06
  binsize = 1.205e-06, bins = 83 83 42
  1 neighbor lists, perpetual/occasional/extra = 1 0 0
  (1) pair gran/hooke/history, perpetual
      attributes: half, newton off, size, history
      pair build: half/size/bin/newtoff
      stencil: half/bin/3d/newtoff
      bin: standard
Setting up Verlet run ...
  Unit style    : lj
  Current step  : 0
  Time step     : 10
Per MPI rank memory allocation (min/avg/max) = 6.973 | 10.9 | 12.35 Mbytes
Step CPU Atoms c_myNtypes[1] c_myNtypes[2] c_myMass[1] c_myMass[2] c_myCon[1] c_myCon[2] c_myCon[3] c_myCon[4] 
       0            0       50           50            0 4.2873467e-14            0          0.1        0.009     3.42e-20       0.0299 
number of iterations: 327624 
     100    4.9563348       50           50            0 4.3691775e-14            0          0.1 0.0090020197 0.0025490046  0.029896638 
number of iterations: 22246 
     200    5.5308437       50           50            0 4.4525702e-14            0          0.1 0.0090020583 0.0050658734  0.029896573 
number of iterations: 22346 
     300    6.0838532       50           50            0 4.5375545e-14            0          0.1 0.0090020976  0.007630259  0.029896508 
number of iterations: 22445 
     400    6.6683459       50           50            0 4.6241609e-14            0          0.1 0.0090021376  0.010243386  0.029896441 
number of iterations: 22545 
     500     7.243568       50           50            0 4.7124203e-14            0          0.1 0.0090021784  0.012906264  0.029896373 
number of iterations: 22645 
     600    7.8362753       51           51            0 4.8023643e-14            0          0.1   0.00900222   0.01561988  0.029896304 
number of iterations: 22745 
     700    8.4132825       52           52            0 4.894025e-14            0          0.1 0.0090022624  0.018385221  0.029896233 
number of iterations: 23344 
     800    8.9831681       53           53            0 4.9874352e-14            0          0.1 0.0090023088  0.021203277  0.029896156 
number of iterations: 22954 
     900    9.6041084       54           54            0 5.0826283e-14            0          0.1 0.0090023529  0.024075075  0.029896083 
number of iterations: 23054 
    1000    10.203239       54           54            0 5.1796383e-14            0          0.1 0.0090023978  0.027001649  0.029896008 
number of iterations: 23168 
    1100    10.810813       56           56            0 5.2784999e-14            0          0.1 0.0090024436  0.029984053  0.029895932 
number of iterations: 23254 
    1200    11.412628       56           56            0 5.3792484e-14            0          0.1 0.0090024902   0.03302336  0.029895854 
number of iterations: 23354 
    1300    11.994049       57           57            0 5.4819198e-14            0          0.1 0.0090025378  0.036120658  0.029895775 
number of iterations: 23454 
    1400    12.573607       58           58            0 5.5865509e-14            0          0.1 0.0090025862  0.039277054  0.029895694 
number of iterations: 23554 
    1500    13.236636       59           59            0 5.6931791e-14            0          0.1 0.0090026356   0.04249368  0.029895612 
number of iterations: 23655 
    1600    13.905809       59           59            0 5.8018424e-14            0          0.1 0.0090026859  0.045771685  0.029895528 
number of iterations: 23755 
    1700    14.530497       59           59            0 5.9125797e-14            0          0.1 0.0090027372  0.049112242  0.029895443 
number of iterations: 23855 
    1800    15.123859       59           59            0 6.0254306e-14            0          0.1 0.0090027894  0.052516545  0.029895356 
number of iterations: 23955 
    1900    15.724053       62           62            0 6.1404355e-14            0          0.1 0.0090028427  0.055985814  0.029895267 
number of iterations: 24040 
    2000    16.340329       64           64            0 6.2576354e-14            0          0.1 0.0090028969  0.059521268  0.029895177 
number of iterations: 24155 
    2100     16.94441       64           64            0 6.3770722e-14            0          0.1 0.0090029522  0.063124191  0.029895085 
number of iterations: 24256 
    2200    17.565172       64           64            0 6.4987887e-14            0          0.1 0.0090030086  0.066795872  0.029894991 
number of iterations: 24356 
    2300    18.197413       66           66            0 6.6228283e-14            0          0.1  0.009003066  0.070537622  0.029894895 
number of iterations: 24456 
    2400    18.779459       70           70            0 6.7492354e-14            0          0.1 0.0090031245   0.07435078  0.029894798 
number of iterations: 24557 
    2500    19.387459       70           70            0 6.8780552e-14            0          0.1 0.0090031842  0.078236709  0.029894699 
number of iterations: 24657 
    2600     19.98451       70           70            0 7.0093337e-14            0          0.1 0.0090032449  0.082196799  0.029894597 
number of iterations: 24758 
    2700     20.58092       71           71            0 7.1431179e-14            0          0.1 0.0090033069  0.086232464  0.029894494 
number of iterations: 24858 
    2800     21.17128       72           72            0 7.2794555e-14            0          0.1   0.00900337  0.090345149  0.029894389 
number of iterations: 25325 
    2900    21.797885       74           74            0 7.4183954e-14            0          0.1  0.009003438  0.094536311  0.029894276 
number of iterations: 25066 
    3000    22.413007       75           75            0 7.5599871e-14            0          0.1 0.0090035036   0.09880746  0.029894167 
number of iterations: 25167 
    3100    23.090669       76           76            0 7.7042813e-14            0          0.1 0.0090035705   0.10316012  0.029894055 
number of iterations: 25267 
    3200    23.713847       76           76            0 7.8513297e-14            0          0.1 0.0090036386   0.10759586  0.029893942 
number of iterations: 25368 
    3300    24.358728       77           77            0 8.0011846e-14            0          0.1 0.0090037081   0.11211625  0.029893826 
number of iterations: 25469 
    3400    25.003472       79           79            0 8.1538998e-14            0          0.1 0.0090037789   0.11672291  0.029893708 
number of iterations: 25569 
    3500    25.661275       80           80            0 8.3095298e-14            0          0.1  0.009003851   0.12141749  0.029893588 
number of iterations: 25671 
    3600    26.338931       82           82            0 8.4681302e-14            0          0.1 0.0090039245   0.12620165  0.029893466 
number of iterations: 25770 
    3700    26.970048       84           84            0 8.6297577e-14            0          0.1 0.0090039994   0.13107713  0.029893341 
number of iterations: 25871 
    3800      27.7866       85           85            0 8.7944702e-14            0          0.1 0.0090040758   0.13604566  0.029893214 
number of iterations: 25965 
    3900    28.498905       87           87            0 8.9623265e-14            0          0.1 0.0090041536   0.14110901  0.029893085 
number of iterations: 26073 
    4000     29.17351       88           88            0 9.1333865e-14            0          0.1 0.0090042328   0.14626899  0.029892953 
number of iterations: 26173 
    4100    29.835313       90           90            0 9.3077115e-14            0          0.1 0.0090043136   0.15152746  0.029892818 
number of iterations: 26274 
    4200    30.544136       90           90            0 9.4853638e-14            0          0.1  0.009004396   0.15688629  0.029892681 
number of iterations: 26375 
    4300    31.186228       92           92            0 9.6664068e-14            0          0.1 0.0090044799   0.16234739  0.029892541 
number of iterations: 26476 
    4400    31.836114       93           93            0 9.8509053e-14            0          0.1 0.0090045654   0.16791272  0.029892399 
number of iterations: 26577 
    4500    32.484121       95           95            0 1.0038925e-13            0          0.1 0.0090046525   0.17358427  0.029892254 
number of iterations: 26696 
    4600    33.174425       97           97            0 1.0230534e-13            0          0.1 0.0090047413   0.17936403  0.029892106 
number of iterations: 26778 
    4700    33.810341       99           99            0  1.04258e-13            0          0.1 0.0090048318    0.1852541  0.029891955 
number of iterations: 26879 
    4800    34.476039      100          100            0 1.0624792e-13            0          0.1 0.0090049241   0.19125659  0.029891802 
number of iterations: 26980 
    4900    35.110906      103          103            0 1.0827583e-13            0          0.1 0.0090050181   0.19737364  0.029891645 
number of iterations: 27081 
    5000    35.750043      105          105            0 1.1034244e-13            0          0.1 0.0090051138   0.20360744  0.029891486 
number of iterations: 27182 
    5100    36.390515      106          106            0 1.124485e-13            0          0.1 0.0090052115   0.20996022  0.029891323 
number of iterations: 27000 
    5200    37.038412      108          108            0 1.1459476e-13            0          0.1 0.0090053069   0.21643426  0.029891164 
number of iterations: 27381 
    5300    37.702731      111          111            0 1.1678198e-13            0          0.1 0.0090054082   0.22303183  0.029890995 
number of iterations: 27480 
    5400    38.389679      115          115            0 1.1901094e-13            0          0.1 0.0090055114   0.22975532  0.029890824 
number of iterations: 27571 
    5500    39.054237      117          117            0 1.2128245e-13            0          0.1 0.0090056166   0.23660715  0.029890648 
number of iterations: 27682 
    5600    39.735072      120          120            0 1.2359732e-13            0          0.1 0.0090057239   0.24358975   0.02989047 
number of iterations: 28285 
    5700    40.449287      124          124            0 1.2595636e-13            0          0.1 0.0090058426   0.25070563  0.029890272 
number of iterations: 28317 
    5800    41.214328      129          129            0 1.2836044e-13            0          0.1 0.0090059616   0.25795731  0.029890074 
number of iterations: 28447 
    5900    41.946181      132          132            0 1.3081039e-13            0          0.1 0.0090060834    0.2653474  0.029889871 
number of iterations: 28113 
    6000    42.621917      134          134            0 1.3330711e-13            0          0.1 0.0090061995   0.27287853  0.029889678 
number of iterations: 28214 
    6100    43.365389      136          136            0 1.3585149e-13            0          0.1 0.0090063178   0.28055341  0.029889481 
number of iterations: 28316 
    6200    44.051763      139          139            0 1.3844442e-13            0          0.1 0.0090064384   0.28837477   0.02988928 
number of iterations: 28416 
    6300    44.736177      141          141            0 1.4108685e-13            0          0.1 0.0090065613   0.29634541  0.029889075 
number of iterations: 28517 
    6400    45.432059      145          145            0 1.4377971e-13            0          0.1 0.0090066866   0.30446817  0.029888867 
number of iterations: 28621 
    6500    46.141049      148          148            0 1.4652397e-13            0          0.1 0.0090068142   0.31274597  0.029888654 
number of iterations: 28720 
    6600    46.837163      149          149            0 1.4932061e-13            0          0.1 0.0090069442   0.32118176  0.029888438 
number of iterations: 28821 
    6700    47.510461      151          151            0 1.5217062e-13            0          0.1 0.0090070768   0.32977855  0.029888217 
number of iterations: 28919 
    6800    48.240738      154          154            0 1.5507504e-13            0          0.1 0.0090072119   0.33853944  0.029887992 
number of iterations: 29023 
    6900    48.957016      155          155            0 1.5803488e-13            0          0.1 0.0090073495   0.34746753  0.029887763 
number of iterations: 29125 
    7000    49.628722      158          158            0 1.6105122e-13            0          0.1 0.0090074898   0.35656603  0.029887529 
number of iterations: 29226 
    7100    50.371467      161          161            0 1.6412513e-13            0          0.1 0.0090076328   0.36583819  0.029887291 
number of iterations: 29675 
    7200    51.077473      164          164            0 1.6725772e-13            0          0.1 0.0090077864   0.37528731  0.029887035 
number of iterations: 29435 
    7300    51.838728      166          166            0 1.7045009e-13            0          0.1 0.0090079351   0.38491678  0.029886788 
number of iterations: 29537 
    7400    52.531506      170          170            0 1.7370339e-13            0          0.1 0.0090080865   0.39473003  0.029886536 
number of iterations: 29638 
    7500     53.26708      173          173            0 1.7701879e-13            0          0.1 0.0090082409   0.40473058  0.029886279 
number of iterations: 29739 
    7600    53.968087      175          175            0 1.8039746e-13            0          0.1 0.0090083982   0.41492201  0.029886017 
number of iterations: 29841 
    7700    54.701745      178          178            0 1.8384063e-13            0          0.1 0.0090085585   0.42530795   0.02988575 
number of iterations: 29759 
    7800    55.398366      180          180            0 1.8734951e-13            0          0.1 0.0090087176   0.43589213  0.029885485 
number of iterations: 29886 
    7900    56.142206      183          183            0 1.9092536e-13            0          0.1 0.0090088802   0.44667833  0.029885214 
number of iterations: 30139 
    8000    56.890838      186          186            0 1.9456946e-13            0          0.1 0.0090090497    0.4576704  0.029884932 
number of iterations: 30240 
    8100    57.607531      192          192            0 1.9828312e-13            0          0.1 0.0090092225   0.46887226  0.029884644 
number of iterations: 30343 
    8200     58.41481      195          195            0 2.0206766e-13            0          0.1 0.0090093985   0.48028792  0.029884351 
number of iterations: 30443 
    8300    59.175773      198          198            0 2.0592443e-13            0          0.1 0.0090095779   0.49192146  0.029884053 
number of iterations: 30544 
    8400    59.873733      202          202            0 2.0985481e-13            0          0.1 0.0090097607   0.50377704  0.029883748 
number of iterations: 30640 
    8500    60.585649      209          209            0 2.1386021e-13            0          0.1  0.009009947    0.5158589  0.029883438 
number of iterations: 30879 
    8600    61.339602      215          215            0 2.1794206e-13            0          0.1 0.0090101406   0.52817135  0.029883116 
number of iterations: 30851 
    8700    62.140759      219          219            0 2.2210182e-13            0          0.1 0.0090103341   0.54071879  0.029882793 
number of iterations: 30952 
    8800    62.918039      220          220            0 2.2634097e-13            0          0.1 0.0090105314   0.55350572  0.029882465 
number of iterations: 31054 
    8900    63.683304      227          227            0 2.3066103e-13            0          0.1 0.0090107324   0.56653672   0.02988213 
number of iterations: 31155 
    9000      64.4202      230          230            0 2.3506355e-13            0          0.1 0.0090109373   0.57981643  0.029881789 
number of iterations: 30818 
    9100    65.165035      234          234            0 2.395501e-13            0          0.1 0.0090111292   0.59334959  0.029881469 
number of iterations: 31350 
    9200    66.022375      237          237            0 2.4412227e-13            0          0.1 0.0090113416   0.60714104  0.029881116 
number of iterations: 31452 
    9300     66.92188      240          240            0 2.4878172e-13            0          0.1 0.0090115581   0.62119572  0.029880755 
number of iterations: 31555 
    9400    67.711615      247          247            0 2.5353009e-13            0          0.1 0.0090117787   0.63551867  0.029880388 
number of iterations: 31657 
    9500    68.538557      253          253            0 2.583691e-13            0          0.1 0.0090120035   0.65011498  0.029880014 
number of iterations: 31756 
    9600    69.369247      258          258            0 2.6330047e-13            0          0.1 0.0090122327   0.66498988  0.029879632 
number of iterations: 31859 
    9700    70.173159      265          265            0 2.6832595e-13            0          0.1 0.0090124661   0.68014868  0.029879243 
number of iterations: 31960 
    9800    71.024893      270          270            0 2.7344736e-13            0          0.1 0.0090127041   0.69559681  0.029878847 
number of iterations: 31967 
    9900    71.855016      273          273            0 2.7866652e-13            0          0.1 0.0090129432   0.71133979  0.029878449 
number of iterations: 32162 
   10000    72.798971      279          279            0 2.8398529e-13            0          0.1 0.0090131903   0.72738325  0.029878038 
Loop time of 72.799 on 8 procs for 10000 steps with 279 atoms

Performance: 118682915.663 tau/day, 137.364 timesteps/s
88.1% CPU use with 8 MPI tasks x no OpenMP threads

MPI task timing breakdown:
Section |  min time  |  avg time  |  max time  |%varavg| %total
---------------------------------------------------------------
Pair    | 0.0091364  | 0.011556   | 0.013667   |   1.2 |  0.02
Neigh   | 0.0078924  | 0.010797   | 0.024126   |   4.9 |  0.01
Comm    | 0.054744   | 0.061345   | 0.066804   |   1.8 |  0.08
Output  | 13.002     | 13.003     | 13.005     |   0.0 | 17.86
Modify  | 59.629     | 59.639     | 59.642     |   0.1 | 81.92
Other   |            | 0.07355    |            |       |  0.10

Nlocal:    34.875 ave 57 max 10 min
Histogram: 1 0 1 0 3 0 0 1 1 1
Nghost:    10.75 ave 17 max 6 min
Histogram: 3 0 1 1 0 0 0 1 0 2
Neighs:    42.375 ave 71 max 10 min
Histogram: 1 0 1 0 2 1 0 1 1 1

Total # of neighbors = 339
Ave neighs/atom = 1.21505
Neighbor list builds = 123
Dangerous builds = 0
Total wall time: 0:01:13
