 NUFEB Simulation

     50 atoms 
     2 atom types 
     4 nutrients 

  0.0e-4   1.00e-04  xlo xhi 
  0.0e-4   1.00e-04  ylo yhi 
  0.0e-4   5.00e-05  zlo zhi 

 Atoms 

     1 1 1.39e-06  370 7.29e-05 5.16e-05 2.80e-05 1.39e-06 
     2 1 1.50e-06  370 8.56e-05 4.63e-05 1.51e-05 1.50e-06 
     3 1 1.82e-06  370 5.08e-05 4.51e-05 4.33e-05 1.82e-06 
     4 1 1.92e-06  370 5.84e-05 8.73e-05 4.61e-05 1.92e-06 
     5 1 1.43e-06  370 5.81e-05 4.35e-05 1.15e-05 1.43e-06 
     6 1 1.73e-06  370 8.84e-05 9.31e-05 3.73e-05 1.73e-06 
     7 1 1.83e-06  370 6.31e-05 7.34e-05 3.50e-05 1.83e-06 
     8 1 1.87e-06  370 7.45e-05 7.30e-05 7.61e-06 1.87e-06 
     9 1 1.65e-06  370 8.44e-05 7.27e-05 3.47e-05 1.65e-06 
     10 1 1.63e-06  370 8.99e-05 5.96e-05 1.77e-05 1.63e-06 
     11 1 1.58e-06  370 1.29e-05 4.23e-05 4.53e-05 1.58e-06 
     12 1 1.42e-06  370 1.31e-05 4.40e-05 4.71e-05 1.42e-06 
     13 1 1.44e-06  370 9.57e-05 4.90e-05 1.76e-06 1.44e-06 
     14 1 1.82e-06  370 3.29e-06 7.97e-06 3.30e-05 1.82e-06 
     15 1 1.84e-06  370 3.31e-06 6.39e-05 3.13e-05 1.84e-06 
     16 1 1.76e-06  370 4.58e-05 6.05e-05 4.73e-05 1.76e-06 
     17 1 1.65e-06  370 9.30e-05 9.37e-05 4.61e-05 1.65e-06 
     18 1 1.73e-06  370 8.73e-05 1.61e-05 3.01e-05 1.73e-06 
     19 1 1.75e-06  370 3.46e-05 2.28e-05 6.49e-06 1.75e-06 
     20 1 1.58e-06  370 4.08e-05 6.79e-05 1.81e-05 1.58e-06 
     21 1 1.76e-06  370 6.63e-05 8.48e-05 2.79e-05 1.76e-06 
     22 1 1.47e-06  370 6.22e-05 2.58e-05 3.70e-05 1.47e-06 
     23 1 1.70e-06  370 5.49e-05 5.39e-05 4.78e-05 1.70e-06 
     24 1 1.49e-06  370 2.14e-05 8.38e-05 3.79e-06 1.49e-06 
     25 1 1.70e-06  370 3.90e-05 4.46e-05 3.98e-05 1.70e-06 
     26 1 1.52e-06  370 1.51e-05 6.64e-05 1.31e-05 1.52e-06 
     27 1 1.38e-06  370 8.40e-06 8.83e-05 1.03e-05 1.38e-06 
     28 1 1.63e-06  370 6.20e-05 2.72e-05 3.10e-05 1.63e-06 
     29 1 1.52e-06  370 4.49e-05 6.88e-05 3.10e-05 1.52e-06 
     30 1 1.54e-06  370 7.22e-05 3.89e-05 2.96e-05 1.54e-06 
     31 1 1.53e-06  370 8.73e-05 8.86e-05 3.34e-05 1.53e-06 
     32 1 1.46e-06  370 8.13e-05 7.22e-06 9.63e-06 1.46e-06 
     33 1 1.85e-06  370 3.84e-05 2.98e-05 2.32e-05 1.85e-06 
     34 1 1.73e-06  370 2.70e-05 3.73e-05 1.78e-05 1.73e-06 
     35 1 1.77e-06  370 2.20e-05 2.87e-05 2.46e-05 1.77e-06 
     36 1 1.66e-06  370 8.26e-05 5.40e-05 3.66e-05 1.66e-06 
     37 1 1.81e-06  370 2.15e-05 7.87e-05 1.74e-05 1.81e-06 
     38 1 1.42e-06  370 9.06e-05 7.97e-05 3.90e-05 1.42e-06 
     39 1 1.38e-06  370 3.05e-05 1.90e-06 2.52e-05 1.38e-06 
     40 1 1.83e-06  370 2.16e-06 5.46e-05 2.79e-05 1.83e-06 
     41 1 1.58e-06  370 1.85e-05 8.99e-05 2.15e-05 1.58e-06 
     42 1 1.72e-06  370 8.40e-05 7.44e-05 1.58e-05 1.72e-06 
     43 1 1.66e-06  370 2.34e-05 9.23e-05 4.82e-05 1.66e-06 
     44 1 1.61e-06  370 1.19e-05 5.71e-06 2.60e-05 1.61e-06 
     45 1 1.42e-06  370 7.36e-05 3.54e-06 2.05e-05 1.42e-06 
     46 1 1.43e-06  370 3.74e-05 6.85e-05 4.33e-05 1.43e-06 
     47 1 1.71e-06  370 5.50e-05 8.50e-05 3.83e-06 1.71e-06 
     48 1 1.60e-06  370 1.59e-05 6.80e-05 4.73e-05 1.60e-06 
     49 1 1.54e-06  370 5.36e-05 1.43e-05 7.61e-06 1.54e-06 
     50 1 1.84e-06  370 3.96e-05 8.98e-05 7.17e-06 1.84e-06 

 Nutrients 

     1 sub g nn nn nn 1.00e-01 1.00e-01 
     2 o2 l nn nn nd 9.00e-03 9.00e-03 
     3 suc l nn nn nn 3.42e-20 3.42e-20 
     4 co2 l nn nn nd 2.99e-02 2.99e-02 

 Type Name 

     1 cyano  
     2 ecw  

 Diffusion Coeffs 

     sub 0 
     o2 2.3e-09 
     suc 5.2e-10 
     co2 1.9e-09 

 Growth Rate 

     cyano 2.047e-05 
     ecw 6.71e-05 

 Ks 

     cyano 0.00035 0.0002 0.01 0.000138 
     ecw 0 0.001 3.6 0.05 

 Yield 

     cyano 0.55 
     ecw 0.43 

 Maintenance 

     cyano 0 
     ecw 9.5e-07 

 Decay 

     cyano 0 
     ecw 0 



