 NUFEB Simulation

     100 atoms 
     2 atom types 
     4 nutrients 

  0.0e-4   1.00e-04  xlo xhi 
  0.0e-4   1.00e-04  ylo yhi 
  0.0e-4   1.00e-05  zlo zhi 

 Atoms 

     1 1 1.91e-06  370 1.52e-05 2.24e-05 3.52e-06 1.91e-06 
     2 1 1.67e-06  370 5.86e-05 6.29e-05 3.80e-06 1.67e-06 
     3 1 1.49e-06  370 1.38e-05 1.72e-05 6.76e-06 1.49e-06 
     4 1 1.87e-06  370 4.41e-05 1.58e-05 8.12e-06 1.87e-06 
     5 1 1.76e-06  370 4.26e-05 1.64e-05 7.68e-06 1.76e-06 
     6 1 1.41e-06  370 3.23e-05 6.82e-05 3.88e-06 1.41e-06 
     7 1 1.75e-06  370 3.48e-05 1.90e-05 2.35e-06 1.75e-06 
     8 1 1.40e-06  370 1.98e-05 7.06e-05 1.59e-06 1.40e-06 
     9 1 1.40e-06  370 5.04e-05 4.17e-05 2.42e-06 1.40e-06 
     10 1 1.50e-06  370 5.11e-05 8.44e-05 4.37e-06 1.50e-06 
     11 1 1.72e-06  370 9.67e-05 6.17e-05 5.48e-06 1.72e-06 
     12 1 1.59e-06  370 3.49e-05 1.06e-05 8.02e-06 1.59e-06 
     13 1 1.78e-06  370 8.79e-06 8.01e-06 6.36e-06 1.78e-06 
     14 1 1.41e-06  370 1.69e-05 6.52e-05 2.18e-06 1.41e-06 
     15 1 1.69e-06  370 5.72e-06 8.03e-05 7.00e-06 1.69e-06 
     16 1 1.39e-06  370 1.62e-05 6.11e-05 3.56e-06 1.39e-06 
     17 1 1.89e-06  370 6.60e-06 9.11e-05 4.80e-06 1.89e-06 
     18 1 1.80e-06  370 8.65e-05 2.16e-05 6.01e-06 1.80e-06 
     19 1 1.66e-06  370 2.81e-05 8.38e-05 6.02e-06 1.66e-06 
     20 1 1.86e-06  370 8.60e-05 9.09e-06 5.95e-06 1.86e-06 
     21 1 1.89e-06  370 4.09e-05 4.55e-05 5.35e-06 1.89e-06 
     22 1 1.42e-06  370 1.14e-05 3.89e-06 6.53e-06 1.42e-06 
     23 1 1.67e-06  370 8.44e-05 7.74e-05 1.98e-06 1.67e-06 
     24 1 1.89e-06  370 8.24e-05 9.37e-05 6.85e-06 1.89e-06 
     25 1 1.73e-06  370 2.39e-05 7.44e-05 7.76e-06 1.73e-06 
     26 1 1.57e-06  370 3.39e-05 3.86e-05 2.95e-06 1.57e-06 
     27 1 1.68e-06  370 9.00e-05 8.04e-06 5.72e-06 1.68e-06 
     28 1 1.44e-06  370 5.38e-05 7.40e-05 4.36e-06 1.44e-06 
     29 1 1.80e-06  370 4.90e-05 8.00e-05 4.17e-06 1.80e-06 
     30 1 1.60e-06  370 4.85e-05 2.95e-05 6.89e-06 1.60e-06 
     31 1 1.47e-06  370 7.50e-05 8.02e-05 2.14e-06 1.47e-06 
     32 1 1.56e-06  370 8.45e-05 7.43e-05 4.91e-06 1.56e-06 
     33 1 1.40e-06  370 7.49e-05 5.45e-05 1.54e-06 1.40e-06 
     34 1 1.62e-06  370 7.87e-05 7.69e-05 2.72e-06 1.62e-06 
     35 1 1.40e-06  370 3.47e-05 3.31e-05 2.09e-06 1.40e-06 
     36 1 1.42e-06  370 3.56e-05 8.66e-05 6.54e-06 1.42e-06 
     37 1 1.85e-06  370 6.65e-06 7.42e-05 5.32e-06 1.85e-06 
     38 1 1.80e-06  370 9.04e-06 8.31e-05 7.82e-06 1.80e-06 
     39 1 1.84e-06  370 4.18e-05 3.75e-05 3.83e-06 1.84e-06 
     40 1 1.88e-06  370 3.63e-05 8.95e-05 7.65e-06 1.88e-06 
     41 1 1.53e-06  370 3.52e-05 5.11e-05 3.77e-06 1.53e-06 
     42 1 1.58e-06  370 2.30e-05 4.31e-05 5.63e-06 1.58e-06 
     43 1 1.40e-06  370 4.48e-05 6.01e-05 7.62e-06 1.40e-06 
     44 1 1.37e-06  370 3.56e-05 3.55e-05 5.65e-06 1.37e-06 
     45 1 1.37e-06  370 9.50e-05 7.37e-06 8.09e-06 1.37e-06 
     46 1 1.64e-06  370 6.53e-05 2.73e-05 5.36e-06 1.64e-06 
     47 1 1.68e-06  370 4.00e-05 3.55e-05 7.02e-06 1.68e-06 
     48 1 1.55e-06  370 1.44e-05 4.61e-05 8.26e-06 1.55e-06 
     49 1 1.51e-06  370 5.86e-05 8.28e-05 4.81e-06 1.51e-06 
     50 1 1.88e-06  370 3.69e-05 9.34e-05 5.45e-06 1.88e-06 
     51 2 1.37e-06  230 1.40e-05 1.23e-05 7.99e-06 1.37e-06 
     52 2 1.17e-06  230 1.63e-05 7.01e-05 3.08e-06 1.17e-06 
     53 2 9.36e-07  230 8.04e-05 6.26e-05 8.45e-06 9.36e-07 
     54 2 1.25e-06  230 8.66e-05 4.19e-05 1.67e-06 1.25e-06 
     55 2 1.05e-06  230 1.93e-06 9.32e-05 3.45e-06 1.05e-06 
     56 2 1.11e-06  230 8.28e-05 5.44e-05 3.70e-06 1.11e-06 
     57 2 1.25e-06  230 4.52e-05 3.37e-05 5.96e-06 1.25e-06 
     58 2 9.13e-07  230 4.62e-05 6.95e-05 7.71e-06 9.13e-07 
     59 2 1.10e-06  230 1.49e-05 6.90e-05 4.41e-06 1.10e-06 
     60 2 1.06e-06  230 1.86e-05 2.40e-05 3.95e-06 1.06e-06 
     61 2 8.95e-07  230 7.46e-05 5.37e-05 7.01e-06 8.95e-07 
     62 2 9.98e-07  230 6.10e-05 9.01e-05 5.30e-06 9.98e-07 
     63 2 1.32e-06  230 5.08e-05 7.92e-05 4.71e-06 1.32e-06 
     64 2 1.33e-06  230 5.51e-05 3.80e-05 4.96e-06 1.33e-06 
     65 2 1.16e-06  230 6.61e-06 7.33e-05 7.40e-06 1.16e-06 
     66 2 1.07e-06  230 8.45e-05 8.78e-05 2.46e-06 1.07e-06 
     67 2 9.04e-07  230 8.89e-05 6.98e-05 3.85e-06 9.04e-07 
     68 2 1.09e-06  230 7.48e-05 1.94e-05 8.82e-06 1.09e-06 
     69 2 1.11e-06  230 7.44e-05 5.52e-05 1.20e-06 1.11e-06 
     70 2 1.12e-06  230 6.36e-05 8.94e-05 8.74e-06 1.12e-06 
     71 2 1.05e-06  230 1.51e-05 6.35e-05 3.13e-06 1.05e-06 
     72 2 9.71e-07  230 4.40e-05 2.74e-05 5.22e-06 9.71e-07 
     73 2 1.29e-06  230 7.62e-05 7.96e-05 1.42e-06 1.29e-06 
     74 2 9.90e-07  230 9.41e-05 2.73e-05 6.41e-06 9.90e-07 
     75 2 1.34e-06  230 5.70e-05 7.05e-05 6.44e-06 1.34e-06 
     76 2 1.28e-06  230 4.94e-05 4.73e-05 3.50e-06 1.28e-06 
     77 2 9.68e-07  230 8.35e-05 2.22e-05 4.29e-06 9.68e-07 
     78 2 9.73e-07  230 8.44e-05 3.78e-05 1.54e-06 9.73e-07 
     79 2 1.14e-06  230 2.66e-05 8.68e-05 3.49e-06 1.14e-06 
     80 2 9.31e-07  230 6.59e-05 5.31e-05 2.08e-06 9.31e-07 
     81 2 1.20e-06  230 5.38e-05 5.85e-05 2.21e-06 1.20e-06 
     82 2 1.10e-06  230 5.69e-05 3.23e-05 1.71e-06 1.10e-06 
     83 2 1.23e-06  230 4.76e-05 7.91e-05 7.26e-06 1.23e-06 
     84 2 9.15e-07  230 8.72e-05 7.36e-05 6.06e-06 9.15e-07 
     85 2 1.00e-06  230 7.16e-05 5.84e-05 8.74e-06 1.00e-06 
     86 2 9.79e-07  230 1.24e-06 3.88e-05 7.17e-06 9.79e-07 
     87 2 9.33e-07  230 6.95e-05 8.55e-06 5.02e-06 9.33e-07 
     88 2 1.20e-06  230 6.23e-05 2.46e-05 1.22e-06 1.20e-06 
     89 2 1.30e-06  230 9.76e-05 6.55e-05 7.42e-06 1.30e-06 
     90 2 1.02e-06  230 6.30e-05 6.02e-05 1.06e-06 1.02e-06 
     91 2 1.03e-06  230 3.44e-05 9.46e-06 6.68e-06 1.03e-06 
     92 2 1.08e-06  230 5.84e-05 3.17e-05 8.19e-06 1.08e-06 
     93 2 1.14e-06  230 8.57e-05 5.04e-05 4.66e-06 1.14e-06 
     94 2 1.32e-06  230 6.35e-05 9.14e-06 7.76e-06 1.32e-06 
     95 2 9.66e-07  230 3.56e-05 1.97e-05 1.04e-06 9.66e-07 
     96 2 1.11e-06  230 7.23e-05 4.35e-05 4.06e-06 1.11e-06 
     97 2 1.06e-06  230 2.97e-05 7.82e-05 6.20e-06 1.06e-06 
     98 2 1.29e-06  230 9.40e-05 2.87e-05 3.88e-06 1.29e-06 
     99 2 1.39e-06  230 6.18e-05 1.87e-05 5.67e-06 1.39e-06 
     100 2 1.01e-06  230 9.88e-05 2.18e-05 5.43e-06 1.01e-06 

 Nutrients 

     1 sub g nn nn nn 1.00e-01 1.00e-01 
     2 o2 l nn nn nd 9.00e-03 9.00e-03 
     3 suc l nn nn nn 3.42e-20 3.42e-20 
     4 co2 l nn nn nd 2.99e-02 2.99e-02 

 Type Name 

     1 cyano  
     2 ecw  

 Diffusion Coeffs 

     sub 0 
     o2 2.3e-09 
     suc 5.2e-10 
     co2 1.9e-09 

 Growth Rate 

     cyano 1.67e-05 
     ecw 5e-06 

 Ks 

     cyano 0.00035 0.0002 0.01 0.000138 
     ecw 0 0.001 3.6 0.05 

 Yield 

     cyano 0.55 
     ecw 0.43 

 Maintenance 

     cyano 0 
     ecw 9.5e-07 

 Decay 

     cyano 0 
     ecw 0 



