LAMMPS (20 Nov 2019)
# NUFEB simulation

atom_style	bio
atom_modify	map array sort 1000 5.0e-7
boundary	ff ff ff
newton		off
processors  * * *

comm_modify	vel yes
#variable reps loop 1
read_data_bio atom_50_50_100_1_2021-08-31.in
  orthogonal box = (0 0 0) to (0.0001 0.0001 1e-05)
  8 by 4 by 1 MPI processor grid
  reading atoms ...
  100 atoms
  4 nutrients
#shell mkdir Run_50_50_100_1
#shell cd Run_50_50_100_1
##############Define initial particle distribution##############

lattice sc 1e-6 origin 0 0 0
Lattice spacing in x,y,z = 100 100 100
region reg block 0 1000 0 1000 0 100

group CYANO type 1
50 atoms in group CYANO
group ECW type 2
50 atoms in group ECW

neighbor	5e-7 bin
neigh_modify	delay 0 one 5000

##############Define DEM Variables&Commands##############

pair_style  gran/hooke/history 1.e-4 NULL 1.e-5 NULL 0.0 1
pair_coeff  * *

timestep 10

fix 1 all nve/limit 1e-8
fix fv all viscous 1e-5

fix zw all wall/gran hooke/history 2000 NULL 500.0 NULL 1.5 0 zplane  0.0  1e-05

variable kanc equal 50

variable ke equal 5e+10


##############Define IBm Variables##############

#variables used in fix eps_extract
variable EPSdens equal 30
variable EPSratio equal 1.3

#variables used in fix division
variable divDia1 equal 1.96e-6
variable divDia2 equal 1.04e-6

#variables used in fix kinetics
variable diffT equal 1e-4
variable tol equal 1e-11
variable etaHET equal 0.6
variable layer equal -1

#variables used in fix death
#variable deadDia equal 9e-7


##############Define IBm Commands##############

fix k1 all kinetics 100 50 50 5 v_diffT v_layer niter 1000000
fix kgm all kinetics/growth/monod sucexp 1.0
fix g1 all kinetics/diffusion v_tol
fix d1 CYANO divide 100 v_EPSdens v_divDia1 704291
fix d2 ECW divide 100 v_EPSdens v_divDia2 467462
#fix d2 all death 1 v_deadDia demflag 0


##############Define IBm Computes##############

compute myNtypes all ntypes
compute myMass all biomass
compute myCon all avg_con

##############Simulation exit condition##############
variable co2 equal c_myCon[4]
fix 10 all halt 100 v_co2 <= 1e-19

variable light equal c_myCon[1]
fix 11 all halt 100 v_light <= 1e-19

##############Simulation Output##############
dump    id all custom 100 output.lammmps id type diameter x y z
dump    du1 all vtk 100 atom_*.vtu id type diameter x y z
dump    du2 all grid 100 grid_%_*.vti con
dump    du3 all bio 100 ntypes biomass avg_con
dump    traj all bio/hdf5 100 trajectory.h5 id type radius x y z con
thermo_style    custom step cpu atoms c_myNtypes[*] c_myMass[*] c_myCon[*]
thermo		100
thermo_modify	lost ignore


run 35000
Model is defined as a closed system. 
Neighbor list info ...
  update every 1 steps, delay 0 steps, check yes
  max neighbors/atom: 5000, page size: 100000
  master list distance cutoff = 2.41e-06
  ghost atom cutoff = 2.41e-06
  binsize = 1.205e-06, bins = 83 83 9
  1 neighbor lists, perpetual/occasional/extra = 1 0 0
  (1) pair gran/hooke/history, perpetual
      attributes: half, newton off, size, history
      pair build: half/size/bin/newtoff
      stencil: half/bin/3d/newtoff
      bin: standard
Per MPI rank memory allocation (min/avg/max) = 6.792 | 10.95 | 12.11 Mbytes
Step CPU Atoms c_myNtypes[1] c_myNtypes[2] c_myMass[1] c_myMass[2] c_myCon[1] c_myCon[2] c_myCon[3] c_myCon[4] 
       0            0      100           50           50 4.3264623e-14 8.5928442e-15          0.1        0.009     3.42e-20       0.0299 
number of iterations: 325539 
     100    15.812412      132           50           82 4.3837975e-14 8.5858671e-15          0.1 0.0090007092  0.034765612  0.029898819 
number of iterations: 4238 
     200    16.152214      144           50           94 4.4418925e-14 8.5792286e-15          0.1 0.0090007185  0.068886984  0.029898803 
number of iterations: 2867 
     300    16.430518      144           50           94 4.5007574e-14 8.5729457e-15          0.1  0.009000728    0.1034478  0.029898787 
number of iterations: 2292 
     400    16.691271      144           50           94 4.5604024e-14 8.5670172e-15          0.1 0.0090007377   0.13845691  0.029898771 
number of iterations: 1927 
     500    16.916913      144           50           94 4.6208379e-14 8.561441e-15          0.1 0.0090007474   0.17392122  0.029898755 
number of iterations: 1681 
     600    17.127593      144           50           94 4.6820742e-14 8.5562147e-15          0.1 0.0090007573   0.20984737  0.029898738 
number of iterations: 1513 
     700     17.34976      145           51           94 4.7441221e-14 8.5513359e-15          0.1 0.0090007646    0.2462419  0.029898726 
number of iterations: 1401 
     800    17.559902      145           51           94 4.8069922e-14 8.546802e-15          0.1 0.0090007747   0.28311132  0.029898709 
number of iterations: 1404 
     900    17.760231      145           51           94 4.8706955e-14 8.5426104e-15          0.1 0.0090007849   0.32046218  0.029898692 
number of iterations: 1397 
    1000    17.959629      148           54           94 4.935243e-14 8.5387588e-15          0.1 0.0090007911   0.35830107  0.029898682 
number of iterations: 1623 
    1100    18.216505      150           56           94 5.0006459e-14 8.5352444e-15          0.1  0.009000791   0.39663465  0.029898682 
number of iterations: 1576 
    1200    18.502274      151           57           94 5.0669156e-14 8.5320648e-15          0.1  0.009000807   0.43546965  0.029898656 
number of iterations: 1614 
    1300    18.711936      152           58           94 5.1340634e-14 8.5292177e-15          0.1 0.0090008135   0.47481301  0.029898645 
number of iterations: 1411 
    1400    18.898477      152           58           94 5.2021012e-14 8.5267005e-15          0.1 0.0090008243   0.51467152  0.029898627 
number of iterations: 1460 
    1500    19.104507      153           59           94 5.2710405e-14 8.5245108e-15          0.1 0.0090008304   0.55505215  0.029898617 
number of iterations: 1407 
    1600     19.28898      154           60           94 5.3408935e-14 8.5226462e-15          0.1 0.0090008382   0.59596202  0.029898603 
number of iterations: 1414 
    1700    19.474752      154           60           94 5.4116722e-14 8.5211044e-15          0.1 0.0090008493   0.63740826  0.029898585 
number of iterations: 1416 
    1800    19.653248      154           60           94 5.4833888e-14 8.519883e-15          0.1 0.0090008606   0.67939814  0.029898566 
number of iterations: 1419 
    1900    19.844189      154           60           94 5.5560559e-14 8.5189798e-15          0.1  0.009000872   0.72193902  0.029898547 
number of iterations: 1684 
    2000    20.080288      154           60           94 5.6296859e-14 8.5183925e-15          0.1 0.0090008867   0.76503833  0.029898523 
number of iterations: 1592 
    2100    20.273917      157           63           94 5.7042917e-14 8.5181184e-15          0.1 0.0090009006   0.80870357  0.029898499 
number of iterations: 1429 
    2200    20.450251      157           63           94 5.7798862e-14 8.5181558e-15          0.1 0.0090009125   0.85294245   0.02989848 
number of iterations: 1697 
    2300     20.63221      158           64           94 5.8564825e-14 8.5185023e-15          0.1 0.0090009288   0.89776251  0.029898453 
number of iterations: 1435 
    2400       20.822      158           64           94 5.9340939e-14 8.5191559e-15          0.1 0.0090009411   0.94317178  0.029898432 
number of iterations: 1438 
    2500    21.026733      158           64           94 6.0127338e-14 8.5201146e-15          0.1 0.0090009535    0.9891782  0.029898411 
number of iterations: 1440 
    2600    21.210172      159           65           94 6.0924158e-14 8.5213763e-15          0.1 0.0090009598    1.0357898  0.029898401 
number of iterations: 1459 
    2700    21.377255      160           66           94 6.1731538e-14 8.522939e-15          0.1 0.0090009739    1.0830148  0.029898377 
number of iterations: 1446 
    2800    21.551213      160           66           94 6.2549618e-14 8.5248005e-15          0.1 0.0090009868    1.1308614  0.029898356 
number of iterations: 1449 
    2900    21.734811      160           66           94 6.3378539e-14 8.5269591e-15          0.1 0.0090009999     1.179338  0.029898334 
number of iterations: 1373 
    3000    21.938355      161           67           94 6.4218445e-14 8.5294126e-15          0.1 0.0090010075     1.228453  0.029898321 
number of iterations: 1662 
    3100    22.167778      162           68           94 6.5069481e-14 8.5321594e-15          0.1 0.0090010222    1.2782151  0.029898297 
number of iterations: 1454 
    3200    22.406146      162           68           94 6.5931796e-14 8.5351974e-15          0.1 0.0090010357     1.328633  0.029898274 
number of iterations: 1457 
    3300    22.589781      162           68           94 6.6805538e-14 8.5385247e-15          0.1 0.0090010495    1.3797155  0.029898251 
number of iterations: 1460 
    3400    22.777719      162           68           94 6.7690859e-14 8.5421395e-15          0.1 0.0090010634    1.4314714  0.029898228 
number of iterations: 1442 
    3500    22.954073      163           69           94 6.8587913e-14  8.54604e-15          0.1 0.0090010774    1.4839102  0.029898205 
number of iterations: 1465 
    3600    23.140516      163           69           94 6.9496855e-14 8.5502243e-15          0.1 0.0090010917    1.5370407  0.029898181 
number of iterations: 1468 
    3700    23.336183      165           71           94 7.0417842e-14 8.5546909e-15          0.1 0.0090011026    1.5908717  0.029898163 
number of iterations: 1466 
    3800    23.501936      167           73           94 7.1351034e-14 8.5594376e-15          0.1 0.0090011129     1.645413  0.029898146 
number of iterations: 1618 
    3900    23.722283      168           74           94 7.2296593e-14 8.564463e-15          0.1 0.0090011318    1.7006743  0.029898114 
number of iterations: 1479 
    4000    23.976244      168           74           94 7.3254683e-14 8.5697653e-15          0.1 0.0090011468    1.7566652  0.029898089 
number of iterations: 1482 
    4100    24.168053      168           74           94 7.4225469e-14 8.5753427e-15          0.1  0.009001162    1.8133955  0.029898064 
number of iterations: 1485 
    4200    24.340262      169           75           94 7.5209121e-14 8.5811936e-15          0.1 0.0090011731     1.870875  0.029898045 
number of iterations: 1488 
    4300    24.522166      169           75           94 7.6205808e-14 8.5873164e-15          0.1 0.0090011887    1.9291139  0.029898019 
number of iterations: 1490 
    4400    24.706468      169           75           94 7.7215704e-14 8.5937096e-15          0.1 0.0090012044    1.9881222  0.029897993 
number of iterations: 1493 
    4500     24.88469      170           76           94 7.8238983e-14 8.6003714e-15          0.1 0.0090012204    2.0479104  0.029897967 
number of iterations: 1496 
    4600     25.08178      170           76           94 7.9275822e-14 8.6073005e-15          0.1 0.0090012366    2.1084889   0.02989794 
number of iterations: 1499 
    4700    25.290885      170           76           94 8.0326402e-14 8.6144953e-15          0.1  0.009001253    2.1698681  0.029897912 
number of iterations: 1502 
    4800    25.493314      171           77           94 8.1390904e-14 8.6219539e-15          0.1 0.0090012696     2.232059  0.029897885 
number of iterations: 1611 
    4900    25.680602      172           78           94 8.2469514e-14 8.6296751e-15          0.1 0.0090012912    2.2950723  0.029897849 
number of iterations: 1507 
    5000    25.871924      172           78           94 8.3562417e-14 8.6376577e-15          0.1 0.0090013083    2.3589191   0.02989782 
number of iterations: 1494 
    5100    26.044531      173           79           94 8.4669804e-14   8.6459e-15          0.1 0.0090013214    2.4236105  0.029897798 
number of iterations: 1513 
    5200    26.233906      174           80           94 8.5791865e-14 8.6544008e-15          0.1 0.0090013389    2.4891578  0.029897769 
number of iterations: 1516 
    5300    26.434304      174           80           94 8.6928797e-14 8.6631585e-15          0.1 0.0090013567    2.5555725   0.02989774 
number of iterations: 1528 
    5400    26.625941      176           82           94 8.8080796e-14 8.672172e-15          0.1 0.0090013747    2.6228661   0.02989771 
number of iterations: 1615 
    5500    26.832893      178           83           95 8.9248061e-14 8.6814402e-15          0.1 0.0090013977    2.6910505  0.029897671 
number of iterations: 1525 
    5600    27.011804      178           83           95 9.0430794e-14 8.6909613e-15          0.1 0.0090014162    2.7601375   0.02989764 
number of iterations: 1528 
    5700    27.194193      178           83           95 9.1629202e-14 8.7007341e-15          0.1  0.009001435    2.8301392  0.029897609 
number of iterations: 1473 
    5800    27.382146      180           85           95 9.2843491e-14 8.7107575e-15          0.1 0.0090014512    2.9010678  0.029897582 
number of iterations: 1534 
    5900     27.57195      181           86           95 9.4073872e-14 8.7210302e-15          0.1 0.0090014705    2.9729357   0.02989755 
number of iterations: 1595 
    6000    27.739312      183           88           95 9.5320559e-14 8.7315511e-15          0.1 0.0090014912    3.0457555  0.029897515 
number of iterations: 1538 
    6100    27.949952      184           89           95 9.6583767e-14 8.7423185e-15          0.1 0.0090015109    3.1195399  0.029897483 
number of iterations: 1571 
    6200    28.132499      190           95           95 9.7863715e-14 8.7533313e-15          0.1 0.0090015319    3.1943015  0.029897448 
number of iterations: 1567 
    6300    28.320965      194           99           95 9.9160625e-14 8.7645884e-15          0.1 0.0090015501    3.2700538  0.029897417 
number of iterations: 1491 
    6400    28.494489      198          103           95 1.0047472e-13 8.7760885e-15          0.1 0.0090015671    3.3468098  0.029897389 
number of iterations: 1646 
    6500    28.685152      199          104           95 1.0180623e-13 8.7878309e-15          0.1 0.0090015914    3.4245832  0.029897348 
number of iterations: 1544 
    6600    28.878742      201          106           95 1.0315539e-13 8.7998142e-15          0.1 0.0090016125    3.5033875  0.029897313 
number of iterations: 1547 
    6700    29.073728      202          107           95 1.0452243e-13 8.8120371e-15          0.1 0.0090016351    3.5832363  0.029897276 
number of iterations: 1552 
    6800    29.252501      202          107           95 1.0590758e-13 8.824499e-15          0.1 0.0090016568    3.6641435   0.02989724 
number of iterations: 1553 
    6900    29.433431      203          108           95 1.0731109e-13 8.8371983e-15          0.1 0.0090016788    3.7461232  0.029897203 
number of iterations: 1556 
    7000     29.60097      203          108           95 1.087332e-13 8.8501339e-15          0.1  0.009001701    3.8291897  0.029897166 
number of iterations: 1623 
    7100    29.801719      204          108           96 1.1017415e-13 8.8633046e-15          0.1 0.0090017268    3.9133576  0.029897123 
number of iterations: 1587 
    7200    30.012062      205          109           96 1.116342e-13 8.8767094e-15          0.1 0.0090017529    3.9986415  0.029897079 
number of iterations: 1564 
    7300    30.203022      205          109           96 1.131136e-13 8.8903473e-15          0.1 0.0090017761    4.0850564  0.029897041 
number of iterations: 1567 
    7400    30.386777      205          109           96 1.1461261e-13 8.9042175e-15          0.1 0.0090017997    4.1726172  0.029897002 
number of iterations: 1727 
    7500    30.584159      208          112           96 1.1613148e-13 8.9183191e-15          0.1 0.0090018344    4.2613395  0.029896944 
number of iterations: 1575 
    7600    30.781486      210          114           96 1.1767047e-13 8.9326509e-15          0.1 0.0090018587    4.3512386  0.029896903 
number of iterations: 1562 
    7700    30.954499      212          116           96 1.1922987e-13 8.9472121e-15          0.1 0.0090018816    4.4423302  0.029896865 
number of iterations: 1630 
    7800    31.135471      220          124           96 1.2080992e-13 8.9620015e-15          0.1 0.0090019067    4.5346302  0.029896823 
number of iterations: 1526 
    7900    31.351741      222          125           97 1.2241092e-13 8.9770184e-15          0.1  0.009001927    4.6281548  0.029896789 
number of iterations: 1596 
    8000    31.537129      226          129           97 1.2403314e-13 8.9922619e-15          0.1 0.0090019525    4.7229201  0.029896747 
number of iterations: 1587 
    8100    31.732195      229          130           99 1.2567685e-13 9.0077309e-15          0.1 0.0090019784    4.8189427  0.029896704 
number of iterations: 1685 
    8200    31.919752      230          131           99 1.2734234e-13 9.0234248e-15          0.1 0.0090020062    4.9162393  0.029896657 
number of iterations: 1731 
    8300    32.127961      233          134           99 1.2902991e-13 9.0393424e-15          0.1 0.0090020426     5.014827  0.029896597 
number of iterations: 1611 
    8400    32.328553      235          136           99 1.3073984e-13 9.0554832e-15          0.1 0.0090020721    5.1147233  0.029896548 
number of iterations: 1694 
    8500    32.529085      237          137          100 1.3247243e-13 9.0718462e-15          0.1 0.0090021031    5.2159453  0.029896496 
number of iterations: 1604 
    8600    32.724212      238          138          100 1.3422798e-13 9.0884307e-15          0.1 0.0090021323    5.3185106  0.029896448 
number of iterations: 1761 
    8700    32.909661      240          140          100 1.360068e-13 9.1052356e-15          0.1 0.0090021655     5.422437  0.029896392 
number of iterations: 1543 
    8800    33.102459      240          140          100 1.3780919e-13 9.1222607e-15          0.1 0.0090021854    5.5277427  0.029896359 
number of iterations: 1616 
    8900    33.281695      241          140          101 1.3963546e-13 9.1395048e-15          0.1 0.0090022158    5.6344459  0.029896308 
number of iterations: 1615 
    9000    33.460646      243          142          101 1.4148594e-13 9.1569674e-15          0.1 0.0090022452    5.7425654  0.029896259 
number of iterations: 1619 
    9100    33.691759      244          143          101 1.4336094e-13 9.1746475e-15          0.1  0.009002275    5.8521202   0.02989621 
number of iterations: 1670 
    9200    33.890012      248          147          101 1.4526079e-13 9.1925447e-15          0.1 0.0090023001     5.963129  0.029896168 
number of iterations: 1625 
    9300    34.073124      248          147          101 1.4718581e-13 9.2106579e-15          0.1 0.0090023306    6.0756114  0.029896117 
number of iterations: 1628 
    9400    34.253809      249          148          101 1.4913635e-13 9.2289865e-15          0.1 0.0090023651     6.189587   0.02989606 
number of iterations: 1631 
    9500    34.440269      250          149          101 1.5111273e-13 9.2475298e-15          0.1 0.0090023997    6.3050758  0.029896002 
number of iterations: 1633 
    9600    34.619351      250          149          101 1.5311531e-13 9.2662871e-15          0.1 0.0090024315    6.4220978  0.029895949 
number of iterations: 1612 
    9700    34.804949      251          150          101 1.5514442e-13 9.2852577e-15          0.1 0.0090024637    6.5406734  0.029895895 
number of iterations: 1646 
    9800    34.995501      254          153          101 1.5720043e-13 9.304441e-15          0.1 0.0090024952    6.6608229  0.029895843 
number of iterations: 1642 
    9900    35.186202      254          153          101 1.5928368e-13 9.3238361e-15          0.1 0.0090025283    6.7825678  0.029895788 
number of iterations: 1645 
   10000    35.409203      254          153          101 1.6139453e-13 9.3434427e-15          0.1 0.0090025618     6.905929  0.029895732 
number of iterations: 1655 
   10100    35.618658      256          154          102 1.6353337e-13 9.3632597e-15          0.1 0.0090025957    7.0309279  0.029895676 
number of iterations: 1649 
   10200    35.808527      257          155          102 1.6570054e-13 9.383287e-15          0.1 0.0090026302    7.1575865  0.029895618 
number of iterations: 1800 
   10300    36.005053      263          161          102 1.6789644e-13 9.403524e-15          0.1 0.0090026733    7.2859268  0.029895546 
number of iterations: 1654 
   10400    36.205026      269          165          104 1.7012143e-13  9.42397e-15          0.1 0.0090027056     7.415971  0.029895493 
number of iterations: 1656 
   10500    36.391113      271          167          104 1.7237592e-13 9.4446244e-15          0.1 0.0090027401    7.5477421  0.029895435 
number of iterations: 1616 
   10600    36.588712      274          170          104 1.7466028e-13 9.4654865e-15          0.1 0.0090027727    7.6812628  0.029895381 
number of iterations: 1602 
   10700    36.757193      275          171          104 1.7697491e-13 9.486556e-15          0.1 0.0090028048    7.8165565  0.029895327 
number of iterations: 1645 
   10800    36.941519      279          175          104 1.7932021e-13 9.5078322e-15          0.1  0.009002837    7.9536466  0.029895274 
number of iterations: 1746 
   10900    37.129979      281          177          104 1.816966e-13 9.5293144e-15          0.1 0.0090028727     8.092557  0.029895214 
number of iterations: 1676 
   11000    37.320063      283          179          104 1.8410448e-13 9.5510022e-15          0.1 0.0090029145    8.2333121  0.029895145 
number of iterations: 1678 
   11100    37.517433      286          182          104 1.8654426e-13 9.5728951e-15          0.1 0.0090029531    8.3759365   0.02989508 
number of iterations: 1696 
   11200    37.689707      288          184          104 1.8901639e-13 9.5949925e-15          0.1 0.0090029895    8.5204552   0.02989502 
number of iterations: 1794 
   11300    37.899737      292          188          104 1.9152127e-13 9.6172939e-15          0.1 0.0090030233    8.6668933  0.029894964 
number of iterations: 1673 
   11400    38.101675      295          190          105 1.9405934e-13 9.6397991e-15          0.1 0.0090030601    8.8152762  0.029894902 
number of iterations: 1689 
   11500    38.317368      295          190          105 1.9663105e-13 9.6625075e-15          0.1 0.0090031006    8.9656297  0.029894835 
number of iterations: 1697 
   11600    38.522426      298          193          105 1.9923685e-13 9.6854188e-15          0.1 0.0090031387      9.11798  0.029894771 
number of iterations: 1785 
   11700    38.732807      300          194          106 2.0187717e-13 9.7085324e-15          0.1 0.0090031866    9.2723539  0.029894691 
number of iterations: 1627 
   11800    38.924083      305          199          106 2.0455249e-13 9.731848e-15          0.1 0.0090032143    9.4287783  0.029894645 
number of iterations: 1700 
   11900    39.097149      310          204          106 2.0726325e-13 9.7553649e-15          0.1 0.0090032523    9.5872803  0.029894582 
number of iterations: 1690 
   12000    39.293265      314          206          108 2.1000995e-13 9.7790833e-15          0.1 0.0090032943     9.747888  0.029894512 
number of iterations: 1691 
   12100    39.515841      319          211          108 2.1279304e-13 9.8030019e-15          0.1  0.009003338    9.9106284  0.029894439 
number of iterations: 1681 
   12200    39.696826      320          212          108 2.1561301e-13 9.827121e-15          0.1 0.0090033781     10.07553  0.029894373 
number of iterations: 1709 
   12300    39.911345      321          212          109 2.1847036e-13  9.85144e-15          0.1 0.0090034229    10.242622  0.029894298 
number of iterations: 1720 
   12400    40.106623      328          218          110 2.2136557e-13 9.8759586e-15          0.1 0.0090034679    10.411933  0.029894223 
number of iterations: 1794 
   12500     40.29803      334          224          110 2.2429914e-13 9.9006764e-15          0.1 0.0090035187    10.583493  0.029894138 
number of iterations: 1713 
   12600     40.47125      340          229          111 2.272716e-13 9.9255931e-15          0.1 0.0090035621    10.757332  0.029894066 
number of iterations: 1806 
   12700    40.662747      345          234          111 2.3028344e-13 9.9507086e-15          0.1  0.009003618    10.933479  0.029893973 
number of iterations: 1663 
   12800     40.84804      346          235          111 2.333352e-13 9.9760225e-15          0.1  0.009003658    11.111967  0.029893906 
number of iterations: 1733 
   12900    41.037272      350          239          111 2.364274e-13 1.0001534e-14          0.1 0.0090037015    11.292825  0.029893834 
number of iterations: 1671 
   13000    41.221673      358          246          112 2.3956058e-13 1.0027243e-14          0.1 0.0090037455    11.476084  0.029893761 
number of iterations: 1751 
   13100    41.449752      362          250          112 2.4273528e-13 1.0053149e-14          0.1 0.0090037925    11.661778  0.029893682 
number of iterations: 1729 
   13200    41.623622      365          253          112 2.4595206e-13 1.0079252e-14          0.1 0.0090038397    11.849937  0.029893604 
number of iterations: 1713 
   13300    41.805099      367          255          112 2.4921146e-13 1.0105552e-14          0.1 0.0090038834    12.040596  0.029893531 
number of iterations: 1750 
   13400    42.012919      368          256          112 2.5251406e-13 1.0132048e-14          0.1 0.0090039349    12.233787  0.029893445 
number of iterations: 1756 
   13500    42.269245      368          256          112 2.5586042e-13 1.0158741e-14          0.1 0.0090039776    12.429544  0.029893374 
number of iterations: 1687 
   13600    42.472727      369          257          112 2.5925113e-13 1.0185629e-14          0.1 0.0090040255    12.627902  0.029893294 
number of iterations: 1744 
   13700    42.677097      372          260          112 2.6268677e-13 1.0212712e-14          0.1 0.0090040757    12.828893  0.029893211 
number of iterations: 1747 
   13800    42.865049      375          263          112 2.6616794e-13 1.0239991e-14          0.1 0.0090041297    13.032554  0.029893121 
number of iterations: 1665 
   13900    43.037726      380          268          112 2.6969525e-13 1.0267466e-14          0.1 0.0090041657     13.23892  0.029893061 
number of iterations: 1875 
   14000    43.298356      382          270          112 2.732693e-13 1.0295135e-14          0.1 0.0090042319    13.448027  0.029892951 
number of iterations: 1843 
   14100    43.520893      383          271          112 2.7689072e-13 1.0322999e-14          0.1 0.0090042927    13.659912  0.029892849 
number of iterations: 1760 
   14200    43.724747      389          277          112 2.8056012e-13 1.0351057e-14          0.1 0.0090043411     13.87461  0.029892769 
number of iterations: 1789 
   14300    43.907405      392          279          113 2.8427815e-13 1.037931e-14          0.1 0.0090044005     14.09216   0.02989267 
number of iterations: 1765 
   14400     44.11001      393          280          113 2.8804546e-13 1.0407757e-14          0.1 0.0090044558    14.312598  0.029892578 
number of iterations: 1774 
   14500    44.440753      395          282          113 2.9186269e-13 1.0436397e-14          0.1  0.009004518    14.535965  0.029892474 
number of iterations: 1740 
   14600    44.653736      401          288          113 2.9573051e-13 1.0465232e-14          0.1 0.0090045724    14.762298  0.029892383 
number of iterations: 1865 
   14700    44.850778      408          295          113 2.9964958e-13 1.049426e-14          0.1 0.0090046428    14.991637  0.029892266 
number of iterations: 1853 
   14800     45.04841      411          298          113 3.0362059e-13 1.0523482e-14          0.1 0.0090047059    15.224023  0.029892161 
number of iterations: 1774 
   14900    45.266872      418          304          114 3.0764422e-13 1.0552896e-14          0.1 0.0090047709    15.459494  0.029892053 
number of iterations: 1775 
   15000    45.478491      423          306          117 3.1172118e-13 1.0582504e-14          0.1 0.0090048244    15.698092  0.029891964 
number of iterations: 1934 
   15100    45.709948      427          310          117 3.1585216e-13 1.0612305e-14          0.1 0.0090048984    15.939859  0.029891841 
number of iterations: 1781 
   15200    45.897359      432          314          118 3.2003789e-13 1.0642299e-14          0.1 0.0090049683    16.184836  0.029891724 
number of iterations: 1891 
   15300    46.102969      435          317          118 3.2427909e-13 1.0672486e-14          0.1 0.0090050399    16.433067  0.029891605 
number of iterations: 1803 
   15400    46.323789      441          322          119 3.2857649e-13 1.0702865e-14          0.1 0.0090051117    16.684595  0.029891485 
number of iterations: 1807 
   15500     46.52962      448          328          120 3.3293084e-13 1.0733437e-14          0.1 0.0090051845    16.939463  0.029891364 
number of iterations: 1786 
   15600    46.727624      450          330          120 3.373429e-13 1.0764202e-14          0.1 0.0090052402    17.197715  0.029891271 
number of iterations: 1883 
   15700    46.921931      454          334          120 3.4181343e-13 1.0795159e-14          0.1 0.0090053246    17.459398  0.029891131 
number of iterations: 1800 
   15800    47.128753      456          336          120 3.463432e-13 1.0826308e-14          0.1 0.0090053903    17.724556  0.029891022 
number of iterations: 1867 
   15900    47.338717      463          343          120  3.50933e-13 1.085765e-14          0.1 0.0090054747    17.993236  0.029890881 
number of iterations: 1790 
   16000    47.539884      466          346          120 3.5558362e-13 1.0889184e-14          0.1 0.0090055425    18.265484  0.029890768 
number of iterations: 1875 
   16100    47.761186      471          351          120 3.6029588e-13 1.092091e-14          0.1 0.0090056224    18.541347  0.029890635 
number of iterations: 1831 
   16200    47.957031      474          354          120 3.6507058e-13 1.0952828e-14          0.1 0.0090056955    18.820874  0.029890513 
number of iterations: 1897 
   16300     48.16174      478          358          120 3.6990855e-13 1.0984938e-14          0.1  0.009005784    19.104112  0.029890366 
number of iterations: 1846 
   16400    48.490223      485          365          120 3.7481064e-13 1.101724e-14          0.1 0.0090058644    19.391111  0.029890232 
number of iterations: 1872 
   16500    48.688118      491          371          120 3.797777e-13 1.1049734e-14          0.1 0.0090059542    19.681922  0.029890082 
number of iterations: 1825 
   16600    48.903039      498          378          120 3.8481057e-13 1.1082421e-14          0.1 0.0090060272    19.976594  0.029889961 
number of iterations: 1888 
   16700    49.114518      505          384          121 3.8991015e-13 1.1115299e-14          0.1 0.0090061154    20.275181  0.029889814 
number of iterations: 1852 
   16800    49.315969      513          392          121 3.950773e-13 1.1148369e-14          0.1 0.0090061962    20.577732  0.029889679 
number of iterations: 1959 
   16900    49.537739      521          400          121 4.0031293e-13 1.1181632e-14          0.1 0.0090063018    20.884302  0.029889503 
number of iterations: 1823 
   17000    49.726419      525          404          121 4.0561794e-13 1.1215086e-14          0.1 0.0090063838    21.194942  0.029889367 
number of iterations: 1864 
   17100    49.964048      533          412          121 4.1099326e-13 1.1248733e-14          0.1 0.0090064649    21.509707  0.029889232 
number of iterations: 1831 
   17200     50.17046      537          416          121 4.1643981e-13 1.1282571e-14          0.1 0.0090065478    21.828652  0.029889094 
number of iterations: 1822 
   17300    50.367325      550          429          121 4.2195854e-13 1.1316602e-14          0.1 0.0090066212    22.151832  0.029888972 
number of iterations: 1878 
   17400    50.577499      554          433          121 4.275504e-13 1.1350824e-14          0.1 0.0090067087    22.479303  0.029888826 
number of iterations: 1923 
   17500    50.779111      557          436          121 4.3321637e-13 1.1385239e-14          0.1 0.0090067991    22.811122  0.029888675 
number of iterations: 1936 
   17600    50.977275      561          440          121 4.3895742e-13 1.1419846e-14          0.1 0.0090069044    23.147347    0.0298885 
number of iterations: 1824 
   17700    51.186968      564          443          121 4.4477456e-13 1.1454645e-14          0.1 0.0090069935    23.488036  0.029888352 
number of iterations: 1876 
   17800    51.383108      567          446          121 4.5066878e-13 1.1489637e-14          0.1 0.0090070893    23.833248  0.029888192 
number of iterations: 1868 
   17900    51.594124      571          450          121 4.5664111e-13 1.1524821e-14          0.1  0.009007183    24.183045  0.029888036 
number of iterations: 1882 
   18000     51.78175      576          455          121 4.6269259e-13 1.1560197e-14          0.1 0.0090072744    24.537485  0.029887884 
number of iterations: 1899 
   18100    52.053425      585          464          121 4.6882427e-13 1.1595766e-14          0.1 0.0090073701    24.896631  0.029887725 
number of iterations: 1876 
   18200    52.285863      588          467          121 4.750372e-13 1.1631527e-14          0.1 0.0090074677    25.260545  0.029887562 
number of iterations: 1891 
   18300    52.490609      595          473          122 4.8133247e-13 1.1667481e-14          0.1 0.0090075557     25.62929  0.029887416 
number of iterations: 1861 
   18400    52.711976      602          480          122 4.8771116e-13 1.1703628e-14          0.1 0.0090076531    26.002931  0.029887253 
number of iterations: 1813 
   18500    52.911695      614          492          122 4.9417438e-13 1.1739968e-14          0.1 0.0090077423    26.381533  0.029887105 
number of iterations: 1917 
   18600    53.147778      615          493          122 5.0072326e-13 1.1776501e-14          0.1 0.0090078548    26.765161  0.029886917 
number of iterations: 1900 
   18700    53.497924      624          502          122 5.0735892e-13 1.1813227e-14          0.1 0.0090079551    27.153883   0.02988675 
number of iterations: 1992 
   18800    53.702608      637          514          123 5.1408252e-13 1.1850147e-14          0.1 0.0090080733    27.547765  0.029886553 
number of iterations: 1884 
   18900     53.90279      644          521          123 5.2089522e-13 1.188726e-14          0.1 0.0090081794    27.946875  0.029886377 
number of iterations: 1909 
   19000    54.143877      649          526          123 5.277982e-13 1.1924566e-14          0.1 0.0090082938    28.351283  0.029886186 
number of iterations: 1913 
   19100     54.34928      658          535          123 5.3479266e-13 1.1962067e-14          0.1 0.0090084096     28.76106  0.029885994 
number of iterations: 1920 
   19200    54.564423      666          540          126 5.4187981e-13 1.1999761e-14          0.1 0.0090085184    29.176277  0.029885812 
number of iterations: 1935 
   19300    54.766347      673          546          127 5.4906088e-13 1.2037649e-14          0.1 0.0090086161    29.597005   0.02988565 
number of iterations: 1910 
   19400    54.972284      682          554          128 5.5633711e-13 1.2075731e-14          0.1 0.0090087261    30.023318  0.029885466 
number of iterations: 1922 
   19500    55.183514      686          558          128 5.6370978e-13 1.2114008e-14          0.1 0.0090088438     30.45529   0.02988527 
number of iterations: 1911 
   19600    55.430979      692          563          129 5.7118014e-13 1.2152479e-14          0.1  0.009008968    30.892997  0.029885064 
number of iterations: 1871 
   19700    55.624565      699          570          129 5.787495e-13 1.2191145e-14          0.1 0.0090090725    31.336515   0.02988489 
number of iterations: 1930 
   19800    55.828794      701          572          129 5.8641917e-13 1.2230006e-14          0.1 0.0090091896    31.785919  0.029884695 
number of iterations: 1916 
   19900    56.040883      707          578          129 5.9419048e-13 1.2269062e-14          0.1 0.0090093032    32.241289  0.029884505 
number of iterations: 1933 
   20000    56.298585      721          591          130 6.0206478e-13 1.2308313e-14          0.1 0.0090094226    32.702703  0.029884307 
number of iterations: 1995 
   20100    56.513825      727          597          130 6.1004343e-13 1.234776e-14          0.1 0.0090095457    33.170243  0.029884102 
number of iterations: 1935 
   20200    56.712672      736          606          130 6.1812781e-13 1.2387402e-14          0.1 0.0090096699    33.643988  0.029883895 
number of iterations: 1917 
   20300    56.916737      746          616          130 6.2631932e-13 1.242724e-14          0.1 0.0090098031    34.124021  0.029883673 
number of iterations: 1972 
   20400    57.131292      755          625          130 6.3461939e-13 1.2467275e-14          0.1 0.0090099442    34.610425  0.029883438 
number of iterations: 1954 
   20500    57.340263      760          630          130 6.4302945e-13 1.2507505e-14          0.1  0.009010083    35.103286  0.029883207 
number of iterations: 1948 
   20600    57.552339      765          635          130 6.5155097e-13 1.2547933e-14          0.1 0.0090101981    35.602689  0.029883015 
number of iterations: 1974 
   20700    57.761422      772          642          130 6.6018541e-13 1.2588557e-14          0.1 0.0090103461    36.108719  0.029882769 
number of iterations: 1971 
   20800    57.997237      781          651          130 6.6893428e-13 1.2629378e-14          0.1 0.0090104836    36.621466   0.02988254 
number of iterations: 1940 
   20900    58.196212      796          665          131 6.7779908e-13 1.2670397e-14          0.1  0.009010622    37.141017  0.029882309 
number of iterations: 1966 
   21000    58.565199      805          674          131 6.8678136e-13 1.2711613e-14          0.1 0.0090107646    37.667467  0.029882072 
number of iterations: 1896 
   21100    58.796976      815          683          132 6.9588268e-13 1.2753027e-14          0.1 0.0090108858    38.200904   0.02988187 
number of iterations: 2001 
   21200    59.018012      826          693          133 7.0510461e-13 1.2794639e-14          0.1 0.0090110174    38.741421  0.029881651 
number of iterations: 1965 
   21300    59.269395      835          702          133 7.1444875e-13 1.283645e-14          0.1 0.0090111542    39.289113  0.029881423 
number of iterations: 1945 
   21400    59.503233      849          716          133 7.2391671e-13 1.2878459e-14          0.1  0.009011284    39.844075  0.029881207 
number of iterations: 2057 
   21500    59.720974      860          727          133 7.3351015e-13 1.2920667e-14          0.1 0.0090114535    40.406402  0.029880925 
number of iterations: 2070 
   21600     59.97456      871          738          133 7.4323072e-13 1.2963074e-14          0.1 0.0090116258    40.976191  0.029880638 
number of iterations: 1987 
   21700    60.231074      882          748          134 7.5308011e-13 1.300568e-14          0.1 0.0090117669    41.553541  0.029880403 
number of iterations: 2036 
   21800     60.44091      890          756          134 7.6306002e-13 1.3048487e-14          0.1 0.0090119322    42.138552  0.029880127 
number of iterations: 1990 
   21900    60.691695      899          765          134 7.7317218e-13 1.3091493e-14          0.1 0.0090121023    42.731328  0.029879844 
number of iterations: 1997 
   22000    60.920941      907          772          135 7.8341835e-13  1.31347e-14          0.1 0.0090122593    43.331969  0.029879583 
number of iterations: 1998 
   22100    61.124779      914          779          135 7.9380031e-13 1.3178108e-14          0.1 0.0090124233     43.94058   0.02987931 
number of iterations: 2013 
   22200    61.330923      925          789          136 8.0431984e-13 1.3221717e-14          0.1    0.0090126    44.557267  0.029879015 
number of iterations: 1999 
   22300    61.535961      936          799          137 8.1497879e-13 1.3265527e-14          0.1 0.0090127541    45.182137  0.029878759 
number of iterations: 2064 
   22400    61.756107      953          816          137 8.2577898e-13 1.3309539e-14          0.1 0.0090129344    45.815299  0.029878459 
number of iterations: 1986 
   22500    61.985003      964          827          137 8.367223e-13 1.3353753e-14          0.1 0.0090131163    46.456864  0.029878156 
number of iterations: 2045 
   22600     62.22247      973          835          138 8.4781064e-13 1.3398169e-14          0.1 0.0090133079    47.106942  0.029877837 
number of iterations: 1948 
   22700     62.41877      986          848          138 8.5904592e-13 1.3442788e-14          0.1 0.0090134582    47.765648  0.029877586 
number of iterations: 2064 
   22800    62.627669      998          860          138 8.7043009e-13 1.3487611e-14          0.1 0.0090136365    48.433093   0.02987729 
number of iterations: 1967 
   22900    62.853418     1013          874          139 8.8196513e-13 1.3532636e-14          0.1 0.0090137927    49.109396  0.029877029 
number of iterations: 1994 
   23000    63.062772     1026          886          140 8.9365303e-13 1.3577865e-14          0.1 0.0090139593    49.794673  0.029876752 
number of iterations: 2054 
   23100    63.278062     1042          902          140 9.0549581e-13 1.3623299e-14          0.1 0.0090141486    50.489043  0.029876437 
number of iterations: 2068 
   23200    63.598675     1056          916          140 9.1749554e-13 1.3668937e-14          0.1 0.0090143517    51.192626  0.029876099 
number of iterations: 2026 
   23300    63.814242     1072          931          141 9.2965429e-13 1.371478e-14          0.1 0.0090145557    51.905547  0.029875759 
number of iterations: 2025 
   23400    64.040135     1081          940          141 9.4197417e-13 1.3760828e-14          0.1 0.0090147391    52.627926  0.029875454 
number of iterations: 2103 
   23500    64.299568     1098          957          141 9.544573e-13 1.3807082e-14          0.1  0.009014925    53.359891  0.029875144 
number of iterations: 2042 
   23600    64.509962     1111          970          141 9.6710587e-13 1.3853542e-14          0.1 0.0090151156    54.101568  0.029874827 
number of iterations: 2064 
   23700    64.748091     1123          982          141 9.7992206e-13 1.3900208e-14          0.1 0.0090153454    54.853088  0.029874444 
number of iterations: 2040 
   23800    64.957663     1137          995          142 9.9290808e-13 1.3947081e-14          0.1 0.0090155632    55.614579  0.029874081 
number of iterations: 2028 
   23900     65.19275     1146         1004          142 1.0060662e-12 1.3994162e-14          0.1 0.0090157669    56.386176  0.029873742 
number of iterations: 2099 
   24000      65.4662     1153         1010          143 1.0193987e-12 1.404145e-14          0.1 0.0090159843    57.168011   0.02987338 
number of iterations: 2026 
   24100    65.692012     1168         1025          143 1.0329078e-12 1.4088946e-14          0.1 0.0090161869     57.96022  0.029873043 
number of iterations: 2060 
   24200     65.91859     1184         1039          145 1.046596e-12 1.4136651e-14          0.1 0.0090163942     58.76294  0.029872697 
number of iterations: 2036 
   24300    66.146759     1198         1051          147 1.0604656e-12 1.4184564e-14          0.1 0.0090166183     59.57631  0.029872324 
number of iterations: 2078 
   24400    66.370554     1216         1067          149 1.074519e-12 1.4232687e-14          0.1 0.0090168537    60.400473  0.029871932 
number of iterations: 2040 
   24500    66.625562     1229         1078          151 1.0887586e-12 1.428102e-14          0.1 0.0090170848    61.235569  0.029871547 
number of iterations: 2028 
   24600    66.844471     1236         1085          151 1.103187e-12 1.4329563e-14          0.1  0.009017288    62.081745  0.029871209 
number of iterations: 2113 
   24700    67.105893     1252         1101          151 1.1178065e-12 1.4378317e-14          0.1 0.0090175373    62.939147  0.029870794 
number of iterations: 2101 
   24800    67.329119     1264         1113          151 1.1326198e-12 1.4427282e-14          0.1 0.0090177806    63.807927  0.029870389 
number of iterations: 2133 
   24900    67.564821     1274         1123          151 1.1476293e-12 1.4476458e-14          0.1  0.009018032     64.68823   0.02986997 
number of iterations: 2134 
   25000    67.781612     1284         1133          151 1.1628378e-12 1.4525847e-14          0.1 0.0090182923    65.580215  0.029869537 
number of iterations: 2088 
   25100    67.994537     1302         1151          151 1.1782478e-12 1.4575448e-14          0.1 0.0090185291    66.484033  0.029869142 
number of iterations: 2102 
   25200    68.223941     1318         1167          151 1.1938621e-12 1.4625262e-14          0.1 0.0090188108    67.399842  0.029868673 
number of iterations: 2144 
   25300    68.685028     1334         1183          151 1.2096832e-12 1.467529e-14          0.1 0.0090190936    68.327801  0.029868202 
number of iterations: 2074 
   25400    68.902774     1355         1204          151 1.225714e-12 1.4725532e-14          0.1 0.0090193418    69.268069  0.029867789 
number of iterations: 2085 
   25500    69.125604     1374         1222          152 1.2419573e-12 1.4775988e-14          0.1 0.0090195824     70.22081  0.029867389 
number of iterations: 2088 
   25600    69.379637     1387         1235          152 1.2584158e-12 1.4826659e-14          0.1 0.0090198088    71.186189  0.029867011 
number of iterations: 2108 
   25700    69.628934     1400         1248          152 1.2750924e-12 1.4877545e-14          0.1 0.0090200885    72.164374  0.029866546 
number of iterations: 2098 
   25800     69.86162     1419         1267          152  1.29199e-12 1.4928648e-14          0.1 0.0090203623    73.155538   0.02986609 
number of iterations: 2112 
   25900    70.084924     1434         1281          153 1.3091115e-12 1.4979966e-14          0.1 0.0090206377    74.159852  0.029865631 
number of iterations: 2130 
   26000    70.319122     1453         1299          154  1.32646e-12 1.5031502e-14          0.1 0.0090209264    75.177487  0.029865151 
number of iterations: 2040 
   26100     70.54799     1472         1318          154 1.3440383e-12 1.5083255e-14          0.1  0.009021162    76.208621  0.029864758 
number of iterations: 2188 
   26200    70.782932     1487         1333          154 1.3618496e-12 1.5135227e-14          0.1 0.0090214664    77.253434  0.029864251 
number of iterations: 2112 
   26300      71.0243     1508         1353          155 1.3798969e-12 1.5187416e-14          0.1 0.0090217579    78.312108  0.029863766 
number of iterations: 2140 
   26400    71.276826     1528         1372          156 1.3981833e-12 1.5239825e-14          0.1 0.0090220282    79.384824  0.029863316 
number of iterations: 2127 
   26500    71.513173     1548         1392          156 1.4167121e-12 1.5292453e-14          0.1 0.0090222942    80.471771  0.029862873 
number of iterations: 2166 
   26600    71.760358     1562         1405          157 1.4354865e-12 1.5345301e-14          0.1 0.0090226269    81.573137  0.029862319 
number of iterations: 2140 
   26700    72.025045     1579         1422          157 1.4545096e-12 1.539837e-14          0.1 0.0090229335    82.689114  0.029861808 
number of iterations: 2148 
   26800    72.282542     1607         1449          158 1.4737849e-12 1.5451659e-14          0.1 0.0090232341    83.819897  0.029861308 
number of iterations: 2142 
   26900    72.532241     1623         1465          158 1.4933155e-12 1.5505171e-14          0.1 0.0090235579     84.96568  0.029860769 
number of iterations: 2150 
   27000    72.763142     1646         1487          159 1.513105e-12 1.5558904e-14          0.1 0.0090238524    86.126662  0.029860278 
number of iterations: 2108 
   27100    72.978239     1669         1508          161 1.5331568e-12 1.5612861e-14          0.1 0.0090241587    87.303043  0.029859768 
number of iterations: 2236 
   27200    73.209427     1698         1535          163 1.5534742e-12 1.566704e-14          0.1 0.0090245268     88.49503  0.029859155 
number of iterations: 2097 
   27300    73.538464     1722         1558          164 1.5740609e-12 1.5721444e-14          0.1 0.0090248094    89.702825  0.029858685 
number of iterations: 2124 
   27400    73.774705     1756         1589          167 1.5949204e-12 1.5776072e-14          0.1 0.0090251003     90.92664    0.0298582 
number of iterations: 2179 
   27500    74.024205     1777         1610          167 1.6160564e-12 1.5830925e-14          0.1 0.0090254517     92.16669  0.029857615 
number of iterations: 2181 
   27600    74.293771     1800         1628          172 1.6374724e-12 1.5886004e-14          0.1 0.0090258134    93.423188  0.029857013 
number of iterations: 2157 
   27700    74.536678     1819         1647          172 1.6591723e-12 1.5941308e-14          0.1 0.0090261827     94.69635  0.029856398 
number of iterations: 2130 
   27800     74.77088     1842         1669          173 1.6811597e-12 1.599684e-14          0.1  0.009026503      95.9864  0.029855865 
number of iterations: 2179 
   27900    75.022745     1863         1688          175 1.7034384e-12 1.6052599e-14          0.1 0.0090268655     97.29356  0.029855261 
number of iterations: 2208 
   28000    75.292854     1892         1717          175 1.7260124e-12 1.6108586e-14          0.1 0.0090272319    98.618059  0.029854651 
number of iterations: 2175 
   28100    75.547182     1911         1736          175 1.7488856e-12 1.6164802e-14          0.1 0.0090275939    99.960127  0.029854048 
number of iterations: 2163 
   28200    75.832663     1933         1757          176 1.7720619e-12 1.6221247e-14          0.1 0.0090279553    101.31999  0.029853446 
number of iterations: 2166 
   28300    76.089511     1957         1781          176 1.7955453e-12 1.6277922e-14          0.1 0.0090283064    102.69789  0.029852862 
number of iterations: 2188 
   28400     76.33248     1979         1802          177 1.8193399e-12 1.6334827e-14          0.1 0.0090286689    104.09407  0.029852258 
number of iterations: 2194 
   28500    76.579762     2003         1826          177 1.8434498e-12 1.6391963e-14          0.1 0.0090290491    105.50876  0.029851625 
number of iterations: 2197 
   28600     76.83049     2034         1857          177 1.8678792e-12 1.6449331e-14          0.1 0.0090294564    106.94222  0.029850947 
number of iterations: 2220 
   28700     77.08278     2062         1884          178 1.8926324e-12 1.6506931e-14          0.1 0.0090298624    108.39469  0.029850271 
number of iterations: 2179 
   28800    77.332492     2085         1904          181 1.9177135e-12 1.6564765e-14          0.1 0.0090302629    109.86642  0.029849604 
number of iterations: 2237 
   28900     77.58891     2100         1919          181 1.9431271e-12 1.6622832e-14          0.1 0.0090306854    111.35768    0.0298489 
number of iterations: 2170 
   29000    77.835051     2128         1945          183 1.9688774e-12 1.6681133e-14          0.1 0.0090310875    112.86871  0.029848231 
number of iterations: 2200 
   29100    78.078211     2155         1972          183 1.994969e-12 1.6739669e-14          0.1 0.0090314998    114.39978  0.029847544 
number of iterations: 2228 
   29200    78.339738     2183         1999          184 2.0214063e-12 1.679844e-14          0.1 0.0090319257    115.95115  0.029846835 
number of iterations: 2252 
   29300    78.677166     2211         2027          184 2.048194e-12 1.6857448e-14          0.1 0.0090323956     117.5231  0.029846052 
number of iterations: 2233 
   29400    78.934401     2228         2044          184 2.0753366e-12 1.6916693e-14          0.1 0.0090328254    119.11589  0.029845337 
number of iterations: 2214 
   29500     79.19506     2260         2076          184 2.102839e-12 1.6976175e-14          0.1 0.0090332567    120.72981  0.029844619 
number of iterations: 2194 
   29600    79.458204     2278         2094          184 2.1307058e-12 1.7035895e-14          0.1 0.0090337015    122.36513  0.029843878 
number of iterations: 2250 
   29700    79.719112     2309         2124          185 2.1589419e-12 1.7095855e-14          0.1 0.0090341768    124.02214  0.029843086 
number of iterations: 2229 
   29800    79.978299     2340         2155          185 2.1875521e-12 1.7156054e-14          0.1   0.00903462    125.70113  0.029842348 
number of iterations: 2213 
   29900    80.245573     2364         2178          186 2.2165415e-12 1.7216493e-14          0.1 0.0090350694    127.40239    0.0298416 
number of iterations: 2180 
   30000    80.517537     2388         2201          187 2.2459151e-12 1.7277173e-14          0.1 0.0090355088    129.12621  0.029840868 
number of iterations: 2245 
   30100     80.76531     2419         2232          187 2.2756779e-12 1.7338094e-14          0.1 0.0090360061    130.87289  0.029840041 
number of iterations: 2230 
   30200    81.023453     2454         2266          188 2.3058351e-12 1.7399258e-14          0.1 0.0090364629    132.64273   0.02983928 
number of iterations: 2283 
   30300    81.277841     2481         2291          190 2.336392e-12 1.7460665e-14          0.1  0.009036995    134.43605  0.029838394 
number of iterations: 2246 
   30400    81.543495     2512         2321          191 2.3673538e-12 1.7522316e-14          0.1 0.0090375088    136.25316  0.029837538 
number of iterations: 2205 
   30500    81.798465     2532         2339          193 2.3987258e-12 1.7584211e-14          0.1 0.0090379825    138.09435  0.029836749 
number of iterations: 2302 
   30600    82.090838     2566         2373          193 2.4291676e-12 1.7646351e-14          0.1 0.0090385363    139.95894  0.029835827 
number of iterations: 2292 
   30700    82.366554     2591         2398          193 2.4613589e-12 1.7708737e-14          0.1  0.009039053    141.84826  0.029834967 
number of iterations: 2292 
   30800    82.656674     2634         2440          194 2.4939767e-12 1.7771369e-14          0.1 0.0090395576    143.76263  0.029834127 
number of iterations: 2208 
   30900    82.916116     2676         2481          195 2.5270267e-12 1.7834249e-14          0.1 0.0090400446     145.7024  0.029833316 
number of iterations: 2263 
   31000    83.185698     2706         2510          196 2.5605148e-12 1.7897376e-14          0.1 0.0090406089    147.66788  0.029832376 
number of iterations: 2298 
   31100     83.51269     2748         2552          196 2.5944466e-12 1.7960753e-14          0.1  0.009041141    149.65942   0.02983149 
number of iterations: 2292 
   31200    83.825482     2782         2586          196 2.628828e-12 1.8024379e-14          0.1 0.0090417357    151.67739    0.0298305 
number of iterations: 2279 
   31300    84.101718     2817         2621          196 2.6636651e-12 1.8088255e-14          0.1  0.009042334    153.72211  0.029829504 
number of iterations: 2290 
   31400    84.380753     2849         2653          196 2.6989638e-12 1.8152382e-14          0.1 0.0090428937    155.79395  0.029828572 
number of iterations: 2293 
   31500    84.649442     2882         2684          198 2.7347303e-12 1.8216761e-14          0.1 0.0090434718    157.89327  0.029827609 
number of iterations: 2288 
   31600    84.920939     2928         2730          198 2.7709708e-12 1.8281393e-14          0.1 0.0090440559    160.02043  0.029826636 
number of iterations: 2312 
   31700    85.219193     2960         2761          199 2.8076915e-12 1.8346277e-14          0.1  0.009044632    162.17579  0.029825677 
number of iterations: 2293 
   31800    85.533272     2995         2796          199 2.8448988e-12 1.8411416e-14          0.1 0.0090452254    164.35974  0.029824689 
number of iterations: 2285 
   31900    85.802026     3031         2831          200 2.8825992e-12 1.847681e-14          0.1 0.0090458366    166.57264  0.029823671 
number of iterations: 2267 
   32000    86.073131     3085         2884          201 2.9207992e-12 1.8542459e-14          0.1 0.0090463911    168.81489  0.029822748 
number of iterations: 2335 
   32100    86.363223     3131         2928          203 2.9595053e-12 1.8608364e-14          0.1 0.0090470618    171.08687  0.029821631 
number of iterations: 2296 
   32200    86.639359     3176         2973          203 2.9987244e-12 1.8674527e-14          0.1 0.0090477235    173.38898  0.029820529 
number of iterations: 2321 
   32300    86.902827     3215         3012          203 3.0384633e-12 1.8740948e-14          0.1 0.0090483506    175.72161  0.029819485 
number of iterations: 2287 
   32400    87.160352     3246         3042          204 3.0787287e-12 1.8807627e-14          0.1 0.0090489739    178.08517  0.029818447 
number of iterations: 2307 
   32500    87.452511     3292         3087          205 3.1195277e-12 1.8874566e-14          0.1 0.0090496709    180.48008  0.029817287 
number of iterations: 2335 
   32600    87.758153     3338         3131          207 3.1608674e-12 1.8941765e-14          0.1 0.0090503307    182.90674  0.029816188 
number of iterations: 2309 
   32700    88.015661     3379         3171          208 3.2027549e-12 1.9009225e-14          0.1 0.0090510212    185.36559  0.029815038 
number of iterations: 2324 
   32800    88.287479     3414         3205          209 3.2451974e-12 1.9076948e-14          0.1 0.0090517187    187.85703  0.029813877 
number of iterations: 2338 
   32900    88.686649     3459         3250          209 3.2882024e-12 1.9144933e-14          0.1 0.0090524178    190.38151  0.029812713 
number of iterations: 2299 
   33000    88.944631     3495         3285          210 3.3317773e-12 1.9213183e-14          0.1 0.0090530823    192.93946  0.029811606 
number of iterations: 2333 
   33100    89.236915     3548         3338          210 3.3759296e-12 1.9281696e-14          0.1 0.0090538011    195.53132  0.029810409 
number of iterations: 2328 
   33200    89.535467     3594         3383          211 3.420667e-12 1.9350475e-14          0.1 0.0090545457    198.15755   0.02980917 
number of iterations: 2323 
   33300    89.814911     3645         3431          214 3.4659972e-12 1.9419519e-14          0.1 0.0090552542     200.8186   0.02980799 
number of iterations: 2325 
   33400    90.098103     3701         3485          216 3.5119282e-12 1.9488831e-14          0.1 0.0090559887    203.51492  0.029806767 
number of iterations: 2345 
   33500    90.364523     3746         3527          219 3.5584678e-12 1.955841e-14          0.1 0.0090567585    206.24701  0.029805485 
number of iterations: 2340 
   33600    90.645033     3785         3565          220 3.6043076e-12 1.9628258e-14          0.1  0.009057489    209.01431  0.029804269 
number of iterations: 2344 
   33700    90.908964     3825         3605          220 3.6520714e-12 1.9698375e-14          0.1 0.0090582595    211.81831  0.029802986 
number of iterations: 2340 
   33800    91.179908     3876         3656          220 3.7004681e-12 1.9768762e-14          0.1  0.009059051    214.65948  0.029801668 
number of iterations: 2347 
   33900    91.463633     3936         3716          220 3.7495061e-12 1.9839421e-14          0.1 0.0090598565    217.53832  0.029800326 
number of iterations: 2349 
   34000    91.766589     3979         3758          221 3.799194e-12 1.9910352e-14          0.1 0.0090605846    220.45532  0.029799114 
number of iterations: 2356 
   34100    92.060441     4032         3810          222 3.8495403e-12 1.9981556e-14          0.1 0.0090614017    223.41103  0.029797753 
number of iterations: 2406 
   34200    92.357764     4083         3861          222 3.9005538e-12 2.0053034e-14          0.1 0.0090622586     226.4059  0.029796326 
number of iterations: 2372 
   34300     92.64531     4130         3908          222 3.9522433e-12 2.0124786e-14          0.1 0.0090631225     229.4405  0.029794888 
number of iterations: 2364 
   34400    92.922978     4183         3960          223 4.0046178e-12 2.0196814e-14          0.1 0.0090639601    232.51535  0.029793493 
number of iterations: 2389 
   34500    93.215865     4232         4008          224 4.0576862e-12 2.0269119e-14          0.1 0.0090647972    235.63095  0.029792099 
number of iterations: 2374 
   34600    93.557945     4269         4044          225 4.111458e-12 2.0341701e-14          0.1 0.0090656541    238.78788  0.029790673 
number of iterations: 2382 
   34700    93.866934     4328         4103          225 4.1659423e-12 2.0414561e-14          0.1 0.0090665323    241.98667   0.02978921 
number of iterations: 2369 
   34800     94.17164     4377         4151          226 4.2211485e-12  2.04877e-14          0.1 0.0090674332    245.22789   0.02978771 
number of iterations: 2376 
   34900    94.495799     4431         4205          226 4.2770864e-12 2.0561119e-14          0.1 0.0090683335    248.51211  0.029786211 
number of iterations: 2403 
   35000    94.786717     4482         4254          228 4.3327686e-12 2.063482e-14          0.1 0.0090692458     251.8391  0.029784692 
Loop time of 94.7868 on 32 procs for 35000 steps with 4482 atoms

Performance: 319031913.063 tau/day, 369.250 timesteps/s
92.5% CPU use with 32 MPI tasks x no OpenMP threads

MPI task timing breakdown:
Section |  min time  |  avg time  |  max time  |%varavg| %total
---------------------------------------------------------------
Pair    | 0.0060746  | 0.068509   | 0.25004    |  22.9 |  0.07
Neigh   | 0.0033528  | 0.01977    | 0.067615   |  11.0 |  0.02
Comm    | 0.087541   | 0.17814    | 0.2398     |  10.2 |  0.19
Output  | 22.982     | 22.982     | 22.988     |   0.0 | 24.25
Modify  | 70.973     | 71.018     | 71.121     |   0.4 | 74.92
Other   |            | 0.5205     |            |       |  0.55

Nlocal:    140.062 ave 468 max 8 min
Histogram: 7 6 6 6 0 3 2 1 0 1
Nghost:    85.5 ave 160 max 15 min
Histogram: 1 2 4 5 7 5 2 2 0 4
Neighs:    521.094 ave 1905 max 21 min
Histogram: 8 9 4 4 1 4 0 1 0 1

Total # of neighbors = 16675
Ave neighs/atom = 3.72044
Neighbor list builds = 682
Dangerous builds = 0
#shell cd ..
#clear
#next reps
#jump SELF
Total wall time: 0:01:34
