 NUFEB Simulation

     50 atoms 
     2 atom types 
     4 nutrients 

  0.0e-4   1.00e-04  xlo xhi 
  0.0e-4   1.00e-04  ylo yhi 
  0.0e-4   5.00e-05  zlo zhi 

 Atoms 

     1 1 1.83e-06  370 5.09e-06 2.31e-05 1.04e-05 1.83e-06 
     2 1 1.70e-06  370 2.85e-06 7.89e-05 4.57e-05 1.70e-06 
     3 1 1.46e-06  370 8.27e-05 8.21e-05 2.82e-05 1.46e-06 
     4 1 1.72e-06  370 3.45e-05 1.86e-05 1.04e-05 1.72e-06 
     5 1 1.47e-06  370 5.57e-05 6.77e-06 4.21e-05 1.47e-06 
     6 1 1.42e-06  370 6.00e-05 2.72e-05 1.11e-05 1.42e-06 
     7 1 1.68e-06  370 2.90e-05 5.56e-06 3.02e-05 1.68e-06 
     8 1 1.42e-06  370 1.70e-05 4.39e-05 3.08e-05 1.42e-06 
     9 1 1.58e-06  370 8.14e-05 2.90e-05 3.99e-06 1.58e-06 
     10 1 1.89e-06  370 5.82e-05 1.72e-05 4.44e-05 1.89e-06 
     11 1 1.63e-06  370 4.75e-05 2.68e-05 3.41e-06 1.63e-06 
     12 1 1.57e-06  370 3.10e-05 4.22e-05 3.63e-05 1.57e-06 
     13 1 1.48e-06  370 7.47e-05 9.31e-05 9.80e-06 1.48e-06 
     14 1 1.56e-06  370 7.63e-05 5.92e-05 1.70e-05 1.56e-06 
     15 1 1.74e-06  370 5.74e-05 7.08e-05 4.72e-05 1.74e-06 
     16 1 1.65e-06  370 6.57e-05 4.06e-05 2.15e-05 1.65e-06 
     17 1 1.87e-06  370 6.33e-06 3.59e-05 5.59e-06 1.87e-06 
     18 1 1.91e-06  370 4.67e-06 7.59e-05 1.57e-05 1.91e-06 
     19 1 1.69e-06  370 9.83e-05 4.19e-05 5.55e-06 1.69e-06 
     20 1 1.41e-06  370 8.46e-05 6.64e-05 3.72e-05 1.41e-06 
     21 1 1.70e-06  370 4.46e-05 9.54e-05 1.89e-05 1.70e-06 
     22 1 1.68e-06  370 8.65e-05 8.87e-05 2.74e-05 1.68e-06 
     23 1 1.69e-06  370 7.97e-05 3.91e-05 2.38e-05 1.69e-06 
     24 1 1.45e-06  370 9.26e-05 8.68e-05 6.24e-06 1.45e-06 
     25 1 1.67e-06  370 9.00e-05 3.20e-05 4.54e-05 1.67e-06 
     26 1 1.42e-06  370 9.82e-05 2.90e-05 2.60e-05 1.42e-06 
     27 1 1.90e-06  370 6.23e-05 6.29e-05 2.26e-05 1.90e-06 
     28 1 1.53e-06  370 6.50e-05 1.05e-05 1.21e-05 1.53e-06 
     29 1 1.63e-06  370 3.92e-05 2.52e-05 2.61e-05 1.63e-06 
     30 1 1.93e-06  370 7.90e-05 6.32e-05 3.95e-05 1.93e-06 
     31 1 1.92e-06  370 2.98e-05 6.88e-06 1.41e-05 1.92e-06 
     32 1 1.78e-06  370 9.79e-05 5.53e-05 3.89e-05 1.78e-06 
     33 1 1.48e-06  370 7.27e-05 1.97e-06 1.43e-05 1.48e-06 
     34 1 1.78e-06  370 1.22e-05 5.92e-05 5.19e-06 1.78e-06 
     35 1 1.39e-06  370 3.93e-05 7.12e-05 2.04e-05 1.39e-06 
     36 1 1.67e-06  370 7.60e-05 9.57e-06 7.55e-06 1.67e-06 
     37 1 1.77e-06  370 3.44e-05 7.15e-05 1.81e-05 1.77e-06 
     38 1 1.52e-06  370 5.61e-05 6.88e-05 2.13e-05 1.52e-06 
     39 1 1.51e-06  370 3.13e-05 1.04e-05 3.85e-06 1.51e-06 
     40 1 1.85e-06  370 7.76e-06 2.20e-05 1.69e-05 1.85e-06 
     41 1 1.91e-06  370 1.45e-05 2.10e-05 3.76e-05 1.91e-06 
     42 1 1.76e-06  370 8.59e-05 5.32e-05 4.51e-05 1.76e-06 
     43 1 1.53e-06  370 1.74e-05 4.96e-05 2.36e-06 1.53e-06 
     44 1 1.89e-06  370 2.73e-05 5.60e-05 4.62e-05 1.89e-06 
     45 1 1.88e-06  370 4.83e-05 3.72e-05 9.63e-06 1.88e-06 
     46 1 1.52e-06  370 3.78e-05 7.50e-05 1.35e-05 1.52e-06 
     47 1 1.89e-06  370 4.65e-05 8.09e-05 1.97e-05 1.89e-06 
     48 1 1.87e-06  370 9.09e-05 3.18e-05 4.64e-05 1.87e-06 
     49 1 1.40e-06  370 2.44e-05 3.44e-06 3.88e-05 1.40e-06 
     50 1 1.65e-06  370 2.84e-05 4.17e-06 4.50e-05 1.65e-06 

 Nutrients 

     1 sub g nn nn nn 1.00e-01 1.00e-01 
     2 o2 l nn nn nd 9.00e-03 9.00e-03 
     3 suc l nn nn nn 3.42e-20 3.42e-20 
     4 co2 l nn nn nd 2.99e-02 2.99e-02 

 Type Name 

     1 cyano  
     2 ecw  

 Diffusion Coeffs 

     sub 0 
     o2 2.3e-09 
     suc 5.2e-10 
     co2 1.9e-09 

 Growth Rate 

     cyano 2.047e-05 
     ecw 6.71e-05 

 Ks 

     cyano 0.00035 0.0002 0.01 0.000138 
     ecw 0 0.001 3.6 0.05 

 Yield 

     cyano 0.55 
     ecw 0.43 

 Maintenance 

     cyano 0 
     ecw 9.5e-07 

 Decay 

     cyano 0 
     ecw 0 



