ITEM: TIMESTEP
0
ITEM: NUMBER OF ATOMS
50
ITEM: BOX BOUNDS ff ff ff
0.0000000000000000e+00 1.0000000000000000e-04
0.0000000000000000e+00 1.0000000000000000e-04
0.0000000000000000e+00 5.0000000000000002e-05
ITEM: ATOMS id type diameter x y z 
43 1 1.53e-06 1.74e-05 4.96e-05 2.36e-06 
11 1 1.63e-06 4.75e-05 2.68e-05 3.41e-06 
39 1 1.51e-06 3.13e-05 1.04e-05 3.85e-06 
17 1 1.87e-06 6.33e-06 3.59e-05 5.59e-06 
45 1 1.88e-06 4.83e-05 3.72e-05 9.63e-06 
4 1 1.72e-06 3.45e-05 1.86e-05 1.04e-05 
1 1 1.83e-06 5.09e-06 2.31e-05 1.04e-05 
31 1 1.92e-06 2.98e-05 6.88e-06 1.41e-05 
40 1 1.85e-06 7.76e-06 2.2e-05 1.69e-05 
29 1 1.63e-06 3.92e-05 2.52e-05 2.61e-05 
7 1 1.68e-06 2.9e-05 5.56e-06 3.02e-05 
8 1 1.42e-06 1.7e-05 4.39e-05 3.08e-05 
12 1 1.57e-06 3.1e-05 4.22e-05 3.63e-05 
41 1 1.91e-06 1.45e-05 2.1e-05 3.76e-05 
49 1 1.4e-06 2.44e-05 3.44e-06 3.88e-05 
50 1 1.65e-06 2.84e-05 4.17e-06 4.5e-05 
34 1 1.78e-06 1.22e-05 5.92e-05 5.19e-06 
46 1 1.52e-06 3.78e-05 7.5e-05 1.35e-05 
18 1 1.91e-06 4.67e-06 7.59e-05 1.57e-05 
37 1 1.77e-06 3.44e-05 7.15e-05 1.81e-05 
21 1 1.7e-06 4.46e-05 9.54e-05 1.89e-05 
47 1 1.89e-06 4.65e-05 8.09e-05 1.97e-05 
35 1 1.39e-06 3.93e-05 7.12e-05 2.04e-05 
2 1 1.7e-06 2.85e-06 7.89e-05 4.57e-05 
44 1 1.89e-06 2.73e-05 5.6e-05 4.62e-05 
9 1 1.58e-06 8.14e-05 2.9e-05 3.99e-06 
19 1 1.69e-06 9.83e-05 4.19e-05 5.55e-06 
36 1 1.67e-06 7.6e-05 9.57e-06 7.55e-06 
6 1 1.42e-06 6e-05 2.72e-05 1.11e-05 
28 1 1.53e-06 6.5e-05 1.05e-05 1.21e-05 
33 1 1.48e-06 7.27e-05 1.97e-06 1.43e-05 
16 1 1.65e-06 6.57e-05 4.06e-05 2.15e-05 
23 1 1.69e-06 7.97e-05 3.91e-05 2.38e-05 
26 1 1.42e-06 9.82e-05 2.9e-05 2.6e-05 
5 1 1.47e-06 5.57e-05 6.77e-06 4.21e-05 
10 1 1.89e-06 5.82e-05 1.72e-05 4.44e-05 
25 1 1.67e-06 9e-05 3.2e-05 4.54e-05 
48 1 1.87e-06 9.09e-05 3.18e-05 4.64e-05 
24 1 1.45e-06 9.26e-05 8.68e-05 6.24e-06 
13 1 1.48e-06 7.47e-05 9.31e-05 9.8e-06 
14 1 1.56e-06 7.63e-05 5.92e-05 1.7e-05 
38 1 1.52e-06 5.61e-05 6.88e-05 2.13e-05 
27 1 1.9e-06 6.23e-05 6.29e-05 2.26e-05 
22 1 1.68e-06 8.65e-05 8.87e-05 2.74e-05 
3 1 1.46e-06 8.27e-05 8.21e-05 2.82e-05 
20 1 1.41e-06 8.46e-05 6.64e-05 3.72e-05 
32 1 1.78e-06 9.79e-05 5.53e-05 3.89e-05 
30 1 1.93e-06 7.9e-05 6.32e-05 3.95e-05 
42 1 1.76e-06 8.59e-05 5.32e-05 4.51e-05 
15 1 1.74e-06 5.74e-05 7.08e-05 4.72e-05 
ITEM: TIMESTEP
100
ITEM: NUMBER OF ATOMS
50
ITEM: BOX BOUNDS ff ff ff
0.0000000000000000e+00 1.0000000000000000e-04
0.0000000000000000e+00 1.0000000000000000e-04
0.0000000000000000e+00 5.0000000000000002e-05
ITEM: ATOMS id type diameter x y z 
43 1 1.53988e-06 1.74e-05 4.96e-05 2.36e-06 
11 1 1.64052e-06 4.75e-05 2.68e-05 3.41e-06 
39 1 1.51975e-06 3.13e-05 1.04e-05 3.85e-06 
17 1 1.88207e-06 6.33e-06 3.59e-05 5.59e-06 
45 1 1.89214e-06 4.83e-05 3.72e-05 9.63e-06 
4 1 1.7311e-06 3.45e-05 1.86e-05 1.04e-05 
1 1 1.84181e-06 5.09e-06 2.31e-05 1.04e-05 
31 1 1.9324e-06 2.98e-05 6.88e-06 1.41e-05 
40 1 1.86194e-06 7.76e-06 2.2e-05 1.69e-05 
29 1 1.64052e-06 3.92e-05 2.52e-05 2.61e-05 
7 1 1.69085e-06 2.9e-05 5.56e-06 3.02e-05 
8 1 1.42917e-06 1.7e-05 4.39e-05 3.08e-05 
12 1 1.58014e-06 3.1e-05 4.22e-05 3.63e-05 
41 1 1.92233e-06 1.45e-05 2.1e-05 3.76e-05 
49 1 1.40904e-06 2.44e-05 3.44e-06 3.88e-05 
50 1 1.66065e-06 2.84e-05 4.17e-06 4.5e-05 
34 1 1.79149e-06 1.22e-05 5.92e-05 5.19e-06 
46 1 1.52981e-06 3.78e-05 7.5e-05 1.35e-05 
18 1 1.92233e-06 4.67e-06 7.59e-05 1.57e-05 
37 1 1.78143e-06 3.44e-05 7.15e-05 1.81e-05 
21 1 1.71097e-06 4.46e-05 9.54e-05 1.89e-05 
47 1 1.9022e-06 4.65e-05 8.09e-05 1.97e-05 
35 1 1.39897e-06 3.93e-05 7.12e-05 2.04e-05 
2 1 1.71097e-06 2.85e-06 7.89e-05 4.57e-05 
44 1 1.9022e-06 2.73e-05 5.6e-05 4.62e-05 
9 1 1.5902e-06 8.14e-05 2.9e-05 3.99e-06 
19 1 1.70091e-06 9.83e-05 4.19e-05 5.55e-06 
36 1 1.68078e-06 7.6e-05 9.57e-06 7.55e-06 
6 1 1.42917e-06 6e-05 2.72e-05 1.11e-05 
28 1 1.53988e-06 6.5e-05 1.05e-05 1.21e-05 
33 1 1.48955e-06 7.27e-05 1.97e-06 1.43e-05 
16 1 1.66065e-06 6.57e-05 4.06e-05 2.15e-05 
23 1 1.70091e-06 7.97e-05 3.91e-05 2.38e-05 
26 1 1.42917e-06 9.82e-05 2.9e-05 2.6e-05 
5 1 1.47949e-06 5.57e-05 6.77e-06 4.21e-05 
10 1 1.9022e-06 5.82e-05 1.72e-05 4.44e-05 
25 1 1.68078e-06 8.98677e-05 3.20294e-05 4.5253e-05 
48 1 1.88207e-06 9.10323e-05 3.17706e-05 4.6547e-05 
24 1 1.45936e-06 9.26e-05 8.68e-05 6.24e-06 
13 1 1.48955e-06 7.47e-05 9.31e-05 9.8e-06 
14 1 1.57007e-06 7.63e-05 5.92e-05 1.7e-05 
38 1 1.52981e-06 5.61e-05 6.88e-05 2.13e-05 
27 1 1.91227e-06 6.23e-05 6.29e-05 2.26e-05 
22 1 1.69085e-06 8.65e-05 8.87e-05 2.74e-05 
3 1 1.46943e-06 8.27e-05 8.21e-05 2.82e-05 
20 1 1.4191e-06 8.46e-05 6.64e-05 3.72e-05 
32 1 1.79149e-06 9.79e-05 5.53e-05 3.89e-05 
30 1 1.94246e-06 7.9e-05 6.32e-05 3.95e-05 
42 1 1.77136e-06 8.59e-05 5.32e-05 4.51e-05 
15 1 1.75123e-06 5.74e-05 7.08e-05 4.72e-05 
ITEM: TIMESTEP
200
ITEM: NUMBER OF ATOMS
50
ITEM: BOX BOUNDS ff ff ff
0.0000000000000000e+00 1.0000000000000000e-04
0.0000000000000000e+00 1.0000000000000000e-04
0.0000000000000000e+00 5.0000000000000002e-05
ITEM: ATOMS id type diameter x y z 
43 1 1.54982e-06 1.74e-05 4.96e-05 2.36e-06 
11 1 1.65111e-06 4.75e-05 2.68e-05 3.41e-06 
39 1 1.52956e-06 3.13e-05 1.04e-05 3.85e-06 
17 1 1.89422e-06 6.33e-06 3.59e-05 5.59e-06 
45 1 1.90435e-06 4.83e-05 3.72e-05 9.63e-06 
4 1 1.74228e-06 3.45e-05 1.86e-05 1.04e-05 
1 1 1.8537e-06 5.09e-06 2.31e-05 1.04e-05 
31 1 1.94487e-06 2.98e-05 6.88e-06 1.41e-05 
40 1 1.87396e-06 7.76e-06 2.2e-05 1.69e-05 
29 1 1.65111e-06 3.92e-05 2.52e-05 2.61e-05 
7 1 1.70176e-06 2.9e-05 5.56e-06 3.02e-05 
8 1 1.43839e-06 1.7e-05 4.39e-05 3.08e-05 
12 1 1.59034e-06 3.1e-05 4.22e-05 3.63e-05 
41 1 1.93474e-06 1.45e-05 2.1e-05 3.76e-05 
49 1 1.41813e-06 2.44e-05 3.44e-06 3.88e-05 
50 1 1.67137e-06 2.84e-05 4.17e-06 4.5e-05 
34 1 1.80306e-06 1.22e-05 5.92e-05 5.19e-06 
46 1 1.53969e-06 3.78e-05 7.5e-05 1.35e-05 
18 1 1.93474e-06 4.67e-06 7.59e-05 1.57e-05 
37 1 1.79293e-06 3.44e-05 7.15e-05 1.81e-05 
21 1 1.72202e-06 4.46e-05 9.54e-05 1.89e-05 
47 1 1.91448e-06 4.65e-05 8.09e-05 1.97e-05 
35 1 1.40801e-06 3.93e-05 7.12e-05 2.04e-05 
2 1 1.72202e-06 2.85e-06 7.89e-05 4.57e-05 
44 1 1.91448e-06 2.73e-05 5.6e-05 4.62e-05 
9 1 1.60047e-06 8.14e-05 2.9e-05 3.99e-06 
19 1 1.71189e-06 9.83e-05 4.19e-05 5.55e-06 
36 1 1.69163e-06 7.6e-05 9.57e-06 7.55e-06 
6 1 1.43839e-06 6e-05 2.72e-05 1.11e-05 
28 1 1.54982e-06 6.5e-05 1.05e-05 1.21e-05 
33 1 1.49917e-06 7.27e-05 1.97e-06 1.43e-05 
16 1 1.67137e-06 6.57e-05 4.06e-05 2.15e-05 
23 1 1.71189e-06 7.97e-05 3.91e-05 2.38e-05 
26 1 1.43839e-06 9.82e-05 2.9e-05 2.6e-05 
5 1 1.48904e-06 5.57e-05 6.77e-06 4.21e-05 
10 1 1.91448e-06 5.82e-05 1.72e-05 4.44e-05 
25 1 1.69163e-06 8.98544e-05 3.20323e-05 4.52383e-05 
48 1 1.89422e-06 9.10456e-05 3.17677e-05 4.65617e-05 
24 1 1.46878e-06 9.26e-05 8.68e-05 6.24e-06 
13 1 1.49917e-06 7.47e-05 9.31e-05 9.8e-06 
14 1 1.58021e-06 7.63e-05 5.92e-05 1.7e-05 
38 1 1.53969e-06 5.61e-05 6.88e-05 2.13e-05 
27 1 1.92461e-06 6.23e-05 6.29e-05 2.26e-05 
22 1 1.70176e-06 8.65e-05 8.87e-05 2.74e-05 
3 1 1.47891e-06 8.27e-05 8.21e-05 2.82e-05 
20 1 1.42826e-06 8.46e-05 6.64e-05 3.72e-05 
32 1 1.80306e-06 9.79e-05 5.53e-05 3.89e-05 
30 1 1.955e-06 7.9e-05 6.32e-05 3.95e-05 
42 1 1.7828e-06 8.59e-05 5.32e-05 4.51e-05 
15 1 1.76254e-06 5.74e-05 7.08e-05 4.72e-05 
ITEM: TIMESTEP
300
ITEM: NUMBER OF ATOMS
50
ITEM: BOX BOUNDS ff ff ff
0.0000000000000000e+00 1.0000000000000000e-04
0.0000000000000000e+00 1.0000000000000000e-04
0.0000000000000000e+00 5.0000000000000002e-05
ITEM: ATOMS id type diameter x y z 
43 1 1.55982e-06 1.74e-05 4.96e-05 2.36e-06 
11 1 1.66177e-06 4.75e-05 2.68e-05 3.41e-06 
39 1 1.53943e-06 3.13e-05 1.04e-05 3.85e-06 
17 1 1.90645e-06 6.33e-06 3.59e-05 5.59e-06 
45 1 1.91665e-06 4.83e-05 3.72e-05 9.63e-06 
4 1 1.75353e-06 3.45e-05 1.86e-05 1.04e-05 
1 1 1.86567e-06 5.09e-06 2.31e-05 1.04e-05 
31 1 1.95743e-06 2.98e-05 6.88e-06 1.41e-05 
40 1 1.88606e-06 7.76e-06 2.2e-05 1.69e-05 
29 1 1.66177e-06 3.92e-05 2.52e-05 2.61e-05 
7 1 1.71275e-06 2.9e-05 5.56e-06 3.02e-05 
8 1 1.44768e-06 1.7e-05 4.39e-05 3.08e-05 
12 1 1.6006e-06 3.1e-05 4.22e-05 3.63e-05 
41 1 1.94723e-06 1.45e-05 2.1e-05 3.76e-05 
49 1 1.42729e-06 2.44e-05 3.44e-06 3.88e-05 
50 1 1.68216e-06 2.84e-05 4.17e-06 4.5e-05 
34 1 1.8147e-06 1.22e-05 5.92e-05 5.19e-06 
46 1 1.54963e-06 3.78e-05 7.5e-05 1.35e-05 
18 1 1.94723e-06 4.67e-06 7.59e-05 1.57e-05 
37 1 1.8045e-06 3.44e-05 7.15e-05 1.81e-05 
21 1 1.73314e-06 4.46e-05 9.54e-05 1.89e-05 
47 1 1.92684e-06 4.65e-05 8.09e-05 1.97e-05 
35 1 1.41709e-06 3.93e-05 7.12e-05 2.04e-05 
2 1 1.73314e-06 2.85e-06 7.89e-05 4.57e-05 
44 1 1.92684e-06 2.73e-05 5.6e-05 4.62e-05 
9 1 1.6108e-06 8.14e-05 2.9e-05 3.99e-06 
19 1 1.72294e-06 9.83e-05 4.19e-05 5.55e-06 
36 1 1.70255e-06 7.6e-05 9.57e-06 7.55e-06 
6 1 1.44768e-06 6e-05 2.72e-05 1.11e-05 
28 1 1.55982e-06 6.5e-05 1.05e-05 1.21e-05 
33 1 1.50885e-06 7.27e-05 1.97e-06 1.43e-05 
16 1 1.68216e-06 6.57e-05 4.06e-05 2.15e-05 
23 1 1.72294e-06 7.97e-05 3.91e-05 2.38e-05 
26 1 1.44768e-06 9.82e-05 2.9e-05 2.6e-05 
5 1 1.49865e-06 5.57e-05 6.77e-06 4.21e-05 
10 1 1.92684e-06 5.82e-05 1.72e-05 4.44e-05 
25 1 1.70255e-06 8.98544e-05 3.20323e-05 4.52383e-05 
48 1 1.90645e-06 9.10456e-05 3.17677e-05 4.65617e-05 
24 1 1.47826e-06 9.26e-05 8.68e-05 6.24e-06 
13 1 1.50885e-06 7.47e-05 9.31e-05 9.8e-06 
14 1 1.59041e-06 7.63e-05 5.92e-05 1.7e-05 
38 1 1.54963e-06 5.61e-05 6.88e-05 2.13e-05 
27 1 1.93704e-06 6.23e-05 6.29e-05 2.26e-05 
22 1 1.71275e-06 8.65e-05 8.87e-05 2.74e-05 
3 1 1.48846e-06 8.27e-05 8.21e-05 2.82e-05 
20 1 1.43748e-06 8.46e-05 6.64e-05 3.72e-05 
32 1 1.8147e-06 9.79e-05 5.53e-05 3.89e-05 
30 1 1.96762e-06 7.9e-05 6.32e-05 3.95e-05 
42 1 1.79431e-06 8.59e-05 5.32e-05 4.51e-05 
15 1 1.77392e-06 5.74e-05 7.08e-05 4.72e-05 
ITEM: TIMESTEP
400
ITEM: NUMBER OF ATOMS
51
ITEM: BOX BOUNDS ff ff ff
0.0000000000000000e+00 1.0000000000000000e-04
0.0000000000000000e+00 1.0000000000000000e-04
0.0000000000000000e+00 5.0000000000000002e-05
ITEM: ATOMS id type diameter x y z 
43 1 1.56989e-06 1.74e-05 4.96e-05 2.36e-06 
11 1 1.6725e-06 4.75e-05 2.68e-05 3.41e-06 
39 1 1.54937e-06 3.13e-05 1.04e-05 3.85e-06 
17 1 1.91876e-06 6.33e-06 3.59e-05 5.59e-06 
45 1 1.92902e-06 4.83e-05 3.72e-05 9.63e-06 
4 1 1.76485e-06 3.45e-05 1.86e-05 1.04e-05 
1 1 1.87772e-06 5.09e-06 2.31e-05 1.04e-05 
31 1 1.97006e-06 2.98e-05 6.88e-06 1.41e-05 
40 1 1.89824e-06 7.76e-06 2.2e-05 1.69e-05 
29 1 1.6725e-06 3.92e-05 2.52e-05 2.61e-05 
7 1 1.7238e-06 2.9e-05 5.56e-06 3.02e-05 
8 1 1.45703e-06 1.7e-05 4.39e-05 3.08e-05 
12 1 1.61094e-06 3.1e-05 4.22e-05 3.63e-05 
41 1 1.9598e-06 1.45e-05 2.1e-05 3.76e-05 
49 1 1.4365e-06 2.44e-05 3.44e-06 3.88e-05 
50 1 1.69302e-06 2.84e-05 4.17e-06 4.5e-05 
34 1 1.82641e-06 1.22e-05 5.92e-05 5.19e-06 
46 1 1.55963e-06 3.78e-05 7.5e-05 1.35e-05 
18 1 1.9598e-06 4.67e-06 7.59e-05 1.57e-05 
37 1 1.81615e-06 3.44e-05 7.15e-05 1.81e-05 
21 1 1.74433e-06 4.46e-05 9.54e-05 1.89e-05 
47 1 1.93928e-06 4.65e-05 8.09e-05 1.97e-05 
35 1 1.42624e-06 3.93e-05 7.12e-05 2.04e-05 
2 1 1.74433e-06 2.85e-06 7.89e-05 4.57e-05 
44 1 1.93928e-06 2.73e-05 5.6e-05 4.62e-05 
9 1 1.6212e-06 8.14e-05 2.9e-05 3.99e-06 
19 1 1.73407e-06 9.83e-05 4.19e-05 5.55e-06 
36 1 1.71354e-06 7.6e-05 9.57e-06 7.55e-06 
6 1 1.45703e-06 6e-05 2.72e-05 1.11e-05 
28 1 1.56989e-06 6.5e-05 1.05e-05 1.21e-05 
33 1 1.51859e-06 7.27e-05 1.97e-06 1.43e-05 
16 1 1.69302e-06 6.57e-05 4.06e-05 2.15e-05 
23 1 1.73407e-06 7.97e-05 3.91e-05 2.38e-05 
26 1 1.45703e-06 9.82e-05 2.9e-05 2.6e-05 
5 1 1.50833e-06 5.57e-05 6.77e-06 4.21e-05 
10 1 1.93928e-06 5.82e-05 1.72e-05 4.44e-05 
25 1 1.71354e-06 8.98544e-05 3.20323e-05 4.52383e-05 
48 1 1.91876e-06 9.10456e-05 3.17677e-05 4.65617e-05 
24 1 1.48781e-06 9.26e-05 8.68e-05 6.24e-06 
13 1 1.51859e-06 7.47e-05 9.31e-05 9.8e-06 
14 1 1.60068e-06 7.63e-05 5.92e-05 1.7e-05 
38 1 1.55963e-06 5.61e-05 6.88e-05 2.13e-05 
27 1 1.94954e-06 6.23e-05 6.29e-05 2.26e-05 
22 1 1.7238e-06 8.65e-05 8.87e-05 2.74e-05 
3 1 1.49807e-06 8.27e-05 8.21e-05 2.82e-05 
20 1 1.44676e-06 8.46e-05 6.64e-05 3.72e-05 
32 1 1.82641e-06 9.79e-05 5.53e-05 3.89e-05 
30 1 1.58924e-06 7.91586e-05 6.32315e-05 3.87232e-05 
42 1 1.80589e-06 8.59e-05 5.32e-05 4.51e-05 
15 1 1.78537e-06 5.74e-05 7.08e-05 4.72e-05 
51 1 1.55393e-06 7.8845e-05 6.31692e-05 4.02596e-05 
ITEM: TIMESTEP
500
ITEM: NUMBER OF ATOMS
52
ITEM: BOX BOUNDS ff ff ff
0.0000000000000000e+00 1.0000000000000000e-04
0.0000000000000000e+00 1.0000000000000000e-04
0.0000000000000000e+00 5.0000000000000002e-05
ITEM: ATOMS id type diameter x y z 
43 1 1.58003e-06 1.74e-05 4.96e-05 2.36e-06 
11 1 1.6833e-06 4.75e-05 2.68e-05 3.41e-06 
39 1 1.55937e-06 3.13e-05 1.04e-05 3.85e-06 
17 1 1.93115e-06 6.33e-06 3.59e-05 5.59e-06 
45 1 1.94147e-06 4.83e-05 3.72e-05 9.63e-06 
4 1 1.77624e-06 3.45e-05 1.86e-05 1.04e-05 
1 1 1.88984e-06 5.09e-06 2.31e-05 1.04e-05 
31 1 1.59121e-06 2.99588e-05 6.9115e-06 1.33222e-05 
40 1 1.91049e-06 7.76e-06 2.2e-05 1.69e-05 
52 1 1.55586e-06 2.96448e-05 6.8492e-06 1.48605e-05 
29 1 1.6833e-06 3.92e-05 2.52e-05 2.61e-05 
7 1 1.73493e-06 2.9e-05 5.56e-06 3.02e-05 
8 1 1.46643e-06 1.7e-05 4.39e-05 3.08e-05 
12 1 1.62134e-06 3.1e-05 4.22e-05 3.63e-05 
41 1 1.97245e-06 1.45e-05 2.1e-05 3.76e-05 
49 1 1.44578e-06 2.44e-05 3.44e-06 3.88e-05 
50 1 1.70395e-06 2.84e-05 4.17e-06 4.5e-05 
34 1 1.8382e-06 1.22e-05 5.92e-05 5.19e-06 
46 1 1.5697e-06 3.78e-05 7.5e-05 1.35e-05 
18 1 1.97245e-06 4.67e-06 7.59e-05 1.57e-05 
37 1 1.82788e-06 3.44e-05 7.15e-05 1.81e-05 
21 1 1.75559e-06 4.46e-05 9.54e-05 1.89e-05 
47 1 1.9518e-06 4.65e-05 8.09e-05 1.97e-05 
35 1 1.43545e-06 3.93e-05 7.12e-05 2.04e-05 
2 1 1.75559e-06 2.85e-06 7.89e-05 4.57e-05 
44 1 1.9518e-06 2.73e-05 5.6e-05 4.62e-05 
9 1 1.63166e-06 8.14e-05 2.9e-05 3.99e-06 
19 1 1.74526e-06 9.83e-05 4.19e-05 5.55e-06 
36 1 1.72461e-06 7.6e-05 9.57e-06 7.55e-06 
6 1 1.46643e-06 6e-05 2.72e-05 1.11e-05 
28 1 1.58003e-06 6.5e-05 1.05e-05 1.21e-05 
33 1 1.52839e-06 7.27e-05 1.97e-06 1.43e-05 
16 1 1.70395e-06 6.57e-05 4.06e-05 2.15e-05 
23 1 1.74526e-06 7.97e-05 3.91e-05 2.38e-05 
26 1 1.46643e-06 9.82e-05 2.9e-05 2.6e-05 
5 1 1.51807e-06 5.57e-05 6.77e-06 4.21e-05 
10 1 1.9518e-06 5.82e-05 1.72e-05 4.44e-05 
25 1 1.72461e-06 8.98544e-05 3.20323e-05 4.52383e-05 
48 1 1.93115e-06 9.10456e-05 3.17677e-05 4.65617e-05 
24 1 1.49741e-06 9.26e-05 8.68e-05 6.24e-06 
13 1 1.52839e-06 7.47e-05 9.31e-05 9.8e-06 
14 1 1.61101e-06 7.63e-05 5.92e-05 1.7e-05 
38 1 1.5697e-06 5.61e-05 6.88e-05 2.13e-05 
27 1 1.96213e-06 6.23e-05 6.29e-05 2.26e-05 
22 1 1.73493e-06 8.65e-05 8.87e-05 2.74e-05 
3 1 1.50774e-06 8.27e-05 8.21e-05 2.82e-05 
20 1 1.4561e-06 8.46e-05 6.64e-05 3.72e-05 
32 1 1.8382e-06 9.79e-05 5.53e-05 3.89e-05 
30 1 1.5995e-06 7.91586e-05 6.32315e-05 3.87232e-05 
42 1 1.81755e-06 8.59e-05 5.32e-05 4.51e-05 
15 1 1.7969e-06 5.74e-05 7.08e-05 4.72e-05 
51 1 1.56396e-06 7.8845e-05 6.31692e-05 4.02596e-05 
ITEM: TIMESTEP
600
ITEM: NUMBER OF ATOMS
55
ITEM: BOX BOUNDS ff ff ff
0.0000000000000000e+00 1.0000000000000000e-04
0.0000000000000000e+00 1.0000000000000000e-04
0.0000000000000000e+00 5.0000000000000002e-05
ITEM: ATOMS id type diameter x y z 
43 1 1.59023e-06 1.74e-05 4.96e-05 2.36e-06 
11 1 1.69417e-06 4.75e-05 2.68e-05 3.41e-06 
39 1 1.56944e-06 3.13e-05 1.04e-05 3.85e-06 
17 1 1.94361e-06 6.33e-06 3.59e-05 5.59e-06 
45 1 1.95401e-06 4.83e-05 3.72e-05 9.63e-06 
4 1 1.78771e-06 3.45e-05 1.86e-05 1.04e-05 
1 1 1.90204e-06 5.09e-06 2.31e-05 1.04e-05 
31 1 1.60148e-06 2.99588e-05 6.9115e-06 1.33222e-05 
40 1 1.92283e-06 7.76e-06 2.2e-05 1.69e-05 
52 1 1.5659e-06 2.96448e-05 6.8492e-06 1.48605e-05 
29 1 1.69417e-06 3.92e-05 2.52e-05 2.61e-05 
7 1 1.74613e-06 2.9e-05 5.56e-06 3.02e-05 
8 1 1.4759e-06 1.7e-05 4.39e-05 3.08e-05 
12 1 1.6318e-06 3.1e-05 4.22e-05 3.63e-05 
41 1 1.59314e-06 1.4659e-05 2.10315e-05 3.68213e-05 
49 1 1.45511e-06 2.44e-05 3.44e-06 3.88e-05 
50 1 1.71495e-06 2.84e-05 4.17e-06 4.5e-05 
53 1 1.55775e-06 1.43446e-05 2.09692e-05 3.83614e-05 
34 1 1.85007e-06 1.22e-05 5.92e-05 5.19e-06 
46 1 1.57984e-06 3.78e-05 7.5e-05 1.35e-05 
18 1 1.59314e-06 4.82895e-06 7.59315e-05 1.49213e-05 
37 1 1.83968e-06 3.44e-05 7.15e-05 1.81e-05 
21 1 1.76692e-06 4.46e-05 9.54e-05 1.89e-05 
47 1 1.9644e-06 4.65e-05 8.09e-05 1.97e-05 
54 1 1.55775e-06 4.51458e-06 7.58692e-05 1.64614e-05 
35 1 1.44472e-06 3.93e-05 7.12e-05 2.04e-05 
2 1 1.76692e-06 2.85e-06 7.89e-05 4.57e-05 
44 1 1.9644e-06 2.73e-05 5.6e-05 4.62e-05 
9 1 1.6422e-06 8.14e-05 2.9e-05 3.99e-06 
19 1 1.75653e-06 9.83e-05 4.19e-05 5.55e-06 
36 1 1.73574e-06 7.6e-05 9.57e-06 7.55e-06 
6 1 1.4759e-06 6e-05 2.72e-05 1.11e-05 
28 1 1.59023e-06 6.5e-05 1.05e-05 1.21e-05 
33 1 1.53826e-06 7.27e-05 1.97e-06 1.43e-05 
16 1 1.71495e-06 6.57e-05 4.06e-05 2.15e-05 
23 1 1.75653e-06 7.97e-05 3.91e-05 2.38e-05 
26 1 1.4759e-06 9.82e-05 2.9e-05 2.6e-05 
5 1 1.52787e-06 5.57e-05 6.77e-06 4.21e-05 
10 1 1.9644e-06 5.82e-05 1.72e-05 4.44e-05 
25 1 1.73574e-06 8.98412e-05 3.20353e-05 4.52235e-05 
48 1 1.94361e-06 9.10588e-05 3.17647e-05 4.65765e-05 
24 1 1.50708e-06 9.26e-05 8.68e-05 6.24e-06 
13 1 1.53826e-06 7.47e-05 9.31e-05 9.8e-06 
14 1 1.62141e-06 7.63e-05 5.92e-05 1.7e-05 
38 1 1.57984e-06 5.61e-05 6.88e-05 2.13e-05 
27 1 1.54482e-06 6.27493e-05 6.35255e-05 2.25589e-05 
22 1 1.74613e-06 8.65e-05 8.87e-05 2.74e-05 
3 1 1.51747e-06 8.27e-05 8.21e-05 2.82e-05 
20 1 1.46551e-06 8.46e-05 6.64e-05 3.72e-05 
32 1 1.85007e-06 9.79e-05 5.53e-05 3.89e-05 
30 1 1.60983e-06 7.91586e-05 6.32315e-05 3.87232e-05 
42 1 1.82928e-06 8.59e-05 5.32e-05 4.51e-05 
15 1 1.8085e-06 5.74e-05 7.08e-05 4.72e-05 
51 1 1.57406e-06 7.8845e-05 6.31692e-05 4.02596e-05 
55 1 1.58934e-06 6.18377e-05 6.22564e-05 2.26423e-05 
ITEM: TIMESTEP
700
ITEM: NUMBER OF ATOMS
58
ITEM: BOX BOUNDS ff ff ff
0.0000000000000000e+00 1.0000000000000000e-04
0.0000000000000000e+00 1.0000000000000000e-04
0.0000000000000000e+00 5.0000000000000002e-05
ITEM: ATOMS id type diameter x y z 
43 1 1.6005e-06 1.74e-05 4.96e-05 2.36e-06 
11 1 1.7051e-06 4.75e-05 2.68e-05 3.41e-06 
39 1 1.57957e-06 3.13e-05 1.04e-05 3.85e-06 
17 1 1.95616e-06 6.33e-06 3.59e-05 5.59e-06 
45 1 1.96662e-06 4.83e-05 3.72e-05 9.63e-06 
4 1 1.79925e-06 3.45e-05 1.86e-05 1.04e-05 
1 1 1.91432e-06 5.09e-06 2.31e-05 1.04e-05 
31 1 1.61182e-06 2.99588e-05 6.9115e-06 1.33222e-05 
40 1 1.93524e-06 7.76e-06 2.2e-05 1.69e-05 
52 1 1.57601e-06 2.96448e-05 6.8492e-06 1.48605e-05 
29 1 1.7051e-06 3.92e-05 2.52e-05 2.61e-05 
7 1 1.75741e-06 2.9e-05 5.56e-06 3.02e-05 
8 1 1.48543e-06 1.7e-05 4.39e-05 3.08e-05 
12 1 1.64234e-06 3.1e-05 4.22e-05 3.63e-05 
41 1 1.60343e-06 1.4659e-05 2.10315e-05 3.68213e-05 
49 1 1.46451e-06 2.44e-05 3.44e-06 3.88e-05 
50 1 1.72602e-06 2.84e-05 4.17e-06 4.5e-05 
53 1 1.5678e-06 1.43446e-05 2.09692e-05 3.83614e-05 
34 1 1.86201e-06 1.22e-05 5.92e-05 5.19e-06 
46 1 1.59003e-06 3.78e-05 7.5e-05 1.35e-05 
18 1 1.60343e-06 4.82895e-06 7.59315e-05 1.49213e-05 
37 1 1.85155e-06 3.44e-05 7.15e-05 1.81e-05 
21 1 1.77833e-06 4.46e-05 9.54e-05 1.89e-05 
47 1 1.54661e-06 4.69499e-05 8.15263e-05 1.96588e-05 
54 1 1.5678e-06 4.51458e-06 7.58692e-05 1.64614e-05 
56 1 1.59118e-06 4.60372e-05 8.02557e-05 1.97424e-05 
35 1 1.45404e-06 3.93e-05 7.12e-05 2.04e-05 
2 1 1.77833e-06 2.85e-06 7.89e-05 4.57e-05 
44 1 1.58664e-06 2.74583e-05 5.60314e-05 4.54244e-05 
57 1 1.55139e-06 2.71452e-05 5.59693e-05 4.69583e-05 
9 1 1.6528e-06 8.14e-05 2.9e-05 3.99e-06 
19 1 1.76787e-06 9.83e-05 4.19e-05 5.55e-06 
36 1 1.74695e-06 7.6e-05 9.57e-06 7.55e-06 
6 1 1.48543e-06 6e-05 2.72e-05 1.11e-05 
28 1 1.6005e-06 6.5e-05 1.05e-05 1.21e-05 
33 1 1.54819e-06 7.27e-05 1.97e-06 1.43e-05 
16 1 1.72602e-06 6.57e-05 4.06e-05 2.15e-05 
23 1 1.76787e-06 7.97e-05 3.91e-05 2.38e-05 
26 1 1.48543e-06 9.82e-05 2.9e-05 2.6e-05 
5 1 1.53773e-06 5.57e-05 6.77e-06 4.21e-05 
10 1 1.58664e-06 5.83583e-05 1.72314e-05 4.36244e-05 
25 1 1.74695e-06 8.98412e-05 3.20353e-05 4.52235e-05 
48 1 1.95616e-06 9.10588e-05 3.17647e-05 4.65765e-05 
58 1 1.55139e-06 5.80452e-05 1.71693e-05 4.51583e-05 
24 1 1.51681e-06 9.26e-05 8.68e-05 6.24e-06 
13 1 1.54819e-06 7.47e-05 9.31e-05 9.8e-06 
14 1 1.63188e-06 7.63e-05 5.92e-05 1.7e-05 
38 1 1.59003e-06 5.61e-05 6.88e-05 2.13e-05 
27 1 1.5548e-06 6.27493e-05 6.35255e-05 2.25589e-05 
22 1 1.75741e-06 8.65e-05 8.87e-05 2.74e-05 
3 1 1.52727e-06 8.27e-05 8.21e-05 2.82e-05 
20 1 1.47497e-06 8.46e-05 6.64e-05 3.72e-05 
32 1 1.86201e-06 9.79e-05 5.53e-05 3.89e-05 
30 1 1.62022e-06 7.91626e-05 6.32323e-05 3.87036e-05 
42 1 1.84109e-06 8.59e-05 5.32e-05 4.51e-05 
15 1 1.82017e-06 5.74e-05 7.08e-05 4.72e-05 
51 1 1.58422e-06 7.8841e-05 6.31684e-05 4.02792e-05 
55 1 1.5996e-06 6.18377e-05 6.22564e-05 2.26423e-05 
ITEM: TIMESTEP
800
ITEM: NUMBER OF ATOMS
59
ITEM: BOX BOUNDS ff ff ff
0.0000000000000000e+00 1.0000000000000000e-04
0.0000000000000000e+00 1.0000000000000000e-04
0.0000000000000000e+00 5.0000000000000002e-05
ITEM: ATOMS id type diameter x y z 
43 1 1.61083e-06 1.74e-05 4.96e-05 2.36e-06 
11 1 1.71611e-06 4.75e-05 2.68e-05 3.41e-06 
39 1 1.58977e-06 3.13e-05 1.04e-05 3.85e-06 
17 1 1.96879e-06 6.33e-06 3.59e-05 5.59e-06 
45 1 1.54836e-06 4.87504e-05 3.7827e-05 9.58876e-06 
4 1 1.81087e-06 3.45e-05 1.86e-05 1.04e-05 
1 1 1.92668e-06 5.09e-06 2.31e-05 1.04e-05 
31 1 1.62223e-06 2.99628e-05 6.91229e-06 1.33026e-05 
40 1 1.94773e-06 7.76e-06 2.2e-05 1.69e-05 
52 1 1.58619e-06 2.96408e-05 6.84841e-06 1.48801e-05 
59 1 1.59298e-06 4.78367e-05 3.6555e-05 9.67243e-06 
29 1 1.71611e-06 3.92e-05 2.52e-05 2.61e-05 
7 1 1.76875e-06 2.9e-05 5.56e-06 3.02e-05 
8 1 1.49502e-06 1.7e-05 4.39e-05 3.08e-05 
12 1 1.65294e-06 3.1e-05 4.22e-05 3.63e-05 
41 1 1.61378e-06 1.4659e-05 2.10315e-05 3.68213e-05 
49 1 1.47396e-06 2.44e-05 3.44e-06 3.88e-05 
50 1 1.73717e-06 2.84e-05 4.17e-06 4.5e-05 
53 1 1.57793e-06 1.43446e-05 2.09692e-05 3.83614e-05 
34 1 1.87403e-06 1.22e-05 5.92e-05 5.19e-06 
46 1 1.6003e-06 3.78e-05 7.5e-05 1.35e-05 
18 1 1.61378e-06 4.82895e-06 7.59315e-05 1.49213e-05 
37 1 1.86351e-06 3.44e-05 7.15e-05 1.81e-05 
21 1 1.78981e-06 4.46e-05 9.54e-05 1.89e-05 
47 1 1.5566e-06 4.69499e-05 8.15263e-05 1.96588e-05 
54 1 1.57793e-06 4.51458e-06 7.58692e-05 1.64614e-05 
56 1 1.60145e-06 4.60372e-05 8.02557e-05 1.97424e-05 
35 1 1.46343e-06 3.93e-05 7.12e-05 2.04e-05 
2 1 1.78981e-06 2.85e-06 7.89e-05 4.57e-05 
44 1 1.59688e-06 2.74583e-05 5.60314e-05 4.54244e-05 
57 1 1.5614e-06 2.71452e-05 5.59693e-05 4.69583e-05 
9 1 1.66347e-06 8.14e-05 2.9e-05 3.99e-06 
19 1 1.77928e-06 9.83e-05 4.19e-05 5.55e-06 
36 1 1.75822e-06 7.6e-05 9.57e-06 7.55e-06 
6 1 1.49502e-06 6e-05 2.72e-05 1.11e-05 
28 1 1.61083e-06 6.5e-05 1.05e-05 1.21e-05 
33 1 1.55819e-06 7.27e-05 1.97e-06 1.43e-05 
16 1 1.73717e-06 6.57e-05 4.06e-05 2.15e-05 
23 1 1.77928e-06 7.97e-05 3.91e-05 2.38e-05 
26 1 1.49502e-06 9.82e-05 2.9e-05 2.6e-05 
5 1 1.54766e-06 5.57e-05 6.77e-06 4.21e-05 
10 1 1.59688e-06 5.83583e-05 1.72314e-05 4.36244e-05 
25 1 1.75822e-06 8.98412e-05 3.20353e-05 4.52235e-05 
48 1 1.96879e-06 9.10588e-05 3.17647e-05 4.65765e-05 
58 1 1.5614e-06 5.80452e-05 1.71693e-05 4.51583e-05 
24 1 1.5266e-06 9.26e-05 8.68e-05 6.24e-06 
13 1 1.55819e-06 7.47e-05 9.31e-05 9.8e-06 
14 1 1.64241e-06 7.63e-05 5.92e-05 1.7e-05 
38 1 1.6003e-06 5.61e-05 6.88e-05 2.13e-05 
27 1 1.56483e-06 6.27493e-05 6.35255e-05 2.25589e-05 
22 1 1.76875e-06 8.65e-05 8.87e-05 2.74e-05 
3 1 1.53713e-06 8.27e-05 8.21e-05 2.82e-05 
20 1 1.48449e-06 8.46e-05 6.64e-05 3.72e-05 
32 1 1.87403e-06 9.79e-05 5.53e-05 3.89e-05 
30 1 1.63068e-06 7.91626e-05 6.32323e-05 3.87036e-05 
42 1 1.85298e-06 8.59e-05 5.32e-05 4.51e-05 
15 1 1.83192e-06 5.74e-05 7.08e-05 4.72e-05 
51 1 1.59445e-06 7.8841e-05 6.31684e-05 4.02792e-05 
55 1 1.60992e-06 6.18377e-05 6.22564e-05 2.26423e-05 
ITEM: TIMESTEP
900
ITEM: NUMBER OF ATOMS
61
ITEM: BOX BOUNDS ff ff ff
0.0000000000000000e+00 1.0000000000000000e-04
0.0000000000000000e+00 1.0000000000000000e-04
0.0000000000000000e+00 5.0000000000000002e-05
ITEM: ATOMS id type diameter x y z 
43 1 1.62123e-06 1.74e-05 4.96e-05 2.36e-06 
11 1 1.72719e-06 4.75e-05 2.68e-05 3.41e-06 
39 1 1.60003e-06 3.13e-05 1.04e-05 3.85e-06 
17 1 1.46581e-06 6.78733e-06 3.60846e-05 6.13071e-06 
45 1 1.55836e-06 4.87504e-05 3.7827e-05 9.58876e-06 
4 1 1.82256e-06 3.45e-05 1.86e-05 1.04e-05 
1 1 1.93911e-06 5.09e-06 2.31e-05 1.04e-05 
31 1 1.6327e-06 2.99628e-05 6.91229e-06 1.33026e-05 
40 1 1.96031e-06 7.76e-06 2.2e-05 1.69e-05 
52 1 1.59643e-06 2.96408e-05 6.84841e-06 1.48801e-05 
59 1 1.60326e-06 4.78367e-05 3.6555e-05 9.67243e-06 
60 1 1.66678e-06 5.80997e-06 3.56901e-05 4.97515e-06 
29 1 1.72719e-06 3.92e-05 2.52e-05 2.61e-05 
7 1 1.78017e-06 2.9e-05 5.56e-06 3.02e-05 
8 1 1.50467e-06 1.7e-05 4.39e-05 3.08e-05 
12 1 1.66361e-06 3.1e-05 4.22e-05 3.63e-05 
41 1 1.6242e-06 1.46629e-05 2.10323e-05 3.68017e-05 
49 1 1.48348e-06 2.44e-05 3.44e-06 3.88e-05 
50 1 1.74838e-06 2.84e-05 4.17e-06 4.5e-05 
53 1 1.58811e-06 1.43406e-05 2.09684e-05 3.8381e-05 
34 1 1.88613e-06 1.22e-05 5.92e-05 5.19e-06 
46 1 1.61063e-06 3.78e-05 7.5e-05 1.35e-05 
18 1 1.6242e-06 4.83295e-06 7.59323e-05 1.49017e-05 
37 1 1.87554e-06 3.44e-05 7.15e-05 1.81e-05 
21 1 1.80136e-06 4.46e-05 9.54e-05 1.89e-05 
47 1 1.56665e-06 4.69499e-05 8.15263e-05 1.96588e-05 
54 1 1.58811e-06 4.51058e-06 7.58684e-05 1.6481e-05 
56 1 1.61179e-06 4.60372e-05 8.02557e-05 1.97424e-05 
35 1 1.47288e-06 3.93e-05 7.12e-05 2.04e-05 
2 1 1.80136e-06 2.85e-06 7.89e-05 4.57e-05 
44 1 1.60719e-06 2.74583e-05 5.60314e-05 4.54244e-05 
57 1 1.57148e-06 2.71452e-05 5.59693e-05 4.69583e-05 
9 1 1.67421e-06 8.14e-05 2.9e-05 3.99e-06 
19 1 1.79077e-06 9.83e-05 4.19e-05 5.55e-06 
36 1 1.76957e-06 7.6e-05 9.57e-06 7.55e-06 
6 1 1.50467e-06 6e-05 2.72e-05 1.11e-05 
28 1 1.62123e-06 6.5e-05 1.05e-05 1.21e-05 
33 1 1.56825e-06 7.27e-05 1.97e-06 1.43e-05 
16 1 1.74838e-06 6.57e-05 4.06e-05 2.15e-05 
23 1 1.79077e-06 7.97e-05 3.91e-05 2.38e-05 
26 1 1.50467e-06 9.82e-05 2.9e-05 2.6e-05 
5 1 1.55765e-06 5.57e-05 6.77e-06 4.21e-05 
10 1 1.60719e-06 5.83583e-05 1.72314e-05 4.36244e-05 
25 1 1.76957e-06 8.9828e-05 3.20382e-05 4.52088e-05 
48 1 1.55007e-06 9.15229e-05 3.23894e-05 4.65499e-05 
58 1 1.57148e-06 5.80452e-05 1.71693e-05 4.51583e-05 
61 1 1.59473e-06 9.06082e-05 3.1116e-05 4.66336e-05 
24 1 1.53646e-06 9.26e-05 8.68e-05 6.24e-06 
13 1 1.56825e-06 7.47e-05 9.31e-05 9.8e-06 
14 1 1.65302e-06 7.63e-05 5.92e-05 1.7e-05 
38 1 1.61063e-06 5.61e-05 6.88e-05 2.13e-05 
27 1 1.57493e-06 6.2761e-05 6.35418e-05 2.25578e-05 
22 1 1.78017e-06 8.65e-05 8.87e-05 2.74e-05 
3 1 1.54705e-06 8.27e-05 8.21e-05 2.82e-05 
20 1 1.49407e-06 8.46e-05 6.64e-05 3.72e-05 
32 1 1.88613e-06 9.79e-05 5.53e-05 3.89e-05 
30 1 1.64121e-06 7.91626e-05 6.32323e-05 3.87036e-05 
42 1 1.86494e-06 8.59e-05 5.32e-05 4.51e-05 
15 1 1.84375e-06 5.74e-05 7.08e-05 4.72e-05 
51 1 1.60474e-06 7.8841e-05 6.31684e-05 4.02792e-05 
55 1 1.62032e-06 6.18261e-05 6.22402e-05 2.26434e-05 
ITEM: TIMESTEP
1000
ITEM: NUMBER OF ATOMS
62
ITEM: BOX BOUNDS ff ff ff
0.0000000000000000e+00 1.0000000000000000e-04
0.0000000000000000e+00 1.0000000000000000e-04
0.0000000000000000e+00 5.0000000000000002e-05
ITEM: ATOMS id type diameter x y z 
43 1 1.63169e-06 1.74e-05 4.96e-05 2.36e-06 
11 1 1.73834e-06 4.75e-05 2.68e-05 3.41e-06 
39 1 1.61036e-06 3.13e-05 1.04e-05 3.85e-06 
60 1 1.67755e-06 5.80997e-06 3.56901e-05 4.97515e-06 
17 1 1.47527e-06 6.78733e-06 3.60846e-05 6.13071e-06 
59 1 1.61361e-06 4.78367e-05 3.6555e-05 9.67243e-06 
45 1 1.56842e-06 4.87504e-05 3.7827e-05 9.58876e-06 
4 1 1.83432e-06 3.45e-05 1.86e-05 1.04e-05 
1 1 1.95163e-06 5.09e-06 2.31e-05 1.04e-05 
31 1 1.64324e-06 2.99628e-05 6.91229e-06 1.33026e-05 
52 1 1.60673e-06 2.96408e-05 6.84841e-06 1.48801e-05 
62 1 1.45796e-06 7.9509e-06 2.15372e-05 1.63716e-05 
40 1 1.66079e-06 7.54254e-06 2.25272e-05 1.75019e-05 
29 1 1.73834e-06 3.92e-05 2.52e-05 2.61e-05 
7 1 1.79166e-06 2.9e-05 5.56e-06 3.02e-05 
8 1 1.51438e-06 1.7e-05 4.39e-05 3.08e-05 
12 1 1.67435e-06 3.1e-05 4.22e-05 3.63e-05 
41 1 1.63468e-06 1.46629e-05 2.10323e-05 3.68017e-05 
53 1 1.59837e-06 1.43406e-05 2.09684e-05 3.8381e-05 
49 1 1.49305e-06 2.44e-05 3.44e-06 3.88e-05 
50 1 1.75967e-06 2.84e-05 4.17e-06 4.5e-05 
34 1 1.89831e-06 1.22e-05 5.92e-05 5.19e-06 
46 1 1.62103e-06 3.78e-05 7.5e-05 1.35e-05 
18 1 1.63468e-06 4.83295e-06 7.59323e-05 1.49017e-05 
54 1 1.59837e-06 4.51058e-06 7.58684e-05 1.6481e-05 
37 1 1.88764e-06 3.44e-05 7.15e-05 1.81e-05 
21 1 1.81299e-06 4.46e-05 9.54e-05 1.89e-05 
56 1 1.62219e-06 4.60255e-05 8.02395e-05 1.97434e-05 
47 1 1.57676e-06 4.69615e-05 8.15425e-05 1.96577e-05 
35 1 1.48239e-06 3.93e-05 7.12e-05 2.04e-05 
44 1 1.61757e-06 2.74623e-05 5.60322e-05 4.54049e-05 
2 1 1.81299e-06 2.85e-06 7.89e-05 4.57e-05 
57 1 1.58163e-06 2.71412e-05 5.59685e-05 4.69779e-05 
9 1 1.68502e-06 8.14e-05 2.9e-05 3.99e-06 
19 1 1.80233e-06 9.83e-05 4.19e-05 5.55e-06 
36 1 1.781e-06 7.6e-05 9.57e-06 7.55e-06 
6 1 1.51438e-06 6e-05 2.72e-05 1.11e-05 
28 1 1.63169e-06 6.5e-05 1.05e-05 1.21e-05 
33 1 1.57837e-06 7.27e-05 1.97e-06 1.43e-05 
16 1 1.75967e-06 6.57e-05 4.06e-05 2.15e-05 
23 1 1.80233e-06 7.97e-05 3.91e-05 2.38e-05 
26 1 1.51438e-06 9.82e-05 2.9e-05 2.6e-05 
5 1 1.56771e-06 5.57e-05 6.77e-06 4.21e-05 
10 1 1.61757e-06 5.83623e-05 1.72322e-05 4.36049e-05 
58 1 1.58163e-06 5.80412e-05 1.71685e-05 4.51779e-05 
25 1 1.781e-06 8.9828e-05 3.20382e-05 4.52088e-05 
61 1 1.60503e-06 9.06082e-05 3.1116e-05 4.66336e-05 
48 1 1.56007e-06 9.15229e-05 3.23894e-05 4.65499e-05 
24 1 1.54638e-06 9.26e-05 8.68e-05 6.24e-06 
13 1 1.57837e-06 7.47e-05 9.31e-05 9.8e-06 
14 1 1.66369e-06 7.63e-05 5.92e-05 1.7e-05 
38 1 1.62103e-06 5.61e-05 6.88e-05 2.13e-05 
55 1 1.63078e-06 6.18261e-05 6.22402e-05 2.26434e-05 
27 1 1.5851e-06 6.2761e-05 6.35418e-05 2.25578e-05 
22 1 1.79166e-06 8.65e-05 8.87e-05 2.74e-05 
3 1 1.55704e-06 8.27e-05 8.21e-05 2.82e-05 
20 1 1.50372e-06 8.46e-05 6.64e-05 3.72e-05 
32 1 1.89831e-06 9.79e-05 5.53e-05 3.89e-05 
30 1 1.6518e-06 7.91626e-05 6.32323e-05 3.87036e-05 
51 1 1.6151e-06 7.8841e-05 6.31684e-05 4.02792e-05 