LAMMPS (20 Nov 2019)
Reading data file ...
  orthogonal box = (0 0 0) to (0.0001 0.0001 1e-05)
  8 by 4 by 1 MPI processor grid
  reading atoms ...
  100 atoms
  4 nutrients
Lattice spacing in x,y,z = 100 100 100
50 atoms in group CYANO
50 atoms in group ECW
Model is defined as a closed system. 
Neighbor list info ...
  update every 1 steps, delay 0 steps, check yes
  max neighbors/atom: 5000, page size: 100000
  master list distance cutoff = 2.41e-06
  ghost atom cutoff = 2.41e-06
  binsize = 1.205e-06, bins = 83 83 9
  1 neighbor lists, perpetual/occasional/extra = 1 0 0
  (1) pair gran/hooke/history, perpetual
      attributes: half, newton off, size, history
      pair build: half/size/bin/newtoff
      stencil: half/bin/3d/newtoff
      bin: standard
Setting up Verlet run ...
  Unit style    : lj
  Current step  : 0
  Time step     : 10
Per MPI rank memory allocation (min/avg/max) = 5.794 | 10.64 | 12.11 Mbytes
Step CPU Atoms c_myNtypes[1] c_myNtypes[2] c_myMass[1] c_myMass[2] c_myCon[1] c_myCon[2] c_myCon[3] c_myCon[4] 
       0            0      100           50           50 4.2296609e-14 9.0759239e-15          0.1        0.009     3.42e-20       0.0299 
number of iterations: 322970 
     100    15.409967      133           50           83 4.2857133e-14 9.0735098e-15          0.1 0.0090006997   0.03397561  0.029898835 
number of iterations: 3718 
     200    15.762543      145           50           95 4.3425085e-14 9.0761849e-15          0.1 0.0090007086  0.067217401  0.029898819 
number of iterations: 2522 
     300    16.006774      145           50           95 4.4000563e-14 9.0839099e-15          0.1 0.0090007177   0.10077902  0.029898804 
number of iterations: 1974 
     400    16.242889      145           50           95 4.4583668e-14 9.0966714e-15          0.1 0.0090007269   0.13466924  0.029898788 
number of iterations: 1619 
     500    16.601596      145           50           95 4.5174501e-14 9.1144535e-15          0.1 0.0090007362   0.16889523  0.029898772 
number of iterations: 1405 
     600    16.798102      145           50           95 4.5773163e-14 9.1372465e-15          0.1 0.0090007457   0.20346373  0.029898756 
number of iterations: 1350 
     700    17.056086      146           51           95 4.6379759e-14 9.165046e-15          0.1 0.0090007511   0.23838115  0.029898747 
number of iterations: 1364 
     800    17.238287      146           51           95 4.6994394e-14 9.1978547e-15          0.1 0.0090007608   0.27365365   0.02989873 
number of iterations: 1367 
     900    17.423599      148           51           97 4.7617174e-14 9.2356837e-15          0.1 0.0090007706   0.30928727  0.029898714 
number of iterations: 1635 
    1000    17.670367      154           56           98 4.8248207e-14 9.2785523e-15          0.1 0.0090007765    0.3452879  0.029898704 
number of iterations: 1584 
    1100     17.86013      156           57           99 4.8887603e-14 9.326487e-15          0.1 0.0090007921   0.38166132  0.029898677 
number of iterations: 1379 
    1200     18.05882      156           57           99 4.9535472e-14 9.3795225e-15          0.1 0.0090008023    0.4184132   0.02989866 
number of iterations: 1382 
    1300    18.244736      159           57          102 5.0191927e-14 9.4377006e-15          0.1 0.0090008127    0.4555491  0.029898642 
number of iterations: 1385 
    1400     18.42003      159           57          102 5.0857081e-14 9.5010726e-15          0.1 0.0090008232   0.49307451  0.029898624 
number of iterations: 1388 
    1500    18.588076      162           58          104 5.153105e-14 9.5696967e-15          0.1 0.0090008338   0.53099479  0.029898606 
number of iterations: 1390 
    1600    18.765129      162           58          104 5.2213951e-14 9.6436395e-15          0.1 0.0090008446   0.56931522  0.029898588 
number of iterations: 1416 
    1700    18.956602      163           59          104 5.2905901e-14 9.7229751e-15          0.1 0.0090008569   0.60804097  0.029898567 
number of iterations: 1396 
    1800    19.140327      164           59          105 5.3607022e-14 9.8077863e-15          0.1  0.009000868   0.64717714  0.029898548 
number of iterations: 1399 
    1900    19.339758      164           59          105 5.4317433e-14 9.8981634e-15          0.1 0.0090008792   0.68672869  0.029898529 
number of iterations: 1395 
    2000    19.533824      167           60          107 5.503726e-14 9.9941981e-15          0.1 0.0090008878   0.72670054  0.029898515 
number of iterations: 1396 
    2100     19.72472      169           61          108 5.5766625e-14 1.0096006e-14          0.1 0.0090008993   0.76709754  0.029898495 
number of iterations: 1407 
    2200    19.918429      169           61          108 5.6505657e-14  1.02037e-14          0.1  0.009000911    0.8079243  0.029898475 
number of iterations: 1410 
    2300    20.119569      170           61          109 5.7254482e-14 1.0317405e-14          0.1 0.0090009227    0.8491854  0.029898455 
number of iterations: 1413 
    2400    20.391551      171           61          110 5.8013231e-14 1.0437253e-14          0.1 0.0090009347   0.89088531  0.029898435 
number of iterations: 1498 
    2500    20.561684      175           64          111 5.8782034e-14 1.0563389e-14          0.1 0.0090009427   0.93302837  0.029898421 
number of iterations: 1419 
    2600    20.739645      177           64          113 5.9561027e-14 1.0695961e-14          0.1 0.0090009549   0.97561887  0.029898401 
number of iterations: 1548 
    2700    20.931682      181           66          115 6.0350342e-14 1.0835131e-14          0.1 0.0090009645    1.0186609  0.029898384 
number of iterations: 1421 
    2800    21.104706      181           66          115 6.1150118e-14 1.0981068e-14          0.1 0.0090009769    1.0621586  0.029898363 
number of iterations: 1409 
    2900     21.27596      186           68          118 6.1960492e-14 1.113396e-14          0.1 0.0090009854    1.1061157  0.029898348 
number of iterations: 1427 
    3000    21.478966      186           68          118 6.2781606e-14 1.1293991e-14          0.1 0.0090009981    1.1505361  0.029898327 
number of iterations: 1430 
    3100    21.649041      189           68          121 6.3613601e-14 1.1461363e-14          0.1 0.0090010111    1.1954233  0.029898305 
number of iterations: 1432 
    3200    21.812943      191           68          123 6.4456623e-14 1.1636286e-14          0.1 0.0090010241    1.2407808  0.029898282 
number of iterations: 1435 
    3300    21.994517      192           68          124 6.5310815e-14 1.1818985e-14          0.1 0.0090010373    1.2866118   0.02989826 
number of iterations: 1438 
    3400    22.178931      195           68          127 6.6176328e-14 1.2009693e-14          0.1 0.0090010507    1.3329196  0.029898237 
number of iterations: 1390 
    3500    22.352218      199           69          130 6.7053311e-14 1.2208655e-14          0.1  0.009001061     1.379707  0.029898219 
number of iterations: 1440 
    3600    22.525479      203           69          134 6.7941916e-14 1.2416134e-14          0.1 0.0090010747     1.426977  0.029898196 
number of iterations: 1443 
    3700    22.698013      204           69          135 6.8842297e-14 1.2632399e-14          0.1 0.0090010886    1.4747321  0.029898172 
number of iterations: 1545 
    3800    22.881202      209           71          138 6.9754609e-14 1.2857729e-14          0.1 0.0090011018    1.5229748   0.02989815 
number of iterations: 1450 
    3900    23.042802      212           71          141 7.0679012e-14 1.3092435e-14          0.1  0.009001116    1.5717072  0.029898125 
number of iterations: 1452 
    4000    23.224032      218           71          147 7.1615666e-14 1.3336822e-14          0.1 0.0090011304    1.6209315  0.029898101 
number of iterations: 1455 
    4100    23.397573      220           72          148 7.2564731e-14 1.3591225e-14          0.1 0.0090011449    1.6706492  0.029898076 
number of iterations: 1458 
    4200    23.564644      220           72          148 7.3526375e-14 1.3855988e-14          0.1 0.0090011597     1.720862  0.029898051 
number of iterations: 1461 
    4300     23.73682      220           72          148 7.4500762e-14 1.4131469e-14          0.1 0.0090011746    1.7715711  0.029898025 
number of iterations: 1464 
    4400    23.918429      223           72          151 7.5488061e-14 1.4418045e-14          0.1 0.0090011897    1.8227776  0.029897999 
number of iterations: 1665 
    4500    24.121368      226           72          154 7.6488445e-14 1.4716111e-14          0.1 0.0090011981    1.8744821  0.029897984 
number of iterations: 1469 
    4600    24.302628      229           72          157 7.7502086e-14 1.5026087e-14          0.1 0.0090012135     1.926685  0.029897958 
number of iterations: 1472 
    4700    24.471105      235           72          163 7.852916e-14 1.5348405e-14          0.1 0.0090012291    1.9793866  0.029897931 
number of iterations: 1475 
    4800     24.66199      239           72          167 7.9569845e-14 1.5683515e-14          0.1 0.0090012449    2.0325865  0.029897904 
number of iterations: 1478 
    4900    24.853616      241           73          168 8.0624321e-14 1.6031895e-14          0.1 0.0090012622    2.0862842  0.029897874 
number of iterations: 1480 
    5000    25.076008      245           73          172 8.1692771e-14 1.6394046e-14          0.1 0.0090012783    2.1404787  0.029897846 
number of iterations: 1557 
    5100    25.258616      249           74          175 8.2775381e-14 1.6770483e-14          0.1 0.0090012891    2.1951688  0.029897828 
number of iterations: 1486 
    5200    25.431807      255           74          181 8.3872338e-14 1.7161739e-14          0.1 0.0090013056    2.2503527  0.029897799 
number of iterations: 1650 
    5300    25.621203      259           74          185 8.4983831e-14 1.7568376e-14          0.1 0.0090013274    2.3060282  0.029897762 
number of iterations: 1583 
    5400    25.806753      267           77          190 8.6110055e-14 1.799098e-14          0.1 0.0090013401    2.3621927  0.029897739 
number of iterations: 1626 
    5500    25.990609      275           80          195 8.7251203e-14 1.843015e-14          0.1 0.0090013611     2.418843  0.029897703 
number of iterations: 1498 
    5600     26.16228      277           80          197 8.8407474e-14 1.8886548e-14          0.1 0.0090013784    2.4759757  0.029897673 
number of iterations: 1501 
    5700    26.332046      281           80          201 8.9579068e-14 1.9360862e-14          0.1  0.009001396    2.5335866  0.029897643 
number of iterations: 1504 
    5800    26.665617      283           80          203 9.0766189e-14 1.9853782e-14          0.1 0.0090014137    2.5916712  0.029897612 
number of iterations: 1576 
    5900    26.843879      291           83          208 9.1969041e-14 2.0366055e-14          0.1 0.0090014301    2.6502243  0.029897584 
number of iterations: 1530 
    6000    27.074354      299           84          215 9.3187834e-14 2.0898397e-14          0.1 0.0090014482    2.7092399  0.029897552 
number of iterations: 1511 
    6100    27.247306      314           85          229 9.4422778e-14 2.145166e-14          0.1 0.0090014666    2.7687116   0.02989752 
number of iterations: 1762 
    6200    27.436622      328           91          237 9.5674088e-14 2.2026627e-14          0.1 0.0090014903    2.8286321  0.029897479 
number of iterations: 1720 
    6300    27.625283      340           97          243 9.6941981e-14 2.2624188e-14          0.1 0.0090015126     2.888994  0.029897441 
number of iterations: 1496 
    6400    27.829508      344           98          246 9.8226676e-14 2.324525e-14          0.1 0.0090015282    2.9497884  0.029897413 
number of iterations: 1521 
    6500    28.011537      351           98          253 9.9528396e-14 2.389079e-14          0.1 0.0090015475    3.0110057  0.029897379 
number of iterations: 1524 
    6600    28.180842      354           98          256 1.0084737e-13 2.4561788e-14          0.1  0.009001567     3.072636  0.029897345 
number of iterations: 1618 
    6700    28.366293      361          100          261 1.0218382e-13 2.5259285e-14          0.1 0.0090015881    3.1346679  0.029897308 
number of iterations: 1521 
    6800    28.557988      370          101          269 1.0353798e-13 2.5984362e-14          0.1 0.0090016046    3.1970897  0.029897279 
number of iterations: 1512 
    6900    28.724658      382          104          278 1.0491008e-13 2.6738142e-14          0.1 0.0090016173    3.2598883  0.029897256 
number of iterations: 1624 
    7000    28.958938      397          108          289 1.0630037e-13 2.7521828e-14          0.1 0.0090016428    3.3230499  0.029897211 
number of iterations: 1537 
    7100    29.125819      405          108          297 1.0770909e-13 2.833662e-14          0.1 0.0090016632    3.3865594  0.029897175 
number of iterations: 1531 
    7200    29.315108      416          111          305 1.0913647e-13 2.9183818e-14          0.1 0.0090016823    3.4504009  0.029897141 
number of iterations: 1738 
    7300    29.502007      428          113          315 1.1058277e-13 3.0064777e-14          0.1 0.0090017074    3.5145574  0.029897097 
number of iterations: 1545 
    7400    29.694965      440          113          327 1.1204824e-13 3.0980892e-14          0.1 0.0090017284    3.5790102   0.02989706 
number of iterations: 1623 
    7500    29.869896      455          115          340 1.1353312e-13 3.1933609e-14          0.1 0.0090017521    3.6437398  0.029897018 
number of iterations: 1551 
    7600    30.042181      461          115          346 1.1503769e-13 3.2924452e-14          0.1 0.0090017736     3.708725  0.029896979 
number of iterations: 1613 
    7700     30.28587      475          122          353 1.1656219e-13 3.3955023e-14          0.1 0.0090017945    3.7739439  0.029896942 
number of iterations: 1584 
    7800    30.463009      489          126          363 1.1810689e-13 3.5026981e-14          0.1 0.0090018165    3.8393725  0.029896902 
number of iterations: 1699 
    7900    30.641979      508          128          380 1.1967207e-13 3.6142051e-14          0.1 0.0090018436    3.9049857  0.029896854 
number of iterations: 1583 
    8000    30.858425      519          128          391 1.2125799e-13 3.7302022e-14          0.1 0.0090018662    3.9707566  0.029896814 
number of iterations: 1734 
    8100    31.046257      536          134          402 1.2286493e-13 3.8508775e-14          0.1 0.0090018975     4.036657  0.029896758 
number of iterations: 1573 
    8200    31.227882      548          136          412 1.2449316e-13 3.9764266e-14          0.1 0.0090019204    4.1026559  0.029896717 
number of iterations: 1659 
    8300    31.678007      560          137          423 1.2614296e-13 4.1070595e-14          0.1 0.0090019281    4.1687218  0.029896701 
number of iterations: 1576 
    8400    31.855786      574          137          437 1.2781464e-13 4.2429876e-14          0.1 0.0090019515    4.2348209  0.029896658 
number of iterations: 1579 
    8500    32.056278      593          137          456 1.2950846e-13 4.3844302e-14          0.1  0.009001975    4.3009173  0.029896615 
number of iterations: 1592 
    8600    32.229096      605          137          468 1.3122473e-13 4.5316232e-14          0.1 0.0090019986    4.3669734  0.029896572 
number of iterations: 1584 
    8700    32.426971      626          137          489 1.3296375e-13 4.6848037e-14          0.1 0.0090020226    4.4329492  0.029896528 
number of iterations: 1714 
    8800    32.622926      645          137          508 1.3472581e-13 4.8442276e-14          0.1 0.0090020545    4.4988026  0.029896471 
number of iterations: 1591 
    8900    32.807028      663          137          526 1.3651123e-13 5.0101569e-14          0.1  0.009002079    4.5644893  0.029896426 
number of iterations: 1560 
    9000    33.058469      685          139          546 1.383203e-13 5.182864e-14          0.1 0.0090020992    4.6299623  0.029896388 
number of iterations: 1591 
    9100    33.223025      705          140          565 1.4015335e-13 5.362635e-14          0.1 0.0090021238    4.6951729  0.029896342 
number of iterations: 1597 
    9200    33.411643      723          140          583 1.4201069e-13 5.5497655e-14          0.1 0.0090021488    4.7600689  0.029896295 
number of iterations: 1597 
    9300    33.619814      738          142          596 1.4389264e-13 5.7445599e-14          0.1 0.0090021705    4.8245958  0.029896254 
number of iterations: 1686 
    9400    33.805457      761          144          617 1.4579954e-13 5.9473424e-14          0.1 0.0090021959    4.8886968  0.029896206 
number of iterations: 1617 
    9500    34.001466      780          144          636 1.477317e-13 6.1584472e-14          0.1 0.0090022214    4.9523114  0.029896158 
number of iterations: 1606 
    9600    34.184495      802          144          658 1.4968947e-13 6.3782175e-14          0.1 0.0090022469    5.0153765  0.029896109 
number of iterations: 1607 
    9700    34.384866      817          144          673 1.5167318e-13 6.6070156e-14          0.1 0.0090022729    5.0778263   0.02989606 
number of iterations: 1612 
    9800    34.577279      844          144          700 1.5368319e-13 6.8452217e-14          0.1  0.009002299    5.1395912   0.02989601 
number of iterations: 1671 
    9900    34.763887      870          147          723 1.5571983e-13 7.0932188e-14          0.1 0.0090023293    5.2005982  0.029895953 
number of iterations: 1660 
   10000     34.95984      908          147          761 1.5778346e-13 7.3514159e-14          0.1 0.0090023569    5.2607716    0.0298959 
number of iterations: 1613 
   10100    35.131533      937          150          787 1.5987443e-13 7.6202399e-14          0.1 0.0090023813    5.3200318  0.029895852 
number of iterations: 1632 
   10200    35.332776      972          153          819 1.6199312e-13 7.9001307e-14          0.1 0.0090024097    5.3782956  0.029895798 
number of iterations: 1659 
   10300    35.544943     1007          156          851 1.6413989e-13 8.1915366e-14          0.1 0.0090024368    5.4354758  0.029895745 
number of iterations: 1620 
   10400       35.752     1038          158          880 1.663151e-13 8.4949292e-14          0.1 0.0090024641     5.491482  0.029895692 
number of iterations: 1629 
   10500    35.939857     1075          158          917 1.6851914e-13 8.8107948e-14          0.1 0.0090024915    5.5462196  0.029895638 
number of iterations: 1706 
   10600    36.156838     1107          160          947 1.7075239e-13 9.1396079e-14          0.1 0.0090025241    5.5995905  0.029895574 
number of iterations: 1638 
   10700    36.341615     1155          166          989 1.7301523e-13 9.4819264e-14          0.1 0.0090025433    5.6514917  0.029895533 
number of iterations: 1631 
   10800    36.652033     1189          168         1021 1.7530806e-13 9.8382811e-14          0.1 0.0090025661    5.7018171  0.029895486 
number of iterations: 1665 
   10900    36.872018     1233          169         1064 1.7763128e-13 1.0209234e-13          0.1  0.009002595    5.7504544  0.029895428 
number of iterations: 1627 
   11000    37.085826     1280          173         1107 1.7998528e-13 1.0595375e-13          0.1 0.0090026087    5.7972891  0.029895395 
number of iterations: 1676 
   11100    37.295696     1325          178         1147 1.8237048e-13 1.0997301e-13          0.1  0.009002636    5.8422006  0.029895338 
number of iterations: 1713 
   11200    37.487755     1363          179         1184 1.8478729e-13 1.1415637e-13          0.1  0.009002666    5.8850656  0.029895277 
number of iterations: 1633 
   11300    37.661733     1407          181         1226 1.8723613e-13 1.1851021e-13          0.1 0.0090026906    5.9257559  0.029895225 
number of iterations: 1706 
   11400    37.849434     1451          184         1267 1.8971742e-13  1.23041e-13          0.1 0.0090027138     5.964138  0.029895175 
number of iterations: 1661 
   11500     38.06362     1500          186         1314 1.9223159e-13 1.2775555e-13          0.1 0.0090027359    6.0000752  0.029895125 
number of iterations: 1679 
   11600    38.272914     1553          190         1363 1.9477908e-13 1.326607e-13          0.1 0.0090027626    6.0334253  0.029895068 
number of iterations: 1703 
   11700    38.512534     1606          192         1414 1.9736033e-13 1.3776366e-13          0.1 0.0090027855    6.0640426  0.029895018 
number of iterations: 1659 
   11800    38.723811     1659          192         1467 1.9997579e-13 1.4307173e-13          0.1 0.0090028135    6.0917769  0.029894957 
number of iterations: 1757 
   11900    38.919549     1715          197         1518 2.0262591e-13 1.4859227e-13          0.1 0.0090028452    6.1164739   0.02989489 
number of iterations: 1682 
   12000    39.135612     1778          201         1577 2.0531115e-13 1.5433296e-13          0.1 0.0090028598    6.1379759  0.029894851 
number of iterations: 1658 
   12100    39.349956     1848          203         1645 2.0803197e-13 1.6030154e-13          0.1 0.0090028848    6.1561215  0.029894793 
number of iterations: 1659 
   12200        39.55     1924          208         1716 2.1078885e-13  1.66506e-13          0.1  0.009002919     6.170746  0.029894719 
number of iterations: 1681 
   12300    39.767592     2013          212         1801 2.1358226e-13 1.7295423e-13          0.1  0.009002948    6.1816808  0.029894654 
number of iterations: 1694 
   12400    39.993883     2092          216         1876 2.164127e-13 1.7965427e-13          0.1 0.0090029712    6.1887552  0.029894599 
number of iterations: 1730 
   12500    40.320431     2175          220         1955 2.1928064e-13 1.8661441e-13          0.1 0.0090030023    6.1917966  0.029894529 
number of iterations: 1668 
   12600    40.522476     2255          221         2034 2.2218659e-13 1.9384268e-13          0.1  0.009003026    6.1906307  0.029894471 
number of iterations: 1695 
   12700    40.753683     2330          226         2104 2.2513105e-13 2.0134739e-13          0.1 0.0090030546    6.1850822  0.029894405 
number of iterations: 1681 
   12800    40.959186     2412          232         2180 2.2811453e-13 2.0913696e-13          0.1 0.0090030812    6.1749762  0.029894341 
number of iterations: 1689 
   12900    41.172529     2492          233         2259 2.3113755e-13 2.1721926e-13          0.1 0.0090031088    6.1601377  0.029894275 
number of iterations: 1690 
   13000     41.37273     2561          237         2324 2.3420062e-13 2.2560225e-13          0.1 0.0090031359    6.1403934  0.029894209 
number of iterations: 1745 
   13100    41.669207     2660          242         2418 2.373043e-13 2.3429433e-13          0.1 0.0090031694    6.1155736  0.029894132 
number of iterations: 1706 
   13200    41.872124     2757          246         2511 2.404491e-13 2.4330277e-13          0.1 0.0090032018    6.0855113  0.029894057 
number of iterations: 1733 
   13300    42.112318     2853          248         2605 2.4363557e-13 2.5263518e-13          0.1 0.0090032293    6.0500465   0.02989399 
number of iterations: 1696 
   13400    42.332416     2930          248         2682 2.4686428e-13 2.622984e-13          0.1 0.0090032582    6.0090248  0.029893918 
number of iterations: 1694 
   13500    42.589721     3039          250         2789 2.5013577e-13 2.7229923e-13          0.1 0.0090032855    5.9623014   0.02989385 
number of iterations: 1762 
   13600    42.813838     3150          254         2896 2.5345062e-13 2.8264328e-13          0.1 0.0090033184    5.9097424  0.029893772 
number of iterations: 1703 
   13700     43.04073     3266          257         3009 2.5680939e-13 2.9333652e-13          0.1  0.009003342    5.8512269  0.029893708 
number of iterations: 1713 
   13800    43.259419     3403          260         3143 2.6021268e-13 3.043834e-13          0.1 0.0090033742    5.7866493   0.02989363 
number of iterations: 1717 
   13900    43.490631     3549          262         3287 2.6366106e-13 3.1578814e-13          0.1 0.0090034081    5.7159224  0.029893548 
number of iterations: 1715 
   14000    43.734918     3681          267         3414 2.6715515e-13 3.2755344e-13          0.1 0.0090034388    5.6389788  0.029893471 
number of iterations: 1773 
   14100     43.97859     3813          275         3538 2.7069554e-13 3.3968064e-13          0.1 0.0090034762    5.5557766  0.029893383 
number of iterations: 1805 
   14200    44.207215     3931          277         3654 2.7428285e-13 3.5217046e-13          0.1 0.0090035184    5.4663025  0.029893288 
number of iterations: 1722 
   14300    44.474101     4071          279         3792 2.7791769e-13 3.6502187e-13          0.1 0.0090035518    5.3705732  0.029893206 
number of iterations: 1723 
   14400    44.698669     4212          280         3932 2.8160071e-13 3.7823232e-13          0.1 0.0090035851    5.2686414  0.029893124 
number of iterations: 1719 
   14500     44.92328     4352          283         4069 2.8533254e-13 3.9179716e-13          0.1 0.0090036092     5.160599  0.029893058 
number of iterations: 1797 
   14600    45.148826     4524          288         4236 2.8911382e-13 4.0571033e-13          0.1 0.0090036492    5.0465816  0.029892966 
number of iterations: 1774 
   14700    45.411075     4686          290         4396 2.929452e-13 4.1996301e-13          0.1 0.0090036846     4.926773  0.029892881 
number of iterations: 1733 
   14800    45.642666     4840          296         4544 2.9682737e-13 4.3454409e-13          0.1 0.0090037242    4.8014097   0.02989279 
number of iterations: 1740 
   14900    45.882326     4998          301         4697 3.0076098e-13 4.4944043e-13          0.1 0.0090037566    4.6707858  0.029892711 
number of iterations: 1742 
   15000    46.138444     5137          304         4833 3.0474672e-13 4.6463616e-13          0.1 0.0090037978    4.5352553   0.02989262 
number of iterations: 1812 
   15100    46.373011     5285          308         4977 3.0878528e-13 4.8011188e-13          0.1 0.0090038485    4.3952365  0.029892514 
number of iterations: 1751 
   15200    46.617132     5444          309         5135 3.1287735e-13 4.9584643e-13          0.1 0.0090038966    4.2512153  0.029892413 
number of iterations: 1746 
   15300    46.876802     5604          312         5292 3.1702366e-13 5.1181475e-13          0.1 0.0090039428    4.1037466  0.029892317 
number of iterations: 1865 
   15400    47.151727     5787          314         5473 3.2122492e-13 5.2798921e-13          0.1 0.0090039994    3.9534549  0.029892205 
number of iterations: 1859 
   15500    47.408036     5968          317         5651 3.2548185e-13 5.443406e-13          0.1 0.0090040603     3.801035  0.029892088 
number of iterations: 1812 
   15600    47.704276     6165          324         5841 3.2979519e-13 5.6083756e-13          0.1 0.0090041183    3.6472459  0.029891978 
number of iterations: 1780 
   15700    47.968924     6353          328         6025 3.3416569e-13 5.7733619e-13          0.1 0.0090041728    3.4929837  0.029891876 
number of iterations: 1835 
   15800    48.211753     6527          332         6195 3.3859412e-13 5.940168e-13          0.1 0.0090042461    3.3390363  0.029891746 
number of iterations: 1783 
   15900    48.477645     6712          337         6375 3.4308123e-13 6.1073511e-13          0.1 0.0090043043    3.1863137  0.029891641 
number of iterations: 1743 
   16000    48.732735     6890          339         6551 3.476278e-13 6.2745452e-13          0.1 0.0090043546    3.0357515  0.029891553 
number of iterations: 1815 
   16100    49.014711     7080          341         6739 3.5223462e-13 6.4414065e-13          0.1  0.009004427    2.8882939  0.029891431 
number of iterations: 1799 
   16200    49.332624     7263          345         6918 3.569025e-13 6.6076746e-13          0.1 0.0090045007      2.74487  0.029891309 
number of iterations: 1773 
   16300    49.641336     7466          352         7114 3.6163223e-13 6.7721338e-13          0.1  0.009004576    2.6064242  0.029891187 
number of iterations: 1789 
   16400      49.9041     7659          355         7304 3.6642465e-13 6.9350825e-13          0.1 0.0090046489    2.4737944  0.029891071 
number of iterations: 1809 
   16500    50.211519     7857          358         7499 3.7128057e-13 7.0969907e-13          0.1 0.0090047266    2.3476926   0.02989095 
number of iterations: 1809 
   16600    50.499044     8040          363         7677 3.7620084e-13 7.2579692e-13          0.1 0.0090048125    2.2287131  0.029890815 
number of iterations: 1816 
   16700     50.77581     8223          365         7858 3.8118632e-13 7.4171664e-13          0.1 0.0090048912    2.1173682  0.029890694 
number of iterations: 1824 
   16800    51.106955     8423          370         8053 3.8623787e-13 7.5745092e-13          0.1 0.0090049863    2.0140308  0.029890546 
number of iterations: 1854 
   16900    51.412772     8577          375         8202 3.9135636e-13 7.7300014e-13          0.1 0.0090050713    1.9189239  0.029890415 
number of iterations: 1823 
   17000    51.719067     8736          387         8349 3.9654268e-13 7.8837133e-13          0.1 0.0090051549    1.8321169  0.029890288 
number of iterations: 1869 
   17100    52.025299     8897          390         8507 4.0179773e-13 8.0357384e-13          0.1 0.0090052542    1.7535308  0.029890133 
number of iterations: 1914 
   17200    52.366748     9060          397         8663 4.0712242e-13 8.1862304e-13          0.1  0.009005341    1.6829522  0.029889999 
number of iterations: 1987 
   17300    52.681745     9211          403         8808 4.1251768e-13 8.3353815e-13          0.1 0.0090054502    1.6200493  0.029889826 
number of iterations: 1997 
   17400    53.037418     9365          410         8955 4.1798443e-13 8.4834218e-13          0.1 0.0090055457    1.5643942  0.029889675 
number of iterations: 2048 
   17500    53.367618     9546          418         9128 4.2352363e-13 8.630606e-13          0.1 0.0090056415    1.5154855  0.029889522 
number of iterations: 2098 
   17600    53.701464     9712          423         9289 4.2913624e-13 8.7771847e-13          0.1  0.009005723     1.472772   0.02988939 
number of iterations: 2143 
   17700    54.062837     9856          429         9427 4.3482322e-13 8.9234258e-13          0.1  0.009005808    1.4356775  0.029889251 
number of iterations: 2177 
   17800     54.43416    10007          436         9571 4.4058557e-13 9.0682914e-13          0.1 0.0090059286    1.4036714  0.029889052 
number of iterations: 2215 
   17900    54.784854    10186          445         9741 4.4642429e-13 9.2145779e-13          0.1 0.0090060212    1.3761223  0.029888897 
number of iterations: 2254 
   18000    55.143881    10330          447         9883 4.5234037e-13 9.3612689e-13          0.1  0.009006119    1.3524865  0.029888732 
number of iterations: 2291 
   18100     55.47346    10499          454        10045 4.5833486e-13 9.5085734e-13          0.1 0.0090062109    1.3322544  0.029888575 
number of iterations: 2327 
   18200     55.82681    10674          459        10215 4.6440879e-13 9.6566933e-13          0.1 0.0090062817    1.3149587  0.029888451 
number of iterations: 2361 
   18300    56.186938    10826          470        10356 4.7056321e-13 9.805802e-13          0.1 0.0090063597    1.3001761  0.029888315 
number of iterations: 2389 
   18400    56.591945    10995          479        10516 4.7679919e-13 9.9549949e-13          0.1 0.0090064668    1.2875697  0.029888128 
number of iterations: 2419 
   18500    56.996638    11144          482        10662 4.8311781e-13 1.0106534e-12          0.1 0.0090065551    1.2767588  0.029887972 
number of iterations: 2447 
   18600    57.376285    11302          487        10815 4.8952017e-13 1.0259499e-12          0.1 0.0090066439    1.2674553  0.029887814 
number of iterations: 2476 
   18700    57.751219    11477          493        10984 4.9600737e-13 1.0414004e-12          0.1 0.0090067381    1.2594109  0.029887646 
number of iterations: 2504 
   18800    58.145005    11669          497        11172 5.0258054e-13 1.0570152e-12          0.1 0.0090068239    1.2524133  0.029887492 
number of iterations: 2537 
   18900    58.544558    11851          506        11345 5.0924081e-13 1.0728037e-12          0.1 0.0090069315    1.2462829    0.0298873 
number of iterations: 2564 
   19000    58.934541    12027          514        11513 5.1598935e-13 1.0887012e-12          0.1 0.0090070218    1.2408941  0.029887137 
number of iterations: 2584 
   19100    59.344754    12198          521        11677 5.2282733e-13 1.104856e-12          0.1 0.0090071393    1.2360881  0.029886928 
number of iterations: 2608 
   19200    59.729276    12375          530        11845 5.2975592e-13 1.1211021e-12          0.1 0.0090072317    1.2318001   0.02988676 
number of iterations: 2631 
   19300    60.112972    12560          537        12023 5.3677632e-13 1.1375138e-12          0.1 0.0090073223    1.2279479  0.029886595 
number of iterations: 2655 
   19400    60.581596    12766          543        12223 5.4388977e-13 1.1542641e-12          0.1 0.0090074157    1.2244017  0.029886424 
number of iterations: 2679 
   19500    60.996875    12972          549        12423 5.5109748e-13 1.1712242e-12          0.1 0.0090075068    1.2211086  0.029886257 
number of iterations: 2710 
   19600    61.381731    13144          552        12592 5.5840071e-13 1.1884007e-12          0.1 0.0090076097    1.2180262   0.02988607 
number of iterations: 2736 
   19700    61.791371    13344          564        12780 5.6580072e-13 1.205597e-12          0.1  0.009007709    1.2151911  0.029885888 
number of iterations: 2758 
   19800    62.217932    13548          570        12978 5.732988e-13 1.2232115e-12          0.1 0.0090078433    1.2124843  0.029885648 
number of iterations: 2782 
   19900    62.640874    13740          578        13162 5.8089624e-13 1.2409487e-12          0.1 0.0090079358    1.2099263  0.029885478 
number of iterations: 2795 
   20000    63.054325    13958          591        13367 5.8859436e-13 1.2588866e-12          0.1   0.00900802    1.2075013  0.029885321 
number of iterations: 2817 
   20100    63.485836    14163          596        13567 5.9518862e-13 1.2771764e-12          0.1 0.0090081258     1.204216  0.029885128 
number of iterations: 2841 
   20200    63.914345    14363          605        13758 6.0307615e-13 1.2956201e-12          0.1 0.0090082256    1.2012783  0.029884945 
number of iterations: 2859 
   20300    64.358667    14565          608        13957 6.1106821e-13 1.3142536e-12          0.1 0.0090083357    1.1986268  0.029884745 
number of iterations: 2881 
   20400    64.806797    14781          616        14165 6.1916617e-13 1.3332428e-12          0.1 0.0090084387    1.1961572  0.029884556 
number of iterations: 2905 
   20500    65.237193    14989          619        14370 6.2737145e-13 1.3523434e-12          0.1 0.0090085431    1.1938806  0.029884364 
number of iterations: 2924 
   20600    65.666358    15203          623        14580 6.3568547e-13 1.3717328e-12          0.1 0.0090086387    1.1917391  0.029884186 
number of iterations: 2941 
   20700    66.121818    15423          629        14794 6.4410967e-13 1.3912976e-12          0.1  0.009008772    1.1897335  0.029883946 
number of iterations: 2959 
   20800    66.725999    15633          638        14995 6.526455e-13 1.411282e-12          0.1 0.0090088982    1.1877755  0.029883717 
number of iterations: 2982 
   20900    67.250739    15854          643        15211 6.6129446e-13 1.4315276e-12          0.1     0.009009    1.1858634  0.029883528 
number of iterations: 2999 
   21000    67.710777    16073          654        15419 6.7005803e-13 1.4519067e-12          0.1 0.0090091335    1.1840405  0.029883287 
number of iterations: 3019 
   21100    68.200575    16302          662        15640 6.7893773e-13 1.472495e-12          0.1 0.0090092616    1.1823103  0.029883054 
number of iterations: 3045 
   21200    68.667066    16540          681        15859 6.8793511e-13 1.4935412e-12          0.1 0.0090093532    1.1805878  0.029882882 
number of iterations: 3069 
   21300    69.152178    16779          692        16087 6.9705172e-13 1.514862e-12          0.1 0.0090094664    1.1788804  0.029882673 
number of iterations: 3090 
   21400    69.660778    17007          699        16308 7.0628915e-13 1.5363651e-12          0.1 0.0090096062    1.1772279  0.029882419 
number of iterations: 3111 
   21500    70.181595    17249          706        16543 7.1564899e-13 1.5581331e-12          0.1 0.0090097329    1.1756279  0.029882187 
number of iterations: 3131 
   21600    70.690187    17488          711        16777 7.2513287e-13 1.5799665e-12          0.1 0.0090098736    1.1741511  0.029881932 
number of iterations: 3151 
   21700    71.200698    17730          721        17009 7.3474243e-13 1.6024172e-12          0.1 0.0090100088    1.1726466  0.029881685 
number of iterations: 3177 
   21800    71.844953    17981          729        17252 7.4342628e-13 1.6250645e-12          0.1 0.0090101132    1.1703565  0.029881489 
number of iterations: 3202 
   21900    72.367825    18220          736        17484 7.5327827e-13 1.648088e-12          0.1 0.0090102494    1.1683565  0.029881241 
number of iterations: 3226 
   22000    72.874295    18515          742        17773 7.6326081e-13 1.6713246e-12          0.1 0.0090103832    1.1665868  0.029880997 
number of iterations: 3255 
   22100    73.400659    18745          753        17992 7.7337564e-13 1.6949463e-12          0.1 0.0090105369    1.1649475   0.02988072 
number of iterations: 3277 
   22200     73.93714    18985          764        18221 7.8362452e-13 1.718875e-12          0.1 0.0090106745    1.1634021  0.029880469 
number of iterations: 3301 
   22300    74.451505    19260          769        18491 7.9290258e-13 1.7431034e-12          0.1 0.0090107865    1.1610776  0.029880258 
number of iterations: 3322 
   22400    74.992973    19515          776        18739 8.0232976e-13 1.7674383e-12          0.1 0.0090109427    1.1583788  0.029879976 
number of iterations: 3348 
   22500    75.522739    19791          794        18997 8.1296234e-13 1.7919275e-12          0.1 0.0090111018    1.1563619  0.029879689 
number of iterations: 3364 
   22600    76.089645    20085          812        19273 8.2373582e-13 1.8166382e-12          0.1  0.009011266    1.1548067  0.029879392 
number of iterations: 3389 
   22700    77.053346    20372          823        19549 8.3465207e-13 1.8421045e-12          0.1 0.0090114071    1.1533905  0.029879134 
number of iterations: 3430 
   22800    77.644161    20626          832        19794 8.4571298e-13 1.8675064e-12          0.1 0.0090115671    1.1522081  0.029878843 
number of iterations: 3476 
   22900    78.217757    20919          844        20075 8.5692048e-13 1.8935319e-12          0.1 0.0090117151    1.1510717  0.029878572 
number of iterations: 3510 
   23000    78.772045    21194          857        20337 8.6827649e-13 1.9200243e-12          0.1 0.0090118795    1.1499256  0.029878273 
number of iterations: 3560 
   23100    79.359527    21500          871        20629  8.79783e-13 1.9466965e-12          0.1 0.0090120058    1.1488429  0.029878037 
number of iterations: 3584 
   23200    79.958372    21780          886        20894 8.9055749e-13 1.9738844e-12          0.1 0.0090121707    1.1470604  0.029877737 
number of iterations: 3614 
   23300     80.57029    22090          894        21196 9.0235926e-13 2.0014242e-12          0.1 0.0090123328    1.1455823  0.029877441 
number of iterations: 3653 
   23400     81.14974    22366          900        21466 9.1431744e-13 2.029256e-12          0.1 0.0090124902     1.144311  0.029877153 
number of iterations: 3694 
   23500    81.785851    22664          913        21751 9.2643408e-13 2.0571708e-12          0.1 0.0090126531    1.1432623  0.029876856 
number of iterations: 3719 
   23600       82.397    22992          922        22070 9.387113e-13 2.0858132e-12          0.1 0.0090128232    1.1422161  0.029876545 
number of iterations: 3751 
   23700    83.002127    23317          938        22379 9.5115121e-13 2.1145887e-12          0.1 0.0090129809    1.1412646  0.029876256 
number of iterations: 3792 
   23800    83.613189    23641          950        22691 9.6375597e-13 2.1434092e-12          0.1 0.0090131566    1.1404883  0.029875937 
number of iterations: 3826 
   23900    84.254297    23980          963        23017 9.7652778e-13 2.1728987e-12          0.1 0.0090133523    1.1397085  0.029875582 
number of iterations: 3872 
   24000    84.897588    24298          977        23321 9.8946884e-13 2.2027819e-12          0.1 0.0090135165    1.1389333  0.029875281 
number of iterations: 3909 
   24100    85.545446    24650          991        23659 1.0025814e-12 2.233077e-12          0.1 0.0090136869    1.1381591  0.029874968 
number of iterations: 3928 
   24200    86.187422    24990         1004        23986 1.0148699e-12 2.2638503e-12          0.1 0.0090138324    1.1365918  0.029874696 
number of iterations: 3956 
   24300    87.030308    25318         1019        24299 1.0274427e-12 2.2952182e-12          0.1 0.0090140258    1.1346729  0.029874345 
number of iterations: 4003 
   24400    87.665156    25697         1034        24663 1.0410584e-12 2.326995e-12          0.1 0.0090142042    1.1332799  0.029874019 
number of iterations: 4036 
   24500    88.322854    26064         1046        25018 1.0548547e-12 2.3588261e-12          0.1  0.009014401    1.1322754  0.029873662 
number of iterations: 4074 
   24600    88.958853    26450         1065        25385 1.0688337e-12 2.3911142e-12          0.1 0.0090145826     1.131452  0.029873329 
number of iterations: 4116 
   24700    89.633947    26846         1079        25767 1.082998e-12 2.4237342e-12          0.1 0.0090147805    1.1307525  0.029872969 
number of iterations: 4155 
   24800    90.293891    27223         1094        26129  1.09735e-12 2.4565951e-12          0.1 0.0090149978    1.1301809  0.029872575 
number of iterations: 4156 
   24900    90.969741    27624         1101        26523 1.1104786e-12 2.490339e-12          0.1 0.0090151719    1.1284195  0.029872252 
number of iterations: 4192 
   25000    91.661469    27968         1118        26850 1.1251947e-12 2.5244942e-12          0.1 0.0090153663    1.1272579  0.029871897 
number of iterations: 4240 
   25100    92.402349    28334         1132        27202 1.1401059e-12 2.5591256e-12          0.1 0.0090155206    1.1263579  0.029871607 
number of iterations: 4276 
   25200    93.089925    28691         1153        27538 1.1552147e-12 2.5939196e-12          0.1 0.0090157361    1.1256781  0.029871216 
number of iterations: 4312 
   25300    93.816194    29105         1164        27941 1.1705238e-12 2.6291072e-12          0.1  0.009015937    1.1251187  0.029870847 
number of iterations: 4352 
   25400    94.526773    29513         1185        28328 1.1860357e-12 2.6650887e-12          0.1 0.0090161499    1.1245018  0.029870457 
number of iterations: 4385 
   25500    95.244584    29894         1194        28700 1.2017531e-12 2.7015355e-12          0.1 0.0090163432    1.1238704  0.029870101 
number of iterations: 4410 
   25600    95.956538    30279         1209        29070 1.2176789e-12 2.7382174e-12          0.1 0.0090165349    1.1233238  0.029869747 
number of iterations: 4452 
   25700    96.705035    30684         1225        29459 1.2338156e-12 2.775767e-12          0.1 0.0090167242    1.1226847  0.029869395 
number of iterations: 4482 
   25800    97.578666    31075         1234        29841 1.249006e-12 2.813391e-12          0.1 0.0090169422    1.1212635  0.029868996 
number of iterations: 4517 
   25900    98.331157    31484         1250        30234 1.265558e-12 2.8517372e-12          0.1 0.0090171604    1.1203922  0.029868598 
number of iterations: 4555 
   26000    99.077492    31923         1263        30660 1.2823292e-12 2.8903832e-12          0.1 0.0090174043    1.1197956  0.029868156 
number of iterations: 4566 
   26100    99.903457    32357         1277        31080 1.2973794e-12 2.9293313e-12          0.1 0.0090176042    1.1178629  0.029867785 
number of iterations: 4599 
   26200     100.7406    32782         1294        31488 1.3145724e-12 2.9692725e-12          0.1 0.0090178504    1.1168446   0.02986734 
number of iterations: 4639 
   26300    101.52111    33199         1313        31886 1.3319932e-12 3.0098417e-12          0.1 0.0090180955     1.116102  0.029866894 
number of iterations: 4670 
   26400    102.41633    33668         1325        32343 1.3496449e-12 3.0508212e-12          0.1 0.0090183254    1.1154967  0.029866473 
number of iterations: 4693 
   26500    103.19859    34102         1344        32758 1.3663766e-12 3.0916229e-12          0.1 0.0090185526    1.1142924  0.029866056 
number of iterations: 4730 
   26600    103.98504    34580         1362        33218 1.384484e-12 3.1333262e-12          0.1 0.0090188082    1.1136942  0.029865591 
number of iterations: 4766 
   26700    104.79165    35052         1380        33672 1.4028313e-12 3.1760573e-12          0.1  0.009019043     1.113114  0.029865161 
number of iterations: 4803 
   26800    105.57905    35540         1397        34143 1.4214217e-12 3.2189189e-12          0.1  0.009019301    1.1126929  0.029864691 
number of iterations: 4843 
   26900    106.40932    35975         1413        34562 1.4402585e-12 3.2620618e-12          0.1 0.0090195852    1.1124173  0.029864177 
number of iterations: 4884 
   27000    107.37046    36465         1432        35033 1.4582814e-12 3.3062228e-12          0.1 0.0090198059    1.1112072  0.029863767 
number of iterations: 4915 
   27100    108.19449    36925         1453        35472 1.4776067e-12 3.3501866e-12          0.1 0.0090200932    1.1108686  0.029863248 
number of iterations: 4945 
   27200    109.06327    37486         1473        36013 1.497188e-12 3.395321e-12          0.1 0.0090203557    1.1105384  0.029862769 
number of iterations: 4972 
   27300    109.90631    38041         1488        36553 1.5149994e-12 3.441238e-12          0.1 0.0090205522    1.1085758  0.029862398 
number of iterations: 5011 
   27400    110.76647    38540         1506        37034 1.5350763e-12 3.4873393e-12          0.1 0.0090208263    1.1080065  0.029861902 
number of iterations: 5035 
   27500    111.62542    38998         1520        37478 1.5542843e-12 3.5339422e-12          0.1 0.0090210912    1.1068795  0.029861417 
number of iterations: 5074 
   27600    112.55943    39537         1536        38001 1.5748818e-12 3.5817433e-12          0.1 0.0090213684    1.1063455  0.029860911 
number of iterations: 5101 
   27700    113.42472    40076         1553        38523 1.5946048e-12 3.6297894e-12          0.1 0.0090216569     1.105167  0.029860386 
number of iterations: 5134 
   27800    114.31168    40618         1579        39039 1.6157366e-12 3.6784334e-12          0.1 0.0090219513    1.1047967   0.02985985 
number of iterations: 5174 
   27900    115.21383    41171         1607        39564 1.6371485e-12 3.7277953e-12          0.1 0.0090222499    1.1045311  0.029859306 
number of iterations: 5203 
   28000    116.09715    41730         1635        40095 1.658844e-12 3.7773831e-12          0.1 0.0090225158    1.1044287  0.029858816 
number of iterations: 5240 
   28100     117.0119    42286         1653        40633 1.6808271e-12 3.8279261e-12          0.1 0.0090228029    1.1042489  0.029858289 
number of iterations: 5260 
   28200    117.90565    42867         1676        41191 1.7020217e-12 3.8790834e-12          0.1 0.0090231042    1.1032377  0.029857737 
number of iterations: 5295 
   28300    118.85564    43390         1703        41687 1.724577e-12 3.9309305e-12          0.1 0.0090234057    1.1029891  0.029857187 
number of iterations: 5330 
   28400    119.81357    43964         1724        42240 1.7474312e-12 3.9835949e-12          0.1 0.0090237309    1.1027706  0.029856595 
number of iterations: 5360 
   28500    120.76654    44580         1747        42833 1.7705882e-12 4.0367992e-12          0.1 0.0090240773    1.1026105  0.029855968 
number of iterations: 5393 
   28600    121.71844    45156         1769        43387 1.7932492e-12 4.0904385e-12          0.1 0.0090243873    1.1019248    0.0298554 
number of iterations: 5431 
   28700    122.74901    45728         1787        43941 1.8170134e-12 4.1449934e-12          0.1 0.0090247132    1.1017736  0.029854807 
number of iterations: 5467 
   28800    123.70975    46348         1811        44537 1.8410925e-12 4.2003961e-12          0.1 0.0090250062    1.1016052  0.029854266 
number of iterations: 5497 
   28900    124.70365    47013         1837        45176 1.8654908e-12 4.2566778e-12          0.1 0.0090253735     1.101388    0.0298536 
number of iterations: 5535 
   29000     125.7101    47604         1856        45748 1.8902123e-12 4.3130006e-12          0.1 0.0090257125    1.1014146  0.029852984 
number of iterations: 5578 
   29100    126.73572    48243         1872        46371 1.9152615e-12 4.3708257e-12          0.1 0.0090260626    1.1011852  0.029852344 
number of iterations: 5605 
   29200    127.84465    48887         1903        46984 1.9396959e-12 4.4284611e-12          0.1 0.0090263844    1.1005479  0.029851752 
number of iterations: 5639 
   29300    128.83771    49547         1942        47605 1.9628622e-12 4.4877194e-12          0.1 0.0090266772    1.0984048  0.029851209 
number of iterations: 5674 
   29400    129.83584    50219         1961        48258 1.9888741e-12 4.5473694e-12          0.1   0.00902702    1.0984536  0.029850588 
number of iterations: 5711 
   29500    130.90729    50906         1996        48910 2.0152307e-12 4.6082266e-12          0.1 0.0090273879    1.0982437  0.029849918 
number of iterations: 5742 
   29600    132.03132    51594         2022        49572 2.0419366e-12 4.6695047e-12          0.1 0.0090277083    1.0981872  0.029849325 
number of iterations: 5781 
   29700    133.10686    52289         2055        50234 2.0689964e-12 4.7315426e-12          0.1 0.0090280761    1.0981345  0.029848654 
number of iterations: 5772 
   29800      134.156    52984         2080        50904 2.0952489e-12 4.7936444e-12          0.1  0.009028419    1.0974245  0.029848022 
number of iterations: 5802 
   29900    135.23314    53677         2114        51563 2.1219707e-12 4.8568694e-12          0.1  0.009028736    1.0967976  0.029847434 
number of iterations: 5852 
   30000     136.3093    54381         2136        52245 2.1500911e-12 4.9208573e-12          0.1 0.0090291566    1.0970146  0.029846676 
number of iterations: 5888 
   30100    137.43532    55092         2162        52930 2.1785841e-12 4.9859852e-12          0.1 0.0090296108    1.0970016  0.029845855 
number of iterations: 5924 
   30200    138.52282    55854         2186        53668 2.2048768e-12 5.0527925e-12          0.1 0.0090299627    1.0947403  0.029845204 
number of iterations: 5955 
   30300    139.61372    56575         2215        54360 2.2340959e-12 5.1199558e-12          0.1 0.0090304091    1.0950983  0.029844404 
number of iterations: 5992 
   30400    140.74862    57316         2239        55077 2.2615221e-12 5.1871287e-12          0.1 0.0090307492    1.0935515  0.029843771 
number of iterations: 6020 
   30500    141.89358    58067         2272        55795 2.2901807e-12 5.2564605e-12          0.1 0.0090311908    1.0926659  0.029842975 
number of iterations: 6055 
   30600    143.06677    58799         2297        56502 2.3195671e-12 5.3254175e-12          0.1 0.0090315429    1.0923647  0.029842326 
number of iterations: 6097 
   30700    144.23852    59595         2326        57269 2.349354e-12 5.3953568e-12          0.1 0.0090319808    1.0919088  0.029841531 
number of iterations: 6122 
   30800     145.4237    60403         2361        58042 2.3784818e-12 5.4663495e-12          0.1 0.0090323545    1.0906377  0.029840843 
number of iterations: 6157 
   30900    146.58087    61169         2385        58784 2.4100014e-12 5.5377701e-12          0.1 0.0090327508    1.0913542  0.029840119 
number of iterations: 6185 
   31000    147.80671    61934         2414        59520 2.4405396e-12 5.6092735e-12          0.1  0.009033103     1.090669  0.029839461 
number of iterations: 6219 
   31100    149.00339    62710         2446        60264 2.4728816e-12 5.6818039e-12          0.1 0.0090335653    1.0915042  0.029838623 
number of iterations: 6253 
   31200    150.21357    63560         2478        61082 2.5056522e-12 5.756094e-12          0.1 0.0090340831     1.091548  0.029837687 
number of iterations: 6291 
   31300    151.41455    64377         2503        61874 2.5366967e-12 5.8312313e-12          0.1 0.0090344746     1.090223  0.029836962 
number of iterations: 6330 
   31400    152.63402    65274         2531        62743 2.5703129e-12 5.907988e-12          0.1 0.0090349343    1.0909013  0.029836127 
number of iterations: 6365 
   31500    153.89255    66118         2559        63559 2.6043747e-12 5.9863434e-12          0.1 0.0090353881    1.0906014  0.029835294 
number of iterations: 6410 
   31600    155.13487    66970         2598        64372 2.636745e-12 6.0644164e-12          0.1 0.0090357956    1.0894766  0.029834542 
number of iterations: 6446 
   31700    156.39715    67788         2620        65168 2.6716871e-12 6.1427014e-12          0.1 0.0090362653    1.0906782  0.029833689 
number of iterations: 6481 
   31800    157.72131    68696         2660        66036 2.7070922e-12 6.221953e-12          0.1 0.0090367114    1.0908514  0.029832867 
number of iterations: 6519 
   31900    159.04212    69615         2709        66906 2.7429665e-12 6.3026308e-12          0.1 0.0090371836    1.0913662  0.029832002 
number of iterations: 6555 
   32000    160.36504    70535         2744        67791 2.7782401e-12 6.3842594e-12          0.1 0.0090376353    1.0909045   0.02983117 
number of iterations: 6609 
   32100    161.67415    71406         2772        68634 2.8100029e-12 6.4672614e-12          0.1 0.0090381162    1.0877362  0.029830291 
number of iterations: 6646 
   32200    163.01449    72302         2798        69504 2.847241e-12 6.5515103e-12          0.1 0.0090386278    1.0899403  0.029829369 
number of iterations: 6686 
   32300    164.36427    73235         2834        70401  2.88385e-12 6.6363855e-12          0.1 0.0090391097    1.0884838  0.029828475 
number of iterations: 6720 
   32400    165.73444    74198         2862        71336 2.9220666e-12 6.7231109e-12          0.1 0.0090396232    1.0897385  0.029827542 
number of iterations: 6719 
   32500    167.16481    75127         2905        72222 2.9582675e-12 6.8093524e-12          0.1 0.0090400593    1.0879588  0.029826725 
number of iterations: 6772 
   32600    168.55352    76089         2941        73148 2.9952282e-12 6.8969324e-12          0.1 0.0090405258    1.0882202  0.029825873 
number of iterations: 6809 
   32700    169.94292    77090         2985        74105 3.0349208e-12 6.9867983e-12          0.1 0.0090410319    1.0885641  0.029824943 
number of iterations: 6847 
   32800    171.39909    78075         3035        75040 3.0751394e-12 7.0765156e-12          0.1 0.0090415671    1.0893053  0.029823963 
number of iterations: 6874 
   32900    172.85013    79115         3071        76044 3.112115e-12 7.1677928e-12          0.1 0.0090421006    1.0866677  0.029822982 
number of iterations: 6920 
   33000    174.30546    80159         3101        77058 3.1511738e-12 7.2601743e-12          0.1 0.0090425884    1.0877204  0.029822095 
number of iterations: 6967 
   33100    175.75889    81260         3144        78116 3.191671e-12 7.353719e-12          0.1 0.0090431212    1.0868525  0.029821111 
number of iterations: 7008 
   33200     177.4019    82222         3184        79038 3.2306255e-12 7.448006e-12          0.1 0.0090436788    1.0859536  0.029820095 
number of iterations: 7054 
   33300    178.87839    83222         3221        80001 3.2724803e-12 7.5434193e-12          0.1 0.0090441653    1.0870231  0.029819197 
number of iterations: 7107 
   33400    180.39807    84234         3262        80972 3.3128528e-12 7.6390556e-12          0.1 0.0090447109    1.0852634  0.029818193 
number of iterations: 7147 
   33500    181.92854    85390         3314        82076 3.3533959e-12 7.7376321e-12          0.1 0.0090452209    1.0849857  0.029817257 
number of iterations: 7194 
   33600    183.49358    86474         3350        83124 3.3969026e-12 7.8360692e-12          0.1 0.0090458718    1.0858824  0.029816079 
number of iterations: 7234 
   33700    185.06129    87581         3397        84184 3.4364255e-12 7.9369548e-12          0.1 0.0090463763    1.0817607  0.029815139 
number of iterations: 7270 
   33800    186.64883    88675         3439        85236 3.4801981e-12 8.0379948e-12          0.1  0.009046944    1.0855142  0.029814118 
number of iterations: 7340 
   33900    188.35012    89750         3480        86270 3.5230371e-12 8.1402555e-12          0.1 0.0090474715    1.0808719  0.029813121 
number of iterations: 7399 
   34000    189.99386    90907         3515        87392 3.5646434e-12 8.2422188e-12          0.1 0.0090480978    1.0833284  0.029812006 
number of iterations: 7462 
   34100    191.64595    92077         3560        88517 3.6070942e-12 8.346347e-12          0.1 0.0090485943    1.0788644  0.029811066 
number of iterations: 7512 
   34200     193.3263    93244         3609        89635 3.654895e-12 8.4526173e-12          0.1 0.0090492433    1.0848557  0.029809909 
number of iterations: 7555 
   34300     195.0249    94426         3653        90773 3.6979653e-12 8.5602979e-12          0.1 0.0090498154    1.0758676  0.029808818 
number of iterations: 7633 
   34400    196.73067    95609         3692        91917 3.7425085e-12 8.6670241e-12          0.1 0.0090503794    1.0842181  0.029807828 
number of iterations: 7644 
   34500    198.48793    96851         3736        93115 3.7891303e-12 8.7749572e-12          0.1 0.0090509882    1.0750834  0.029806664 
number of iterations: 7716 
   34600    200.24156    98072         3789        94283 3.8393434e-12 8.884019e-12          0.1 0.0090517578    1.0877724   0.02980533 
number of iterations: 7742 
   34700    202.01482    99304         3843        95461 3.8855119e-12 8.9939841e-12          0.1 0.0090522994    1.0721431  0.029804248 
number of iterations: 7852 
   34800    203.77442   100585         3882        96703 3.931501e-12 9.1065094e-12          0.1 0.0090530213    1.0884354  0.029803032 
number of iterations: 7859 
   34900    205.58054   101909         3926        97983 3.9808428e-12 9.2181489e-12          0.1   0.00905357    1.0697231  0.029801912 
number of iterations: 7964 
   35000    207.54177   103115         3964        99151 4.0257977e-12 9.3345204e-12          0.1 0.0090542341    1.0885993  0.029800808 
Loop time of 207.542 on 32 procs for 35000 steps with 103115 atoms

Performance: 145705575.481 tau/day, 168.641 timesteps/s
93.6% CPU use with 32 MPI tasks x no OpenMP threads

MPI task timing breakdown:
Section |  min time  |  avg time  |  max time  |%varavg| %total
---------------------------------------------------------------
Pair    | 0.056993   | 5.1085     | 12.372     | 145.5 |  2.46
Neigh   | 0.024646   | 1.7011     | 3.7295     |  72.8 |  0.82
Comm    | 1.0525     | 1.6307     | 2.2364     |  24.6 |  0.79
Output  | 56.499     | 56.5       | 56.512     |   0.0 | 27.22
Modify  | 130.86     | 131.5      | 132.23     |   2.9 | 63.36
Other   |            | 11.11      |            |       |  5.35

Nlocal:    3222.34 ave 5334 max 166 min
Histogram: 3 0 1 2 4 3 8 4 4 3
Nghost:    1824.03 ave 3043 max 322 min
Histogram: 1 1 1 6 7 2 5 4 1 4
Neighs:    26739.3 ave 47986 max 763 min
Histogram: 3 1 1 2 6 6 6 1 2 4

Total # of neighbors = 855658
Ave neighs/atom = 8.29809
Neighbor list builds = 855
Dangerous builds = 0
Total wall time: 0:03:27
