 NUFEB Simulation

     100 atoms 
     2 atom types 
     4 nutrients 

  0.0e-4   1.00e-04  xlo xhi 
  0.0e-4   1.00e-04  ylo yhi 
  0.0e-4   1.00e-05  zlo zhi 

 Atoms 

     1 1 1.80e-06  370 6.21e-05 2.80e-05 4.51e-06 1.80e-06 
     2 1 1.78e-06  370 3.97e-05 7.12e-05 2.71e-06 1.78e-06 
     3 1 1.56e-06  370 2.32e-05 5.11e-05 8.29e-06 1.56e-06 
     4 1 1.70e-06  370 8.43e-05 4.09e-05 3.21e-06 1.70e-06 
     5 1 1.44e-06  370 1.95e-05 5.81e-05 8.39e-06 1.44e-06 
     6 1 1.52e-06  370 8.97e-06 3.04e-05 5.11e-06 1.52e-06 
     7 1 1.59e-06  370 7.95e-05 1.61e-05 5.27e-06 1.59e-06 
     8 1 1.63e-06  370 5.54e-05 8.57e-05 4.79e-06 1.63e-06 
     9 1 1.65e-06  370 3.15e-06 5.46e-05 6.37e-06 1.65e-06 
     10 1 1.91e-06  370 5.34e-05 6.78e-05 3.47e-06 1.91e-06 
     11 1 1.74e-06  370 7.70e-05 2.08e-05 7.90e-06 1.74e-06 
     12 1 1.45e-06  370 2.64e-05 8.42e-05 3.32e-06 1.45e-06 
     13 1 1.91e-06  370 3.79e-06 2.45e-05 4.59e-06 1.91e-06 
     14 1 1.67e-06  370 3.28e-05 1.88e-05 3.21e-06 1.67e-06 
     15 1 1.81e-06  370 6.43e-05 3.31e-05 6.65e-06 1.81e-06 
     16 1 1.57e-06  370 7.18e-05 3.54e-05 4.43e-06 1.57e-06 
     17 1 1.46e-06  370 3.63e-05 6.05e-05 4.65e-06 1.46e-06 
     18 1 1.92e-06  370 3.70e-05 6.22e-05 5.15e-06 1.92e-06 
     19 1 1.76e-06  370 6.43e-05 6.34e-05 4.34e-06 1.76e-06 
     20 1 1.72e-06  370 7.82e-05 2.97e-05 4.25e-06 1.72e-06 
     21 1 1.67e-06  370 2.83e-05 5.98e-05 3.16e-06 1.67e-06 
     22 1 1.75e-06  370 1.57e-05 2.04e-05 6.82e-06 1.75e-06 
     23 1 1.89e-06  370 3.06e-05 3.49e-05 2.39e-06 1.89e-06 
     24 1 1.43e-06  370 1.02e-05 2.67e-05 4.38e-06 1.43e-06 
     25 1 1.82e-06  370 1.66e-05 7.58e-05 6.82e-06 1.82e-06 
     26 1 1.69e-06  370 7.25e-06 6.82e-05 4.16e-06 1.69e-06 
     27 1 1.88e-06  370 7.38e-05 6.85e-06 6.01e-06 1.88e-06 
     28 1 1.54e-06  370 1.13e-05 4.72e-05 3.85e-06 1.54e-06 
     29 1 1.91e-06  370 8.33e-05 4.79e-06 7.30e-06 1.91e-06 
     30 1 1.48e-06  370 5.31e-05 6.06e-06 6.06e-06 1.48e-06 
     31 1 1.53e-06  370 8.12e-05 4.51e-05 5.64e-06 1.53e-06 
     32 1 1.37e-06  370 3.10e-05 7.44e-05 2.76e-06 1.37e-06 
     33 1 1.64e-06  370 4.99e-06 3.53e-05 3.49e-06 1.64e-06 
     34 1 1.65e-06  370 2.31e-05 1.19e-05 5.54e-06 1.65e-06 
     35 1 1.41e-06  370 1.94e-05 3.10e-05 8.44e-06 1.41e-06 
     36 1 1.63e-06  370 7.94e-05 7.48e-05 7.82e-06 1.63e-06 
     37 1 1.63e-06  370 5.95e-05 7.00e-05 2.91e-06 1.63e-06 
     38 1 1.54e-06  370 1.62e-05 7.69e-05 7.53e-06 1.54e-06 
     39 1 1.93e-06  370 2.76e-05 2.89e-05 2.17e-06 1.93e-06 
     40 1 1.49e-06  370 8.16e-05 6.36e-05 5.56e-06 1.49e-06 
     41 1 1.67e-06  370 7.97e-05 2.06e-06 4.25e-06 1.67e-06 
     42 1 1.87e-06  370 3.11e-05 9.09e-05 2.68e-06 1.87e-06 
     43 1 1.91e-06  370 3.49e-05 8.02e-05 3.31e-06 1.91e-06 
     44 1 1.57e-06  370 1.21e-05 6.05e-05 8.00e-06 1.57e-06 
     45 1 1.92e-06  370 7.23e-05 7.44e-05 5.71e-06 1.92e-06 
     46 1 1.47e-06  370 1.35e-05 9.84e-05 4.62e-06 1.47e-06 
     47 1 1.66e-06  370 5.87e-05 8.18e-05 7.55e-06 1.66e-06 
     48 1 1.79e-06  370 2.00e-05 6.48e-05 6.99e-06 1.79e-06 
     49 1 1.52e-06  370 6.84e-05 8.13e-05 6.68e-06 1.52e-06 
     50 1 1.49e-06  370 6.61e-05 4.46e-05 1.52e-06 1.49e-06 
     51 2 1.19e-06  230 1.29e-05 1.94e-05 6.17e-06 1.19e-06 
     52 2 1.05e-06  230 5.98e-05 8.69e-05 1.65e-06 1.05e-06 
     53 2 8.96e-07  230 2.66e-05 1.53e-05 4.13e-06 8.96e-07 
     54 2 1.32e-06  230 4.93e-05 4.50e-05 1.65e-06 1.32e-06 
     55 2 1.26e-06  230 9.02e-05 1.29e-05 6.96e-06 1.26e-06 
     56 2 1.27e-06  230 6.43e-05 3.53e-05 1.40e-06 1.27e-06 
     57 2 1.09e-06  230 6.94e-05 3.06e-06 3.36e-06 1.09e-06 
     58 2 1.34e-06  230 7.79e-05 8.03e-05 6.14e-06 1.34e-06 
     59 2 1.04e-06  230 9.42e-05 7.08e-05 6.05e-06 1.04e-06 
     60 2 1.12e-06  230 4.60e-05 8.05e-05 4.72e-06 1.12e-06 
     61 2 1.37e-06  230 3.99e-05 3.42e-05 8.10e-06 1.37e-06 
     62 2 1.16e-06  230 3.00e-05 6.42e-05 8.48e-06 1.16e-06 
     63 2 1.24e-06  230 7.41e-05 8.79e-05 8.48e-06 1.24e-06 
     64 2 1.38e-06  230 5.21e-05 9.56e-05 8.45e-06 1.38e-06 
     65 2 9.42e-07  230 6.72e-05 5.75e-05 8.90e-06 9.42e-07 
     66 2 1.25e-06  230 4.97e-05 7.88e-05 4.48e-06 1.25e-06 
     67 2 1.04e-06  230 8.65e-05 2.86e-05 7.87e-06 1.04e-06 
     68 2 1.00e-06  230 5.41e-05 3.14e-05 5.45e-06 1.00e-06 
     69 2 1.14e-06  230 1.11e-05 4.53e-06 1.23e-06 1.14e-06 
     70 2 1.18e-06  230 9.90e-06 7.16e-05 4.61e-06 1.18e-06 
     71 2 1.03e-06  230 3.31e-05 4.18e-05 1.62e-06 1.03e-06 
     72 2 8.96e-07  230 5.03e-05 1.27e-05 4.51e-06 8.96e-07 
     73 2 1.33e-06  230 3.52e-05 6.53e-05 8.43e-06 1.33e-06 
     74 2 9.33e-07  230 2.05e-06 6.14e-05 9.03e-06 9.33e-07 
     75 2 1.29e-06  230 6.52e-05 8.50e-05 7.08e-06 1.29e-06 
     76 2 1.26e-06  230 8.74e-05 9.86e-05 3.93e-06 1.26e-06 
     77 2 1.01e-06  230 6.95e-05 1.92e-05 5.30e-06 1.01e-06 
     78 2 1.27e-06  230 7.77e-05 4.24e-05 6.99e-06 1.27e-06 
     79 2 1.35e-06  230 6.01e-05 3.68e-05 6.27e-06 1.35e-06 
     80 2 1.29e-06  230 6.98e-05 8.57e-05 7.43e-06 1.29e-06 
     81 2 8.83e-07  230 4.11e-06 3.34e-05 3.28e-06 8.83e-07 
     82 2 1.38e-06  230 3.81e-06 4.18e-05 7.42e-06 1.38e-06 
     83 2 1.08e-06  230 3.29e-05 8.99e-05 3.15e-06 1.08e-06 
     84 2 1.06e-06  230 9.27e-05 2.13e-05 2.35e-06 1.06e-06 
     85 2 9.09e-07  230 2.35e-06 8.35e-05 2.26e-06 9.09e-07 
     86 2 1.29e-06  230 4.60e-05 5.02e-05 3.58e-06 1.29e-06 
     87 2 1.37e-06  230 1.41e-05 2.76e-05 5.94e-06 1.37e-06 
     88 2 8.94e-07  230 6.59e-05 3.35e-05 6.02e-06 8.94e-07 
     89 2 1.26e-06  230 8.77e-05 5.55e-05 5.24e-06 1.26e-06 
     90 2 9.73e-07  230 6.98e-06 9.81e-05 7.17e-06 9.73e-07 
     91 2 1.27e-06  230 2.46e-06 8.33e-05 5.85e-06 1.27e-06 
     92 2 1.35e-06  230 8.11e-06 4.64e-05 6.47e-06 1.35e-06 
     93 2 1.30e-06  230 7.38e-05 5.87e-05 6.77e-06 1.30e-06 
     94 2 1.05e-06  230 2.37e-05 1.51e-05 4.76e-06 1.05e-06 
     95 2 1.11e-06  230 6.70e-05 9.41e-05 2.57e-06 1.11e-06 
     96 2 1.16e-06  230 8.89e-05 2.37e-05 1.55e-06 1.16e-06 
     97 2 1.22e-06  230 3.03e-05 9.21e-05 2.69e-06 1.22e-06 
     98 2 1.19e-06  230 1.40e-05 3.24e-05 4.59e-06 1.19e-06 
     99 2 1.26e-06  230 3.05e-05 6.64e-05 4.03e-06 1.26e-06 
     100 2 1.05e-06  230 8.24e-05 1.58e-05 6.29e-06 1.05e-06 

 Nutrients 

     1 sub g nn nn nn 1.00e-01 1.00e-01 
     2 o2 l nn nn nd 9.00e-03 9.00e-03 
     3 suc l nn nn nn 3.42e-20 3.42e-20 
     4 co2 l nn nn nd 2.99e-02 2.99e-02 

 Type Name 

     1 cyano  
     2 ecw  

 Diffusion Coeffs 

     sub 0 
     o2 2.3e-09 
     suc 5.2e-10 
     co2 1.9e-09 

 Growth Rate 

     cyano 1.67e-05 
     ecw 6e-05 

 Ks 

     cyano 0.00035 0.0002 0.01 0.000138 
     ecw 0 0.001 3.6 0.05 

 Yield 

     cyano 0.55 
     ecw 0.43 

 Maintenance 

     cyano 0 
     ecw 9.5e-07 

 Decay 

     cyano 0 
     ecw 0 



