 NUFEB Simulation

     50 atoms 
     2 atom types 
     4 nutrients 

  0.0e-4   1.00e-04  xlo xhi 
  0.0e-4   1.00e-04  ylo yhi 
  0.0e-4   5.00e-05  zlo zhi 

 Atoms 

     1 1 1.44e-06  370 2.11e-05 9.05e-05 4.04e-05 1.44e-06 
     2 1 1.48e-06  370 8.39e-05 3.44e-05 1.01e-05 1.48e-06 
     3 1 1.42e-06  370 4.32e-06 1.21e-05 1.44e-05 1.42e-06 
     4 1 1.48e-06  370 4.40e-05 9.52e-05 1.70e-05 1.48e-06 
     5 1 1.60e-06  370 2.50e-06 5.51e-05 2.45e-06 1.60e-06 
     6 1 1.91e-06  370 3.45e-06 6.90e-05 2.71e-05 1.91e-06 
     7 1 1.77e-06  370 2.66e-05 5.66e-05 4.39e-05 1.77e-06 
     8 1 1.80e-06  370 3.31e-05 6.56e-05 1.93e-05 1.80e-06 
     9 1 1.63e-06  370 5.30e-05 9.20e-05 2.95e-05 1.63e-06 
     10 1 1.37e-06  370 7.00e-05 1.08e-05 1.55e-06 1.37e-06 
     11 1 1.70e-06  370 7.88e-05 1.91e-05 4.78e-05 1.70e-06 
     12 1 1.40e-06  370 9.35e-05 1.49e-05 3.17e-05 1.40e-06 
     13 1 1.73e-06  370 9.14e-05 3.41e-05 2.22e-05 1.73e-06 
     14 1 1.81e-06  370 6.29e-05 7.20e-06 6.66e-06 1.81e-06 
     15 1 1.66e-06  370 7.17e-05 4.95e-05 2.77e-05 1.66e-06 
     16 1 1.39e-06  370 9.04e-06 8.40e-05 4.71e-05 1.39e-06 
     17 1 1.42e-06  370 3.88e-05 7.46e-05 7.60e-06 1.42e-06 
     18 1 1.56e-06  370 1.47e-05 7.36e-06 4.50e-05 1.56e-06 
     19 1 1.41e-06  370 6.82e-05 6.30e-05 2.19e-06 1.41e-06 
     20 1 1.60e-06  370 2.37e-05 7.97e-05 3.88e-05 1.60e-06 
     21 1 1.43e-06  370 2.67e-05 4.79e-05 3.68e-05 1.43e-06 
     22 1 1.79e-06  370 5.51e-05 1.19e-05 3.01e-05 1.79e-06 
     23 1 1.80e-06  370 4.68e-05 8.68e-06 3.82e-05 1.80e-06 
     24 1 1.76e-06  370 1.70e-05 9.35e-05 1.80e-05 1.76e-06 
     25 1 1.82e-06  370 7.96e-05 2.22e-05 3.71e-05 1.82e-06 
     26 1 1.53e-06  370 2.20e-05 8.95e-05 2.52e-05 1.53e-06 
     27 1 1.70e-06  370 3.74e-05 3.43e-05 1.07e-05 1.70e-06 
     28 1 1.61e-06  370 5.07e-05 6.81e-06 4.82e-05 1.61e-06 
     29 1 1.64e-06  370 1.86e-05 7.82e-05 3.29e-05 1.64e-06 
     30 1 1.87e-06  370 7.97e-05 9.44e-05 3.97e-05 1.87e-06 
     31 1 1.82e-06  370 5.11e-05 4.82e-05 3.45e-05 1.82e-06 
     32 1 1.73e-06  370 5.53e-05 1.74e-05 2.39e-05 1.73e-06 
     33 1 1.51e-06  370 2.56e-05 5.29e-05 1.63e-05 1.51e-06 
     34 1 1.94e-06  370 7.13e-05 4.72e-05 3.82e-05 1.94e-06 
     35 1 1.81e-06  370 7.75e-06 6.68e-05 2.73e-05 1.81e-06 
     36 1 1.67e-06  370 6.86e-05 5.78e-05 3.52e-05 1.67e-06 
     37 1 1.77e-06  370 2.92e-05 3.30e-05 3.38e-06 1.77e-06 
     38 1 1.64e-06  370 6.06e-05 4.22e-06 3.26e-05 1.64e-06 
     39 1 1.84e-06  370 4.79e-05 6.43e-05 1.40e-05 1.84e-06 
     40 1 1.42e-06  370 4.99e-05 5.19e-05 2.58e-05 1.42e-06 
     41 1 1.41e-06  370 6.64e-05 9.59e-05 1.90e-05 1.41e-06 
     42 1 1.70e-06  370 1.66e-05 5.38e-05 3.50e-05 1.70e-06 
     43 1 1.55e-06  370 9.19e-05 8.12e-05 2.67e-05 1.55e-06 
     44 1 1.63e-06  370 1.33e-05 2.24e-05 4.61e-05 1.63e-06 
     45 1 1.57e-06  370 7.60e-05 4.97e-05 3.66e-05 1.57e-06 
     46 1 1.91e-06  370 7.49e-05 8.01e-05 3.56e-05 1.91e-06 
     47 1 1.68e-06  370 6.14e-05 4.76e-05 3.64e-05 1.68e-06 
     48 1 1.73e-06  370 6.12e-05 8.07e-05 3.06e-05 1.73e-06 
     49 1 1.59e-06  370 2.92e-05 2.61e-05 1.83e-05 1.59e-06 
     50 1 1.39e-06  370 2.24e-05 4.79e-05 4.78e-05 1.39e-06 

 Nutrients 

     1 sub g nn nn nn 1.00e-01 1.00e-01 
     2 o2 l nn nn nd 9.00e-03 9.00e-03 
     3 suc l nn nn nn 3.42e-20 3.42e-20 
     4 co2 l nn nn nd 2.99e-02 2.99e-02 

 Type Name 

     1 cyano  
     2 ecw  

 Diffusion Coeffs 

     sub 0 
     o2 2.3e-09 
     suc 5.2e-10 
     co2 1.9e-09 

 Growth Rate 

     cyano 2.047e-05 
     ecw 6.71e-05 

 Ks 

     cyano 0.00035 0.0002 0.01 0.000138 
     ecw 0 0.001 3.6 0.05 

 Yield 

     cyano 0.55 
     ecw 0.43 

 Maintenance 

     cyano 0 
     ecw 9.5e-07 

 Decay 

     cyano 0 
     ecw 0 



