ITEM: TIMESTEP
0
ITEM: NUMBER OF ATOMS
50
ITEM: BOX BOUNDS ff ff ff
0.0000000000000000e+00 1.0000000000000000e-04
0.0000000000000000e+00 1.0000000000000000e-04
0.0000000000000000e+00 5.0000000000000002e-05
ITEM: ATOMS id type diameter x y z 
37 1 1.77e-06 2.92e-05 3.3e-05 3.38e-06 
27 1 1.7e-06 3.74e-05 3.43e-05 1.07e-05 
3 1 1.42e-06 4.32e-06 1.21e-05 1.44e-05 
49 1 1.59e-06 2.92e-05 2.61e-05 1.83e-05 
21 1 1.43e-06 2.67e-05 4.79e-05 3.68e-05 
23 1 1.8e-06 4.68e-05 8.68e-06 3.82e-05 
18 1 1.56e-06 1.47e-05 7.36e-06 4.5e-05 
44 1 1.63e-06 1.33e-05 2.24e-05 4.61e-05 
50 1 1.39e-06 2.24e-05 4.79e-05 4.78e-05 
5 1 1.6e-06 2.5e-06 5.51e-05 2.45e-06 
17 1 1.42e-06 3.88e-05 7.46e-05 7.6e-06 
39 1 1.84e-06 4.79e-05 6.43e-05 1.4e-05 
33 1 1.51e-06 2.56e-05 5.29e-05 1.63e-05 
4 1 1.48e-06 4.4e-05 9.52e-05 1.7e-05 
24 1 1.76e-06 1.7e-05 9.35e-05 1.8e-05 
8 1 1.8e-06 3.31e-05 6.56e-05 1.93e-05 
26 1 1.53e-06 2.2e-05 8.95e-05 2.52e-05 
40 1 1.42e-06 4.99e-05 5.19e-05 2.58e-05 
35 1 1.81e-06 7.75e-06 6.68e-05 2.73e-05 
6 1 1.91e-06 3.45e-06 6.9e-05 2.71e-05 
29 1 1.64e-06 1.86e-05 7.82e-05 3.29e-05 
42 1 1.7e-06 1.66e-05 5.38e-05 3.5e-05 
20 1 1.6e-06 2.37e-05 7.97e-05 3.88e-05 
1 1 1.44e-06 2.11e-05 9.05e-05 4.04e-05 
7 1 1.77e-06 2.66e-05 5.66e-05 4.39e-05 
16 1 1.39e-06 9.04e-06 8.4e-05 4.71e-05 
10 1 1.37e-06 7e-05 1.08e-05 1.55e-06 
14 1 1.81e-06 6.29e-05 7.2e-06 6.66e-06 
2 1 1.48e-06 8.39e-05 3.44e-05 1.01e-05 
13 1 1.73e-06 9.14e-05 3.41e-05 2.22e-05 
32 1 1.73e-06 5.53e-05 1.74e-05 2.39e-05 
15 1 1.66e-06 7.17e-05 4.95e-05 2.77e-05 
22 1 1.79e-06 5.51e-05 1.19e-05 3.01e-05 
12 1 1.4e-06 9.35e-05 1.49e-05 3.17e-05 
38 1 1.64e-06 6.06e-05 4.22e-06 3.26e-05 
31 1 1.82e-06 5.11e-05 4.82e-05 3.45e-05 
47 1 1.68e-06 6.14e-05 4.76e-05 3.64e-05 
45 1 1.57e-06 7.6e-05 4.97e-05 3.66e-05 
25 1 1.82e-06 7.96e-05 2.22e-05 3.71e-05 
34 1 1.94e-06 7.13e-05 4.72e-05 3.82e-05 
11 1 1.7e-06 7.88e-05 1.91e-05 4.78e-05 
28 1 1.61e-06 5.07e-05 6.81e-06 4.82e-05 
19 1 1.41e-06 6.82e-05 6.3e-05 2.19e-06 
41 1 1.41e-06 6.64e-05 9.59e-05 1.9e-05 
43 1 1.55e-06 9.19e-05 8.12e-05 2.67e-05 
9 1 1.63e-06 5.3e-05 9.2e-05 2.95e-05 
48 1 1.73e-06 6.12e-05 8.07e-05 3.06e-05 
36 1 1.67e-06 6.86e-05 5.78e-05 3.52e-05 
46 1 1.91e-06 7.49e-05 8.01e-05 3.56e-05 
30 1 1.87e-06 7.97e-05 9.44e-05 3.97e-05 
ITEM: TIMESTEP
100
ITEM: NUMBER OF ATOMS
50
ITEM: BOX BOUNDS ff ff ff
0.0000000000000000e+00 1.0000000000000000e-04
0.0000000000000000e+00 1.0000000000000000e-04
0.0000000000000000e+00 5.0000000000000002e-05
ITEM: ATOMS id type diameter x y z 
37 1 1.78095e-06 2.92e-05 3.3e-05 3.38e-06 
27 1 1.71052e-06 3.74e-05 3.43e-05 1.07e-05 
3 1 1.42879e-06 4.32e-06 1.21e-05 1.44e-05 
49 1 1.59984e-06 2.92e-05 2.61e-05 1.83e-05 
21 1 1.43885e-06 2.67e-05 4.79e-05 3.68e-05 
23 1 1.81114e-06 4.68e-05 8.68e-06 3.82e-05 
18 1 1.56965e-06 1.47e-05 7.36e-06 4.5e-05 
44 1 1.64009e-06 1.33e-05 2.24e-05 4.61e-05 
50 1 1.3986e-06 2.24e-05 4.79e-05 4.78e-05 
5 1 1.6099e-06 2.5e-06 5.51e-05 2.45e-06 
17 1 1.42879e-06 3.88e-05 7.46e-05 7.6e-06 
39 1 1.85139e-06 4.79e-05 6.43e-05 1.4e-05 
33 1 1.51934e-06 2.56e-05 5.29e-05 1.63e-05 
4 1 1.48916e-06 4.4e-05 9.52e-05 1.7e-05 
24 1 1.77089e-06 1.7e-05 9.35e-05 1.8e-05 
8 1 1.81114e-06 3.31e-05 6.56e-05 1.93e-05 
26 1 1.53947e-06 2.2e-05 8.95e-05 2.52e-05 
40 1 1.42879e-06 4.99e-05 5.19e-05 2.58e-05 
35 1 1.8212e-06 7.75e-06 6.68e-05 2.73e-05 
6 1 1.92182e-06 3.45e-06 6.9e-05 2.71e-05 
29 1 1.65015e-06 1.86e-05 7.82e-05 3.29e-05 
42 1 1.71052e-06 1.66e-05 5.38e-05 3.5e-05 
20 1 1.6099e-06 2.37e-05 7.97e-05 3.88e-05 
1 1 1.44891e-06 2.11e-05 9.05e-05 4.04e-05 
7 1 1.78095e-06 2.66e-05 5.66e-05 4.39e-05 
16 1 1.3986e-06 9.04e-06 8.4e-05 4.71e-05 
10 1 1.37848e-06 7e-05 1.08e-05 1.55e-06 
14 1 1.8212e-06 6.29e-05 7.2e-06 6.66e-06 
2 1 1.48916e-06 8.39e-05 3.44e-05 1.01e-05 
13 1 1.74071e-06 9.14e-05 3.41e-05 2.22e-05 
32 1 1.74071e-06 5.53e-05 1.74e-05 2.39e-05 
15 1 1.67027e-06 7.17e-05 4.95e-05 2.77e-05 
22 1 1.80108e-06 5.51e-05 1.19e-05 3.01e-05 
12 1 1.40866e-06 9.35e-05 1.49e-05 3.17e-05 
38 1 1.65015e-06 6.06e-05 4.22e-06 3.26e-05 
31 1 1.83126e-06 5.11e-05 4.82e-05 3.45e-05 
47 1 1.6904e-06 6.14e-05 4.76e-05 3.64e-05 
45 1 1.57972e-06 7.6e-05 4.97e-05 3.66e-05 
25 1 1.83126e-06 7.96e-05 2.22e-05 3.71e-05 
34 1 1.95201e-06 7.13e-05 4.72e-05 3.82e-05 
11 1 1.71052e-06 7.88e-05 1.91e-05 4.78e-05 
28 1 1.61996e-06 5.07e-05 6.81e-06 4.82e-05 
19 1 1.41873e-06 6.82e-05 6.3e-05 2.19e-06 
41 1 1.41873e-06 6.64e-05 9.59e-05 1.9e-05 
43 1 1.55959e-06 9.19e-05 8.12e-05 2.67e-05 
9 1 1.64009e-06 5.3e-05 9.2e-05 2.95e-05 
48 1 1.74071e-06 6.12e-05 8.07e-05 3.06e-05 
36 1 1.68033e-06 6.86e-05 5.78e-05 3.52e-05 
46 1 1.92182e-06 7.49e-05 8.01e-05 3.56e-05 
30 1 1.88157e-06 7.97e-05 9.44e-05 3.97e-05 
ITEM: TIMESTEP
200
ITEM: NUMBER OF ATOMS
50
ITEM: BOX BOUNDS ff ff ff
0.0000000000000000e+00 1.0000000000000000e-04
0.0000000000000000e+00 1.0000000000000000e-04
0.0000000000000000e+00 5.0000000000000002e-05
ITEM: ATOMS id type diameter x y z 
37 1 1.79197e-06 2.92e-05 3.3e-05 3.38e-06 
27 1 1.72111e-06 3.74e-05 3.43e-05 1.07e-05 
3 1 1.43763e-06 4.32e-06 1.21e-05 1.44e-05 
49 1 1.60974e-06 2.92e-05 2.61e-05 1.83e-05 
21 1 1.44775e-06 2.67e-05 4.79e-05 3.68e-05 
23 1 1.82235e-06 4.68e-05 8.68e-06 3.82e-05 
18 1 1.57937e-06 1.47e-05 7.36e-06 4.5e-05 
44 1 1.65024e-06 1.33e-05 2.24e-05 4.61e-05 
50 1 1.40726e-06 2.24e-05 4.79e-05 4.78e-05 
5 1 1.61986e-06 2.5e-06 5.51e-05 2.45e-06 
17 1 1.43763e-06 3.88e-05 7.46e-05 7.6e-06 
39 1 1.86284e-06 4.79e-05 6.43e-05 1.4e-05 
33 1 1.52875e-06 2.56e-05 5.29e-05 1.63e-05 
4 1 1.49837e-06 4.4e-05 9.52e-05 1.7e-05 
24 1 1.78185e-06 1.7e-05 9.35e-05 1.8e-05 
8 1 1.82235e-06 3.31e-05 6.56e-05 1.93e-05 
26 1 1.549e-06 2.2e-05 8.95e-05 2.52e-05 
40 1 1.43763e-06 4.99e-05 5.19e-05 2.58e-05 
35 1 1.83247e-06 7.75e-06 6.68e-05 2.73e-05 
6 1 1.93371e-06 3.45e-06 6.9e-05 2.71e-05 
29 1 1.66036e-06 1.86e-05 7.82e-05 3.29e-05 
42 1 1.72111e-06 1.66e-05 5.38e-05 3.5e-05 
20 1 1.61986e-06 2.37e-05 7.97e-05 3.88e-05 
1 1 1.45788e-06 2.11e-05 9.05e-05 4.04e-05 
7 1 1.79197e-06 2.66e-05 5.66e-05 4.39e-05 
16 1 1.40726e-06 9.04e-06 8.4e-05 4.71e-05 
10 1 1.38701e-06 7e-05 1.08e-05 1.55e-06 
14 1 1.83247e-06 6.29e-05 7.2e-06 6.66e-06 
2 1 1.49837e-06 8.39e-05 3.44e-05 1.01e-05 
13 1 1.75148e-06 9.14e-05 3.41e-05 2.22e-05 
32 1 1.75148e-06 5.53e-05 1.74e-05 2.39e-05 
15 1 1.68061e-06 7.17e-05 4.95e-05 2.77e-05 
22 1 1.81222e-06 5.51e-05 1.19e-05 3.01e-05 
12 1 1.41738e-06 9.35e-05 1.49e-05 3.17e-05 
38 1 1.66036e-06 6.06e-05 4.22e-06 3.26e-05 
31 1 1.8426e-06 5.11e-05 4.82e-05 3.45e-05 
47 1 1.70086e-06 6.14e-05 4.76e-05 3.64e-05 
45 1 1.58949e-06 7.6e-05 4.97e-05 3.66e-05 
25 1 1.8426e-06 7.96e-05 2.22e-05 3.71e-05 
34 1 1.96409e-06 7.13e-05 4.72e-05 3.82e-05 
11 1 1.72111e-06 7.88e-05 1.91e-05 4.78e-05 
28 1 1.62999e-06 5.07e-05 6.81e-06 4.82e-05 
19 1 1.42751e-06 6.82e-05 6.3e-05 2.19e-06 
41 1 1.42751e-06 6.64e-05 9.59e-05 1.9e-05 
43 1 1.56924e-06 9.19e-05 8.12e-05 2.67e-05 
9 1 1.65024e-06 5.3e-05 9.2e-05 2.95e-05 
48 1 1.75148e-06 6.12e-05 8.07e-05 3.06e-05 
36 1 1.69073e-06 6.86e-05 5.78e-05 3.52e-05 
46 1 1.93371e-06 7.49e-05 8.01e-05 3.56e-05 
30 1 1.89322e-06 7.97e-05 9.44e-05 3.97e-05 
ITEM: TIMESTEP
300
ITEM: NUMBER OF ATOMS
51
ITEM: BOX BOUNDS ff ff ff
0.0000000000000000e+00 1.0000000000000000e-04
0.0000000000000000e+00 1.0000000000000000e-04
0.0000000000000000e+00 5.0000000000000002e-05
ITEM: ATOMS id type diameter x y z 
37 1 1.80306e-06 2.92e-05 3.3e-05 3.38e-06 
27 1 1.73176e-06 3.74e-05 3.43e-05 1.07e-05 
3 1 1.44653e-06 4.32e-06 1.21e-05 1.44e-05 
49 1 1.6197e-06 2.92e-05 2.61e-05 1.83e-05 
21 1 1.45671e-06 2.67e-05 4.79e-05 3.68e-05 
23 1 1.83362e-06 4.68e-05 8.68e-06 3.82e-05 
18 1 1.58914e-06 1.47e-05 7.36e-06 4.5e-05 
44 1 1.66045e-06 1.33e-05 2.24e-05 4.61e-05 
50 1 1.41597e-06 2.24e-05 4.79e-05 4.78e-05 
5 1 1.62989e-06 2.5e-06 5.51e-05 2.45e-06 
17 1 1.44653e-06 3.88e-05 7.46e-05 7.6e-06 
39 1 1.87437e-06 4.79e-05 6.43e-05 1.4e-05 
33 1 1.53821e-06 2.56e-05 5.29e-05 1.63e-05 
4 1 1.50765e-06 4.4e-05 9.52e-05 1.7e-05 
24 1 1.79288e-06 1.7e-05 9.35e-05 1.8e-05 
8 1 1.83362e-06 3.31e-05 6.56e-05 1.93e-05 
26 1 1.55858e-06 2.2e-05 8.95e-05 2.52e-05 
40 1 1.44653e-06 4.99e-05 5.19e-05 2.58e-05 
35 1 1.84381e-06 7.75e-06 6.68e-05 2.73e-05 
6 1 1.94568e-06 3.45e-06 6.9e-05 2.71e-05 
29 1 1.67064e-06 1.86e-05 7.82e-05 3.29e-05 
42 1 1.73176e-06 1.66e-05 5.38e-05 3.5e-05 
20 1 1.62989e-06 2.37e-05 7.97e-05 3.88e-05 
1 1 1.4669e-06 2.11e-05 9.05e-05 4.04e-05 
7 1 1.80306e-06 2.66e-05 5.66e-05 4.39e-05 
16 1 1.41597e-06 9.04e-06 8.4e-05 4.71e-05 
10 1 1.39559e-06 7e-05 1.08e-05 1.55e-06 
14 1 1.84381e-06 6.29e-05 7.2e-06 6.66e-06 
2 1 1.50765e-06 8.39e-05 3.44e-05 1.01e-05 
13 1 1.76232e-06 9.14e-05 3.41e-05 2.22e-05 
32 1 1.76232e-06 5.53e-05 1.74e-05 2.39e-05 
15 1 1.69101e-06 7.17e-05 4.95e-05 2.77e-05 
22 1 1.82344e-06 5.51e-05 1.19e-05 3.01e-05 
12 1 1.42615e-06 9.35e-05 1.49e-05 3.17e-05 
38 1 1.67064e-06 6.06e-05 4.22e-06 3.26e-05 
31 1 1.854e-06 5.11e-05 4.82e-05 3.45e-05 
47 1 1.71138e-06 6.14e-05 4.76e-05 3.64e-05 
45 1 1.59933e-06 7.6e-05 4.97e-05 3.66e-05 
25 1 1.854e-06 7.96e-05 2.22e-05 3.71e-05 
34 1 1.58224e-06 7.12598e-05 4.78543e-05 3.77588e-05 
11 1 1.73176e-06 7.88e-05 1.91e-05 4.78e-05 
28 1 1.64008e-06 5.07e-05 6.81e-06 4.82e-05 
51 1 1.5546e-06 7.13395e-05 4.65571e-05 3.86335e-05 
19 1 1.43634e-06 6.82e-05 6.3e-05 2.19e-06 
41 1 1.43634e-06 6.64e-05 9.59e-05 1.9e-05 
43 1 1.57895e-06 9.19e-05 8.12e-05 2.67e-05 
9 1 1.66045e-06 5.3e-05 9.2e-05 2.95e-05 
48 1 1.76232e-06 6.12e-05 8.07e-05 3.06e-05 
36 1 1.7012e-06 6.86e-05 5.78e-05 3.52e-05 
46 1 1.94568e-06 7.49e-05 8.01e-05 3.56e-05 
30 1 1.90493e-06 7.97e-05 9.44e-05 3.97e-05 
ITEM: TIMESTEP
400
ITEM: NUMBER OF ATOMS
51
ITEM: BOX BOUNDS ff ff ff
0.0000000000000000e+00 1.0000000000000000e-04
0.0000000000000000e+00 1.0000000000000000e-04
0.0000000000000000e+00 5.0000000000000002e-05
ITEM: ATOMS id type diameter x y z 
37 1 1.81422e-06 2.92e-05 3.3e-05 3.38e-06 
27 1 1.74247e-06 3.74e-05 3.43e-05 1.07e-05 
3 1 1.45548e-06 4.32e-06 1.21e-05 1.44e-05 
49 1 1.62973e-06 2.92e-05 2.61e-05 1.83e-05 
21 1 1.46573e-06 2.67e-05 4.79e-05 3.68e-05 
23 1 1.84497e-06 4.68e-05 8.68e-06 3.82e-05 
18 1 1.59898e-06 1.47e-05 7.36e-06 4.5e-05 
44 1 1.67072e-06 1.33e-05 2.24e-05 4.61e-05 
50 1 1.42473e-06 2.24e-05 4.79e-05 4.78e-05 
5 1 1.63998e-06 2.5e-06 5.51e-05 2.45e-06 
17 1 1.45548e-06 3.88e-05 7.46e-05 7.6e-06 
39 1 1.88597e-06 4.79e-05 6.43e-05 1.4e-05 
33 1 1.54773e-06 2.56e-05 5.29e-05 1.63e-05 
4 1 1.51698e-06 4.4e-05 9.52e-05 1.7e-05 
24 1 1.80397e-06 1.7e-05 9.35e-05 1.8e-05 
8 1 1.84497e-06 3.31e-05 6.56e-05 1.93e-05 
26 1 1.56823e-06 2.2e-05 8.95e-05 2.52e-05 
40 1 1.45548e-06 4.99e-05 5.19e-05 2.58e-05 
35 1 1.85522e-06 7.75e-06 6.68e-05 2.73e-05 
6 1 1.95772e-06 3.45e-06 6.9e-05 2.71e-05 
29 1 1.68097e-06 1.86e-05 7.82e-05 3.29e-05 
42 1 1.74247e-06 1.66e-05 5.38e-05 3.5e-05 
20 1 1.63998e-06 2.37e-05 7.97e-05 3.88e-05 
1 1 1.47598e-06 2.11e-05 9.05e-05 4.04e-05 
7 1 1.81422e-06 2.66e-05 5.66e-05 4.39e-05 
16 1 1.42473e-06 9.04e-06 8.4e-05 4.71e-05 
10 1 1.40423e-06 7e-05 1.08e-05 1.55e-06 
14 1 1.85522e-06 6.29e-05 7.2e-06 6.66e-06 
2 1 1.51698e-06 8.39e-05 3.44e-05 1.01e-05 
13 1 1.77322e-06 9.14e-05 3.41e-05 2.22e-05 
32 1 1.77322e-06 5.53e-05 1.74e-05 2.39e-05 
15 1 1.70147e-06 7.17e-05 4.95e-05 2.77e-05 
22 1 1.83472e-06 5.51e-05 1.19e-05 3.01e-05 
12 1 1.43498e-06 9.35e-05 1.49e-05 3.17e-05 
38 1 1.68097e-06 6.06e-05 4.22e-06 3.26e-05 
31 1 1.86547e-06 5.11e-05 4.82e-05 3.45e-05 
47 1 1.72197e-06 6.14e-05 4.76e-05 3.64e-05 
45 1 1.60923e-06 7.6e-05 4.97e-05 3.66e-05 
25 1 1.86547e-06 7.96e-05 2.22e-05 3.71e-05 
34 1 1.59204e-06 7.12598e-05 4.78543e-05 3.77588e-05 
11 1 1.74247e-06 7.88e-05 1.91e-05 4.78e-05 
28 1 1.65023e-06 5.07e-05 6.81e-06 4.82e-05 
51 1 1.56422e-06 7.13395e-05 4.65571e-05 3.86335e-05 
19 1 1.44523e-06 6.82e-05 6.3e-05 2.19e-06 
41 1 1.44523e-06 6.64e-05 9.59e-05 1.9e-05 
43 1 1.58873e-06 9.19e-05 8.12e-05 2.67e-05 
9 1 1.67072e-06 5.3e-05 9.2e-05 2.95e-05 
48 1 1.77322e-06 6.12e-05 8.07e-05 3.06e-05 
36 1 1.71172e-06 6.86e-05 5.78e-05 3.52e-05 
46 1 1.95772e-06 7.49e-05 8.01e-05 3.56e-05 
30 1 1.91672e-06 7.97e-05 9.44e-05 3.97e-05 
ITEM: TIMESTEP
500
ITEM: NUMBER OF ATOMS
51
ITEM: BOX BOUNDS ff ff ff
0.0000000000000000e+00 1.0000000000000000e-04
0.0000000000000000e+00 1.0000000000000000e-04
0.0000000000000000e+00 5.0000000000000002e-05
ITEM: ATOMS id type diameter x y z 
37 1 1.82545e-06 2.92e-05 3.3e-05 3.38e-06 
27 1 1.75326e-06 3.74e-05 3.43e-05 1.07e-05 
3 1 1.46449e-06 4.32e-06 1.21e-05 1.44e-05 
49 1 1.63981e-06 2.92e-05 2.61e-05 1.83e-05 
21 1 1.4748e-06 2.67e-05 4.79e-05 3.68e-05 
23 1 1.85639e-06 4.68e-05 8.68e-06 3.82e-05 
18 1 1.60887e-06 1.47e-05 7.36e-06 4.5e-05 
44 1 1.68106e-06 1.33e-05 2.24e-05 4.61e-05 
50 1 1.43355e-06 2.24e-05 4.79e-05 4.78e-05 
5 1 1.65012e-06 2.5e-06 5.51e-05 2.45e-06 
17 1 1.46449e-06 3.88e-05 7.46e-05 7.6e-06 
39 1 1.89764e-06 4.79e-05 6.43e-05 1.4e-05 
33 1 1.5573e-06 2.56e-05 5.29e-05 1.63e-05 
4 1 1.52636e-06 4.4e-05 9.52e-05 1.7e-05 
24 1 1.81514e-06 1.7e-05 9.35e-05 1.8e-05 
8 1 1.85639e-06 3.31e-05 6.56e-05 1.93e-05 
26 1 1.57793e-06 2.2e-05 8.95e-05 2.52e-05 
40 1 1.46449e-06 4.99e-05 5.19e-05 2.58e-05 
35 1 1.8667e-06 7.75e-06 6.68e-05 2.73e-05 
6 1 1.96984e-06 3.45e-06 6.9e-05 2.71e-05 
29 1 1.69138e-06 1.86e-05 7.82e-05 3.29e-05 
42 1 1.75326e-06 1.66e-05 5.38e-05 3.5e-05 
20 1 1.65012e-06 2.37e-05 7.97e-05 3.88e-05 
1 1 1.48511e-06 2.11e-05 9.05e-05 4.04e-05 
7 1 1.82545e-06 2.66e-05 5.66e-05 4.39e-05 
16 1 1.43355e-06 9.04e-06 8.4e-05 4.71e-05 
10 1 1.41292e-06 7e-05 1.08e-05 1.55e-06 
14 1 1.8667e-06 6.29e-05 7.2e-06 6.66e-06 
2 1 1.52636e-06 8.39e-05 3.44e-05 1.01e-05 
13 1 1.7842e-06 9.14e-05 3.41e-05 2.22e-05 
32 1 1.7842e-06 5.53e-05 1.74e-05 2.39e-05 
15 1 1.712e-06 7.17e-05 4.95e-05 2.77e-05 
22 1 1.84608e-06 5.51e-05 1.19e-05 3.01e-05 
12 1 1.44386e-06 9.35e-05 1.49e-05 3.17e-05 
38 1 1.69138e-06 6.06e-05 4.22e-06 3.26e-05 
31 1 1.87702e-06 5.11e-05 4.82e-05 3.45e-05 
47 1 1.73263e-06 6.14e-05 4.76e-05 3.64e-05 
45 1 1.61918e-06 7.6e-05 4.97e-05 3.66e-05 
25 1 1.87702e-06 7.96e-05 2.22e-05 3.71e-05 
34 1 1.60189e-06 7.12598e-05 4.78543e-05 3.77588e-05 
11 1 1.75326e-06 7.88e-05 1.91e-05 4.78e-05 
28 1 1.66044e-06 5.07e-05 6.81e-06 4.82e-05 
51 1 1.5739e-06 7.13395e-05 4.65571e-05 3.86335e-05 
19 1 1.45417e-06 6.82e-05 6.3e-05 2.19e-06 
41 1 1.45417e-06 6.64e-05 9.59e-05 1.9e-05 
43 1 1.59856e-06 9.19e-05 8.12e-05 2.67e-05 
9 1 1.68106e-06 5.3e-05 9.2e-05 2.95e-05 
48 1 1.7842e-06 6.12e-05 8.07e-05 3.06e-05 
36 1 1.72232e-06 6.86e-05 5.78e-05 3.52e-05 
46 1 1.96984e-06 7.49e-05 8.01e-05 3.56e-05 
30 1 1.92858e-06 7.97e-05 9.44e-05 3.97e-05 
ITEM: TIMESTEP
600
ITEM: NUMBER OF ATOMS
53
ITEM: BOX BOUNDS ff ff ff
0.0000000000000000e+00 1.0000000000000000e-04
0.0000000000000000e+00 1.0000000000000000e-04
0.0000000000000000e+00 5.0000000000000002e-05
ITEM: ATOMS id type diameter x y z 
37 1 1.83675e-06 2.92e-05 3.3e-05 3.38e-06 
27 1 1.76411e-06 3.74e-05 3.43e-05 1.07e-05 
3 1 1.47355e-06 4.32e-06 1.21e-05 1.44e-05 
49 1 1.64996e-06 2.92e-05 2.61e-05 1.83e-05 
21 1 1.48393e-06 2.67e-05 4.79e-05 3.68e-05 
23 1 1.86788e-06 4.68e-05 8.68e-06 3.82e-05 
18 1 1.61883e-06 1.47e-05 7.36e-06 4.5e-05 
44 1 1.69147e-06 1.33e-05 2.24e-05 4.61e-05 
50 1 1.44242e-06 2.24e-05 4.79e-05 4.78e-05 
5 1 1.66034e-06 2.5e-06 5.51e-05 2.45e-06 
17 1 1.47355e-06 3.88e-05 7.46e-05 7.6e-06 
39 1 1.90939e-06 4.79e-05 6.43e-05 1.4e-05 
33 1 1.56694e-06 2.56e-05 5.29e-05 1.63e-05 
4 1 1.53581e-06 4.4e-05 9.52e-05 1.7e-05 
24 1 1.82637e-06 1.7e-05 9.35e-05 1.8e-05 
8 1 1.86788e-06 3.31e-05 6.56e-05 1.93e-05 
26 1 1.5877e-06 2.2e-05 8.95e-05 2.52e-05 
40 1 1.47355e-06 4.99e-05 5.19e-05 2.58e-05 
35 1 1.87825e-06 7.75e-06 6.68e-05 2.73e-05 
6 1 1.58688e-06 3.40973e-06 6.96562e-05 2.66575e-05 
29 1 1.70184e-06 1.86e-05 7.82e-05 3.29e-05 
42 1 1.76411e-06 1.66e-05 5.38e-05 3.5e-05 
20 1 1.66034e-06 2.37e-05 7.97e-05 3.88e-05 
1 1 1.4943e-06 2.11e-05 9.05e-05 4.04e-05 
7 1 1.83675e-06 2.66e-05 5.66e-05 4.39e-05 
16 1 1.44242e-06 9.04e-06 8.4e-05 4.71e-05 
52 1 1.55915e-06 3.48957e-06 6.83552e-05 2.75347e-05 
10 1 1.42166e-06 7e-05 1.08e-05 1.55e-06 
14 1 1.87825e-06 6.29e-05 7.2e-06 6.66e-06 
2 1 1.53581e-06 8.39e-05 3.44e-05 1.01e-05 
13 1 1.79524e-06 9.14e-05 3.41e-05 2.22e-05 
32 1 1.79524e-06 5.53e-05 1.74e-05 2.39e-05 
15 1 1.7226e-06 7.17e-05 4.95e-05 2.77e-05 
22 1 1.8575e-06 5.51e-05 1.19e-05 3.01e-05 
12 1 1.45279e-06 9.35e-05 1.49e-05 3.17e-05 
38 1 1.70184e-06 6.06e-05 4.22e-06 3.26e-05 
31 1 1.88863e-06 5.11e-05 4.82e-05 3.45e-05 
47 1 1.74335e-06 6.14e-05 4.76e-05 3.64e-05 
45 1 1.6292e-06 7.6e-05 4.97e-05 3.66e-05 
25 1 1.88863e-06 7.96e-05 2.22e-05 3.71e-05 
34 1 1.6118e-06 7.12588e-05 4.78709e-05 3.77476e-05 
11 1 1.76411e-06 7.88e-05 1.91e-05 4.78e-05 
28 1 1.67071e-06 5.07e-05 6.81e-06 4.82e-05 
51 1 1.58364e-06 7.13405e-05 4.65406e-05 3.86446e-05 
19 1 1.46317e-06 6.82e-05 6.3e-05 2.19e-06 
41 1 1.46317e-06 6.64e-05 9.59e-05 1.9e-05 
43 1 1.60845e-06 9.19e-05 8.12e-05 2.67e-05 
9 1 1.69147e-06 5.3e-05 9.2e-05 2.95e-05 
48 1 1.79524e-06 6.12e-05 8.07e-05 3.06e-05 
36 1 1.73298e-06 6.86e-05 5.78e-05 3.52e-05 
46 1 1.58688e-06 7.48597e-05 8.07562e-05 3.51575e-05 
30 1 1.94052e-06 7.97e-05 9.44e-05 3.97e-05 
53 1 1.55915e-06 7.49396e-05 7.94552e-05 3.60347e-05 
ITEM: TIMESTEP
700
ITEM: NUMBER OF ATOMS
53
ITEM: BOX BOUNDS ff ff ff
0.0000000000000000e+00 1.0000000000000000e-04
0.0000000000000000e+00 1.0000000000000000e-04
0.0000000000000000e+00 5.0000000000000002e-05
ITEM: ATOMS id type diameter x y z 
37 1 1.84811e-06 2.92e-05 3.3e-05 3.38e-06 
27 1 1.77502e-06 3.74e-05 3.43e-05 1.07e-05 
3 1 1.48267e-06 4.32e-06 1.21e-05 1.44e-05 
49 1 1.66017e-06 2.92e-05 2.61e-05 1.83e-05 
21 1 1.49311e-06 2.67e-05 4.79e-05 3.68e-05 
23 1 1.87944e-06 4.68e-05 8.68e-06 3.82e-05 
18 1 1.62885e-06 1.47e-05 7.36e-06 4.5e-05 
44 1 1.70193e-06 1.33e-05 2.24e-05 4.61e-05 
50 1 1.45134e-06 2.24e-05 4.79e-05 4.78e-05 
5 1 1.67061e-06 2.5e-06 5.51e-05 2.45e-06 
17 1 1.48267e-06 3.88e-05 7.46e-05 7.6e-06 
39 1 1.9212e-06 4.79e-05 6.43e-05 1.4e-05 
33 1 1.57664e-06 2.56e-05 5.29e-05 1.63e-05 
4 1 1.54531e-06 4.4e-05 9.52e-05 1.7e-05 
24 1 1.83767e-06 1.7e-05 9.35e-05 1.8e-05 
8 1 1.87944e-06 3.31e-05 6.56e-05 1.93e-05 
26 1 1.59752e-06 2.2e-05 8.95e-05 2.52e-05 
40 1 1.48267e-06 4.99e-05 5.19e-05 2.58e-05 
35 1 1.88988e-06 7.75e-06 6.68e-05 2.73e-05 
6 1 1.5967e-06 3.40973e-06 6.96562e-05 2.66575e-05 
29 1 1.71238e-06 1.86e-05 7.82e-05 3.29e-05 
42 1 1.77502e-06 1.66e-05 5.38e-05 3.5e-05 
20 1 1.67061e-06 2.37e-05 7.97e-05 3.88e-05 
1 1 1.50355e-06 2.11e-05 9.05e-05 4.04e-05 
7 1 1.84811e-06 2.66e-05 5.66e-05 4.39e-05 
16 1 1.45134e-06 9.04e-06 8.4e-05 4.71e-05 
52 1 1.5688e-06 3.48957e-06 6.83552e-05 2.75347e-05 
10 1 1.43046e-06 7e-05 1.08e-05 1.55e-06 
14 1 1.88988e-06 6.29e-05 7.2e-06 6.66e-06 
2 1 1.54531e-06 8.39e-05 3.44e-05 1.01e-05 
13 1 1.80635e-06 9.14e-05 3.41e-05 2.22e-05 
32 1 1.80635e-06 5.53e-05 1.74e-05 2.39e-05 
15 1 1.73326e-06 7.17e-05 4.95e-05 2.77e-05 
22 1 1.869e-06 5.51e-05 1.19e-05 3.01e-05 
12 1 1.46178e-06 9.35e-05 1.49e-05 3.17e-05 
38 1 1.71238e-06 6.06e-05 4.22e-06 3.26e-05 
31 1 1.90032e-06 5.11e-05 4.82e-05 3.45e-05 
47 1 1.75414e-06 6.14e-05 4.76e-05 3.64e-05 
45 1 1.63929e-06 7.6e-05 4.97e-05 3.66e-05 
25 1 1.90032e-06 7.96e-05 2.22e-05 3.71e-05 
34 1 1.62178e-06 7.12588e-05 4.78709e-05 3.77476e-05 
11 1 1.77502e-06 7.88e-05 1.91e-05 4.78e-05 
28 1 1.68105e-06 5.07e-05 6.81e-06 4.82e-05 
51 1 1.59344e-06 7.13405e-05 4.65406e-05 3.86446e-05 
19 1 1.47223e-06 6.82e-05 6.3e-05 2.19e-06 
41 1 1.47223e-06 6.64e-05 9.59e-05 1.9e-05 
43 1 1.6184e-06 9.19e-05 8.12e-05 2.67e-05 
9 1 1.70193e-06 5.3e-05 9.2e-05 2.95e-05 
48 1 1.80635e-06 6.12e-05 8.07e-05 3.06e-05 
36 1 1.7437e-06 6.86e-05 5.78e-05 3.52e-05 
46 1 1.5967e-06 7.48597e-05 8.07562e-05 3.51575e-05 
30 1 1.95253e-06 7.97e-05 9.44e-05 3.97e-05 
53 1 1.5688e-06 7.49396e-05 7.94552e-05 3.60347e-05 
ITEM: TIMESTEP
800
ITEM: NUMBER OF ATOMS
53
ITEM: BOX BOUNDS ff ff ff
0.0000000000000000e+00 1.0000000000000000e-04
0.0000000000000000e+00 1.0000000000000000e-04
0.0000000000000000e+00 5.0000000000000002e-05
ITEM: ATOMS id type diameter x y z 
37 1 1.85955e-06 2.92e-05 3.3e-05 3.38e-06 
27 1 1.78601e-06 3.74e-05 3.43e-05 1.07e-05 
3 1 1.49184e-06 4.32e-06 1.21e-05 1.44e-05 
49 1 1.67044e-06 2.92e-05 2.61e-05 1.83e-05 
21 1 1.50235e-06 2.67e-05 4.79e-05 3.68e-05 
23 1 1.89107e-06 4.68e-05 8.68e-06 3.82e-05 
18 1 1.63893e-06 1.47e-05 7.36e-06 4.5e-05 
44 1 1.71247e-06 1.33e-05 2.24e-05 4.61e-05 
50 1 1.46032e-06 2.24e-05 4.79e-05 4.78e-05 
5 1 1.68095e-06 2.5e-06 5.51e-05 2.45e-06 
17 1 1.49184e-06 3.88e-05 7.46e-05 7.6e-06 
39 1 1.93309e-06 4.79e-05 6.43e-05 1.4e-05 
33 1 1.5864e-06 2.56e-05 5.29e-05 1.63e-05 
4 1 1.55488e-06 4.4e-05 9.52e-05 1.7e-05 
24 1 1.84904e-06 1.7e-05 9.35e-05 1.8e-05 
8 1 1.89107e-06 3.31e-05 6.56e-05 1.93e-05 
26 1 1.60741e-06 2.2e-05 8.95e-05 2.52e-05 
40 1 1.49184e-06 4.99e-05 5.19e-05 2.58e-05 
35 1 1.90157e-06 7.75e-06 6.68e-05 2.73e-05 
6 1 1.60658e-06 3.40973e-06 6.96562e-05 2.66575e-05 
29 1 1.72297e-06 1.86e-05 7.82e-05 3.29e-05 
42 1 1.78601e-06 1.66e-05 5.38e-05 3.5e-05 
20 1 1.68095e-06 2.37e-05 7.97e-05 3.88e-05 
1 1 1.51285e-06 2.11e-05 9.05e-05 4.04e-05 
7 1 1.85955e-06 2.66e-05 5.66e-05 4.39e-05 
16 1 1.46032e-06 9.04e-06 8.4e-05 4.71e-05 
52 1 1.57851e-06 3.48957e-06 6.83552e-05 2.75347e-05 
10 1 1.43931e-06 7e-05 1.08e-05 1.55e-06 
14 1 1.90157e-06 6.29e-05 7.2e-06 6.66e-06 
2 1 1.55488e-06 8.39e-05 3.44e-05 1.01e-05 
13 1 1.81753e-06 9.14e-05 3.41e-05 2.22e-05 
32 1 1.81753e-06 5.53e-05 1.74e-05 2.39e-05 
15 1 1.74398e-06 7.17e-05 4.95e-05 2.77e-05 
22 1 1.88056e-06 5.51e-05 1.19e-05 3.01e-05 
12 1 1.47083e-06 9.35e-05 1.49e-05 3.17e-05 
38 1 1.72297e-06 6.06e-05 4.22e-06 3.26e-05 
31 1 1.91208e-06 5.11e-05 4.82e-05 3.45e-05 
47 1 1.765e-06 6.14e-05 4.76e-05 3.64e-05 
45 1 1.64943e-06 7.6e-05 4.97e-05 3.66e-05 
25 1 1.91208e-06 7.96e-05 2.22e-05 3.71e-05 
34 1 1.63181e-06 7.12588e-05 4.78709e-05 3.77476e-05 
11 1 1.78601e-06 7.88e-05 1.91e-05 4.78e-05 
28 1 1.69146e-06 5.07e-05 6.81e-06 4.82e-05 
51 1 1.6033e-06 7.13405e-05 4.65406e-05 3.86446e-05 
19 1 1.48134e-06 6.82e-05 6.3e-05 2.19e-06 
41 1 1.48134e-06 6.64e-05 9.59e-05 1.9e-05 
43 1 1.62842e-06 9.19e-05 8.12e-05 2.67e-05 
9 1 1.71247e-06 5.3e-05 9.2e-05 2.95e-05 
48 1 1.81753e-06 6.12e-05 8.07e-05 3.06e-05 
36 1 1.75449e-06 6.86e-05 5.78e-05 3.52e-05 
46 1 1.60658e-06 7.48597e-05 8.07562e-05 3.51575e-05 
30 1 1.96461e-06 7.97e-05 9.44e-05 3.97e-05 
53 1 1.57851e-06 7.49396e-05 7.94552e-05 3.60347e-05 
ITEM: TIMESTEP
900
ITEM: NUMBER OF ATOMS
54
ITEM: BOX BOUNDS ff ff ff
0.0000000000000000e+00 1.0000000000000000e-04
0.0000000000000000e+00 1.0000000000000000e-04
0.0000000000000000e+00 5.0000000000000002e-05
ITEM: ATOMS id type diameter x y z 
37 1 1.87106e-06 2.92e-05 3.3e-05 3.38e-06 
27 1 1.79706e-06 3.74e-05 3.43e-05 1.07e-05 
3 1 1.50107e-06 4.32e-06 1.21e-05 1.44e-05 
49 1 1.68078e-06 2.92e-05 2.61e-05 1.83e-05 
21 1 1.51165e-06 2.67e-05 4.79e-05 3.68e-05 
23 1 1.90277e-06 4.68e-05 8.68e-06 3.82e-05 
18 1 1.64907e-06 1.47e-05 7.36e-06 4.5e-05 
44 1 1.72306e-06 1.33e-05 2.24e-05 4.61e-05 
50 1 1.46936e-06 2.24e-05 4.79e-05 4.78e-05 
5 1 1.69135e-06 2.5e-06 5.51e-05 2.45e-06 
17 1 1.50107e-06 3.88e-05 7.46e-05 7.6e-06 
39 1 1.94505e-06 4.79e-05 6.43e-05 1.4e-05 
33 1 1.59621e-06 2.56e-05 5.29e-05 1.63e-05 
4 1 1.5645e-06 4.4e-05 9.52e-05 1.7e-05 
24 1 1.86049e-06 1.7e-05 9.35e-05 1.8e-05 
8 1 1.90277e-06 3.31e-05 6.56e-05 1.93e-05 
26 1 1.61736e-06 2.2e-05 8.95e-05 2.52e-05 
40 1 1.50107e-06 4.99e-05 5.19e-05 2.58e-05 
35 1 1.91334e-06 7.75e-06 6.68e-05 2.73e-05 
6 1 1.61652e-06 3.40871e-06 6.96728e-05 2.66464e-05 
29 1 1.73364e-06 1.86e-05 7.82e-05 3.29e-05 
42 1 1.79706e-06 1.66e-05 5.38e-05 3.5e-05 
20 1 1.69135e-06 2.37e-05 7.97e-05 3.88e-05 
1 1 1.52222e-06 2.11e-05 9.05e-05 4.04e-05 
7 1 1.87106e-06 2.66e-05 5.66e-05 4.39e-05 
16 1 1.46936e-06 9.04e-06 8.4e-05 4.71e-05 
52 1 1.58827e-06 3.49058e-06 6.83387e-05 2.75459e-05 
10 1 1.44822e-06 7e-05 1.08e-05 1.55e-06 
14 1 1.91334e-06 6.29e-05 7.2e-06 6.66e-06 
2 1 1.5645e-06 8.39e-05 3.44e-05 1.01e-05 
13 1 1.82877e-06 9.14e-05 3.41e-05 2.22e-05 
32 1 1.82877e-06 5.53e-05 1.74e-05 2.39e-05 
15 1 1.75478e-06 7.17e-05 4.95e-05 2.77e-05 
22 1 1.8922e-06 5.51e-05 1.19e-05 3.01e-05 
12 1 1.47993e-06 9.35e-05 1.49e-05 3.17e-05 
38 1 1.73364e-06 6.06e-05 4.22e-06 3.26e-05 
31 1 1.92391e-06 5.11e-05 4.82e-05 3.45e-05 
47 1 1.77592e-06 6.14e-05 4.76e-05 3.64e-05 
45 1 1.65964e-06 7.6e-05 4.97e-05 3.66e-05 
25 1 1.92391e-06 7.96e-05 2.22e-05 3.71e-05 
34 1 1.64191e-06 7.12588e-05 4.78709e-05 3.77476e-05 
11 1 1.79706e-06 7.88e-05 1.91e-05 4.78e-05 
28 1 1.70192e-06 5.07e-05 6.81e-06 4.82e-05 
51 1 1.61322e-06 7.13405e-05 4.65406e-05 3.86446e-05 
19 1 1.4905e-06 6.82e-05 6.3e-05 2.19e-06 
41 1 1.4905e-06 6.64e-05 9.59e-05 1.9e-05 
43 1 1.6385e-06 9.19e-05 8.12e-05 2.67e-05 
9 1 1.72306e-06 5.3e-05 9.2e-05 2.95e-05 
48 1 1.82877e-06 6.12e-05 8.07e-05 3.06e-05 
36 1 1.76535e-06 6.86e-05 5.78e-05 3.52e-05 
46 1 1.61652e-06 7.48587e-05 8.07728e-05 3.51464e-05 
30 1 1.59422e-06 7.90245e-05 9.39887e-05 3.96079e-05 
53 1 1.58827e-06 7.49406e-05 7.94387e-05 3.60459e-05 
54 1 1.54286e-06 8.03537e-05 9.4798e-05 3.97891e-05 
ITEM: TIMESTEP
1000
ITEM: NUMBER OF ATOMS
54
ITEM: BOX BOUNDS ff ff ff
0.0000000000000000e+00 1.0000000000000000e-04
0.0000000000000000e+00 1.0000000000000000e-04
0.0000000000000000e+00 5.0000000000000002e-05
ITEM: ATOMS id type diameter x y z 
37 1 1.88264e-06 2.92e-05 3.3e-05 3.38e-06 
27 1 1.80818e-06 3.74e-05 3.43e-05 1.07e-05 
3 1 1.51036e-06 4.32e-06 1.21e-05 1.44e-05 
49 1 1.69118e-06 2.92e-05 2.61e-05 1.83e-05 
21 1 1.521e-06 2.67e-05 4.79e-05 3.68e-05 
23 1 1.91455e-06 4.68e-05 8.68e-06 3.82e-05 
18 1 1.65927e-06 1.47e-05 7.36e-06 4.5e-05 
44 1 1.73373e-06 1.33e-05 2.24e-05 4.61e-05 
50 1 1.47845e-06 2.24e-05 4.79e-05 4.78e-05 
5 1 1.70182e-06 2.5e-06 5.51e-05 2.45e-06 
17 1 1.51036e-06 3.88e-05 7.46e-05 7.6e-06 
39 1 1.95709e-06 4.79e-05 6.43e-05 1.4e-05 
33 1 1.60609e-06 2.56e-05 5.29e-05 1.63e-05 
4 1 1.57418e-06 4.4e-05 9.52e-05 1.7e-05 
24 1 1.872e-06 1.7e-05 9.35e-05 1.8e-05 
8 1 1.91455e-06 3.31e-05 6.56e-05 1.93e-05 
26 1 1.62736e-06 2.2e-05 8.95e-05 2.52e-05 
40 1 1.51036e-06 4.99e-05 5.19e-05 2.58e-05 
6 1 1.62652e-06 3.40871e-06 6.96728e-05 2.66464e-05 
35 1 1.92518e-06 7.75e-06 6.68e-05 2.73e-05 
52 1 1.5981e-06 3.49058e-06 6.83387e-05 2.75459e-05 
29 1 1.74436e-06 1.86e-05 7.82e-05 3.29e-05 
42 1 1.80818e-06 1.66e-05 5.38e-05 3.5e-05 
20 1 1.70182e-06 2.37e-05 7.97e-05 3.88e-05 
1 1 1.53164e-06 2.11e-05 9.05e-05 4.04e-05 
7 1 1.88264e-06 2.66e-05 5.66e-05 4.39e-05 
16 1 1.47845e-06 9.04e-06 8.4e-05 4.71e-05 
10 1 1.45718e-06 7e-05 1.08e-05 1.55e-06 
14 1 1.92518e-06 6.29e-05 7.2e-06 6.66e-06 
2 1 1.57418e-06 8.39e-05 3.44e-05 1.01e-05 
13 1 1.84009e-06 9.14e-05 3.41e-05 2.22e-05 
32 1 1.84009e-06 5.53e-05 1.74e-05 2.39e-05 
15 1 1.76564e-06 7.17e-05 4.95e-05 2.77e-05 
22 1 1.90391e-06 5.51e-05 1.19e-05 3.01e-05 
12 1 1.48909e-06 9.35e-05 1.49e-05 3.17e-05 
38 1 1.74436e-06 6.06e-05 4.22e-06 3.26e-05 
31 1 1.93582e-06 5.11e-05 4.82e-05 3.45e-05 
47 1 1.78691e-06 6.14e-05 4.76e-05 3.64e-05 
45 1 1.66991e-06 7.6e-05 4.97e-05 3.66e-05 
25 1 1.93582e-06 7.96e-05 2.22e-05 3.71e-05 
34 1 1.65207e-06 7.12578e-05 4.78874e-05 3.77365e-05 
51 1 1.6232e-06 7.13415e-05 4.6524e-05 3.86558e-05 
11 1 1.80818e-06 7.88e-05 1.91e-05 4.78e-05 
28 1 1.71246e-06 5.07e-05 6.81e-06 4.82e-05 
19 1 1.49973e-06 6.82e-05 6.3e-05 2.19e-06 
41 1 1.49973e-06 6.64e-05 9.59e-05 1.9e-05 
43 1 1.64864e-06 9.19e-05 8.12e-05 2.67e-05 
9 1 1.73373e-06 5.3e-05 9.2e-05 2.95e-05 
48 1 1.84009e-06 6.12e-05 8.07e-05 3.06e-05 
36 1 1.77627e-06 6.86e-05 5.78e-05 3.52e-05 
46 1 1.62652e-06 7.48587e-05 8.07728e-05 3.51464e-05 
53 1 1.5981e-06 7.49406e-05 7.94387e-05 3.60459e-05 
30 1 1.60408e-06 7.90245e-05 9.39887e-05 3.96079e-05 
54 1 1.55241e-06 8.03537e-05 9.4798e-05 3.97891e-05 
ITEM: TIMESTEP
1100
ITEM: NUMBER OF ATOMS
54
ITEM: BOX BOUNDS ff ff ff
0.0000000000000000e+00 1.0000000000000000e-04
0.0000000000000000e+00 1.0000000000000000e-04
0.0000000000000000e+00 5.0000000000000002e-05
ITEM: ATOMS id type diameter x y z 
37 1 1.89429e-06 2.92e-05 3.3e-05 3.38e-06 
27 1 1.81937e-06 3.74e-05 3.43e-05 1.07e-05 
3 1 1.51971e-06 4.32e-06 1.21e-05 1.44e-05 
49 1 1.70165e-06 2.92e-05 2.61e-05 1.83e-05 
21 1 1.53041e-06 2.67e-05 4.79e-05 3.68e-05 
23 1 1.92639e-06 4.68e-05 8.68e-06 3.82e-05 
18 1 1.66954e-06 1.47e-05 7.36e-06 4.5e-05 
44 1 1.74446e-06 1.33e-05 2.24e-05 4.61e-05 
50 1 1.4876e-06 2.24e-05 4.79e-05 4.78e-05 
5 1 1.71235e-06 2.5e-06 5.51e-05 2.45e-06 
17 1 1.51971e-06 3.88e-05 7.46e-05 7.6e-06 
39 1 1.9692e-06 4.79e-05 6.43e-05 1.4e-05 
33 1 1.61603e-06 2.56e-05 5.29e-05 1.63e-05 
4 1 1.58392e-06 4.4e-05 9.52e-05 1.7e-05 
24 1 1.88359e-06 1.7e-05 9.35e-05 1.8e-05 
8 1 1.92639e-06 3.31e-05 6.56e-05 1.93e-05 
26 1 1.63743e-06 2.2e-05 8.95e-05 2.52e-05 
40 1 1.51971e-06 4.99e-05 5.19e-05 2.58e-05 
6 1 1.63659e-06 3.40871e-06 6.96728e-05 2.66464e-05 
35 1 1.9371e-06 7.75e-06 6.68e-05 2.73e-05 
52 1 1.60799e-06 3.49058e-06 6.83387e-05 2.75459e-05 
29 1 1.75516e-06 1.86e-05 7.82e-05 3.29e-05 
42 1 1.81937e-06 1.66e-05 5.38e-05 3.5e-05 
20 1 1.71235e-06 2.37e-05 7.97e-05 3.88e-05 
1 1 1.54112e-06 2.11e-05 9.05e-05 4.04e-05 
7 1 1.89429e-06 2.66e-05 5.66e-05 4.39e-05 
16 1 1.4876e-06 9.04e-06 8.4e-05 4.71e-05 
10 1 1.4662e-06 7e-05 1.08e-05 1.55e-06 
14 1 1.9371e-06 6.29e-05 7.2e-06 6.66e-06 
2 1 1.58392e-06 8.39e-05 3.44e-05 1.01e-05 
13 1 1.85148e-06 9.14e-05 3.41e-05 2.22e-05 
32 1 1.85148e-06 5.53e-05 1.74e-05 2.39e-05 
15 1 1.77656e-06 7.17e-05 4.95e-05 2.77e-05 
22 1 1.91569e-06 5.51e-05 1.19e-05 3.01e-05 
12 1 1.49831e-06 9.35e-05 1.49e-05 3.17e-05 
38 1 1.75516e-06 6.06e-05 4.22e-06 3.26e-05 