 NUFEB Simulation

     100 atoms 
     2 atom types 
     4 nutrients 

  0.0e-4   1.00e-04  xlo xhi 
  0.0e-4   1.00e-04  ylo yhi 
  0.0e-4   1.00e-05  zlo zhi 

 Atoms 

     1 1 1.72e-06  370 2.05e-05 1.15e-05 7.37e-06 1.72e-06 
     2 1 1.91e-06  370 4.21e-05 7.94e-05 4.77e-06 1.91e-06 
     3 1 1.42e-06  370 8.39e-05 1.64e-05 1.72e-06 1.42e-06 
     4 1 1.44e-06  370 1.75e-05 6.20e-05 7.74e-06 1.44e-06 
     5 1 1.61e-06  370 9.17e-05 6.93e-05 5.55e-06 1.61e-06 
     6 1 1.63e-06  370 2.75e-05 9.82e-05 5.46e-06 1.63e-06 
     7 1 1.58e-06  370 5.09e-05 6.03e-05 4.87e-06 1.58e-06 
     8 1 1.79e-06  370 4.76e-05 3.60e-05 7.50e-06 1.79e-06 
     9 1 1.53e-06  370 7.01e-05 2.90e-05 1.67e-06 1.53e-06 
     10 1 1.67e-06  370 9.77e-05 7.09e-05 4.74e-06 1.67e-06 
     11 1 1.38e-06  370 4.41e-06 3.18e-05 3.65e-06 1.38e-06 
     12 1 1.56e-06  370 2.23e-06 8.96e-05 4.26e-06 1.56e-06 
     13 1 1.77e-06  370 3.25e-06 1.12e-05 4.53e-06 1.77e-06 
     14 1 1.58e-06  370 2.65e-05 7.90e-05 1.79e-06 1.58e-06 
     15 1 1.77e-06  370 4.55e-05 1.91e-05 2.10e-06 1.77e-06 
     16 1 1.61e-06  370 4.76e-05 8.45e-05 7.05e-06 1.61e-06 
     17 1 1.60e-06  370 3.42e-05 4.61e-05 4.66e-06 1.60e-06 
     18 1 1.48e-06  370 5.10e-05 5.33e-05 6.88e-06 1.48e-06 
     19 1 1.49e-06  370 5.02e-06 4.16e-06 5.60e-06 1.49e-06 
     20 1 1.43e-06  370 3.39e-06 5.03e-05 1.49e-06 1.43e-06 
     21 1 1.40e-06  370 9.95e-06 2.08e-05 2.69e-06 1.40e-06 
     22 1 1.56e-06  370 2.49e-05 4.87e-05 5.39e-06 1.56e-06 
     23 1 1.90e-06  370 8.28e-05 9.13e-05 1.96e-06 1.90e-06 
     24 1 1.84e-06  370 2.83e-05 3.11e-05 3.94e-06 1.84e-06 
     25 1 1.43e-06  370 3.40e-05 1.86e-05 7.41e-06 1.43e-06 
     26 1 1.54e-06  370 1.55e-05 7.10e-05 4.48e-06 1.54e-06 
     27 1 1.79e-06  370 5.53e-06 3.17e-06 5.29e-06 1.79e-06 
     28 1 1.53e-06  370 1.24e-05 6.75e-05 3.10e-06 1.53e-06 
     29 1 1.77e-06  370 5.60e-05 6.62e-05 4.78e-06 1.77e-06 
     30 1 1.89e-06  370 2.39e-05 7.14e-05 4.06e-06 1.89e-06 
     31 1 1.89e-06  370 3.71e-05 6.28e-06 4.20e-06 1.89e-06 
     32 1 1.58e-06  370 5.18e-05 6.74e-05 6.42e-06 1.58e-06 
     33 1 1.63e-06  370 8.73e-05 7.09e-05 8.21e-06 1.63e-06 
     34 1 1.92e-06  370 7.96e-05 1.75e-05 3.62e-06 1.92e-06 
     35 1 1.78e-06  370 5.75e-06 7.72e-05 7.93e-06 1.78e-06 
     36 1 1.59e-06  370 4.91e-05 2.61e-05 5.77e-06 1.59e-06 
     37 1 1.74e-06  370 4.21e-05 4.30e-05 2.23e-06 1.74e-06 
     38 1 1.86e-06  370 4.86e-05 7.86e-05 5.55e-06 1.86e-06 
     39 1 1.68e-06  370 1.45e-05 1.36e-05 4.36e-06 1.68e-06 
     40 1 1.80e-06  370 2.57e-05 1.67e-05 6.71e-06 1.80e-06 
     41 1 1.90e-06  370 5.04e-05 7.20e-05 8.01e-06 1.90e-06 
     42 1 1.59e-06  370 4.92e-06 7.56e-05 2.70e-06 1.59e-06 
     43 1 1.50e-06  370 7.56e-05 5.79e-05 2.30e-06 1.50e-06 
     44 1 1.90e-06  370 8.93e-05 5.58e-05 3.90e-06 1.90e-06 
     45 1 1.85e-06  370 5.33e-05 6.75e-05 5.08e-06 1.85e-06 
     46 1 1.75e-06  370 3.12e-05 4.62e-05 5.96e-06 1.75e-06 
     47 1 1.89e-06  370 2.50e-06 9.21e-05 3.87e-06 1.89e-06 
     48 1 1.82e-06  370 1.62e-05 1.19e-05 3.88e-06 1.82e-06 
     49 1 1.42e-06  370 5.78e-05 4.33e-05 8.42e-06 1.42e-06 
     50 1 1.68e-06  370 9.29e-05 9.87e-06 6.26e-06 1.68e-06 
     51 2 1.02e-06  230 9.10e-05 2.46e-06 1.03e-06 1.02e-06 
     52 2 1.38e-06  230 8.19e-05 4.41e-05 5.66e-06 1.38e-06 
     53 2 1.33e-06  230 2.41e-05 3.79e-05 7.85e-06 1.33e-06 
     54 2 1.07e-06  230 4.21e-05 5.91e-05 1.94e-06 1.07e-06 
     55 2 9.19e-07  230 8.73e-05 6.91e-05 8.45e-06 9.19e-07 
     56 2 9.80e-07  230 2.37e-05 1.91e-05 7.77e-06 9.80e-07 
     57 2 1.33e-06  230 1.24e-05 8.99e-05 4.41e-06 1.33e-06 
     58 2 1.10e-06  230 6.45e-06 2.35e-05 5.06e-06 1.10e-06 
     59 2 9.76e-07  230 3.27e-05 2.27e-05 5.68e-06 9.76e-07 
     60 2 1.37e-06  230 3.41e-05 2.20e-05 6.54e-06 1.37e-06 
     61 2 9.90e-07  230 6.65e-05 4.46e-05 7.07e-06 9.90e-07 
     62 2 1.03e-06  230 4.94e-06 8.89e-05 5.94e-06 1.03e-06 
     63 2 9.55e-07  230 8.73e-05 2.96e-05 6.16e-06 9.55e-07 
     64 2 1.24e-06  230 6.17e-05 6.50e-05 6.71e-06 1.24e-06 
     65 2 1.22e-06  230 6.66e-05 8.54e-05 4.44e-06 1.22e-06 
     66 2 9.58e-07  230 5.25e-06 6.82e-05 4.46e-06 9.58e-07 
     67 2 8.90e-07  230 9.39e-05 5.63e-05 2.32e-06 8.90e-07 
     68 2 1.07e-06  230 9.69e-05 6.51e-05 4.97e-06 1.07e-06 
     69 2 1.18e-06  230 7.94e-05 1.83e-05 2.21e-06 1.18e-06 
     70 2 1.38e-06  230 3.54e-05 8.17e-05 3.57e-06 1.38e-06 
     71 2 1.37e-06  230 8.70e-05 8.80e-05 4.45e-06 1.37e-06 
     72 2 1.13e-06  230 8.74e-05 7.74e-06 2.79e-06 1.13e-06 
     73 2 1.29e-06  230 2.01e-05 3.48e-05 5.64e-06 1.29e-06 
     74 2 1.21e-06  230 9.64e-06 1.24e-05 5.40e-06 1.21e-06 
     75 2 1.38e-06  230 5.26e-05 1.71e-05 6.50e-06 1.38e-06 
     76 2 1.32e-06  230 2.27e-06 8.69e-05 7.80e-06 1.32e-06 
     77 2 8.93e-07  230 7.23e-05 5.07e-05 7.15e-06 8.93e-07 
     78 2 9.35e-07  230 4.25e-05 8.38e-05 3.41e-06 9.35e-07 
     79 2 1.32e-06  230 7.84e-05 9.01e-05 3.88e-06 1.32e-06 
     80 2 9.86e-07  230 5.35e-06 7.16e-05 3.55e-06 9.86e-07 
     81 2 8.99e-07  230 8.40e-05 6.61e-05 2.30e-06 8.99e-07 
     82 2 9.53e-07  230 7.13e-05 8.57e-05 4.48e-06 9.53e-07 
     83 2 1.20e-06  230 8.65e-05 3.95e-05 2.75e-06 1.20e-06 
     84 2 1.29e-06  230 3.22e-05 2.00e-05 4.44e-06 1.29e-06 
     85 2 8.93e-07  230 5.61e-05 5.13e-05 4.83e-06 8.93e-07 
     86 2 1.31e-06  230 7.20e-05 5.90e-05 5.16e-06 1.31e-06 
     87 2 1.36e-06  230 6.02e-05 6.10e-05 8.28e-06 1.36e-06 
     88 2 1.17e-06  230 2.56e-05 2.43e-05 7.90e-06 1.17e-06 
     89 2 9.46e-07  230 3.69e-05 5.72e-06 1.64e-06 9.46e-07 
     90 2 9.13e-07  230 5.95e-05 1.63e-05 6.65e-06 9.13e-07 
     91 2 1.27e-06  230 2.71e-05 5.39e-05 7.80e-06 1.27e-06 
     92 2 1.36e-06  230 6.75e-05 9.00e-05 3.71e-06 1.36e-06 
     93 2 9.61e-07  230 6.13e-05 1.09e-05 5.86e-06 9.61e-07 
     94 2 8.96e-07  230 2.66e-05 1.47e-05 7.58e-06 8.96e-07 
     95 2 1.38e-06  230 8.78e-05 2.55e-05 6.31e-06 1.38e-06 
     96 2 1.21e-06  230 3.19e-05 6.72e-05 5.80e-06 1.21e-06 
     97 2 1.36e-06  230 8.33e-05 3.67e-05 8.21e-06 1.36e-06 
     98 2 9.06e-07  230 5.37e-05 6.39e-05 2.55e-06 9.06e-07 
     99 2 1.15e-06  230 4.98e-05 8.78e-05 3.38e-06 1.15e-06 
     100 2 1.15e-06  230 4.52e-05 7.86e-05 5.59e-06 1.15e-06 

 Nutrients 

     1 sub g nn nn nn 1.00e-01 1.00e-01 
     2 o2 l nn nn nd 9.00e-03 9.00e-03 
     3 suc l nn nn nn 3.42e-20 3.42e-20 
     4 co2 l nn nn nd 2.99e-02 2.99e-02 

 Type Name 

     1 cyano  
     2 ecw  

 Diffusion Coeffs 

     sub 0 
     o2 2.3e-09 
     suc 5.2e-10 
     co2 1.9e-09 

 Growth Rate 

     cyano 1.67e-05 
     ecw 1.7e-05 

 Ks 

     cyano 0.00035 0.0002 0.01 0.000138 
     ecw 0 0.001 3.6 0.05 

 Yield 

     cyano 0.55 
     ecw 0.43 

 Maintenance 

     cyano 0 
     ecw 9.5e-07 

 Decay 

     cyano 0 
     ecw 0 



