LAMMPS (20 Nov 2019)
Reading data file ...
  orthogonal box = (0 0 0) to (0.0001 0.0001 1e-05)
  8 by 4 by 1 MPI processor grid
  reading atoms ...
  100 atoms
  4 nutrients
Lattice spacing in x,y,z = 100 100 100
50 atoms in group CYANO
50 atoms in group ECW
Model is defined as a closed system. 
Neighbor list info ...
  update every 1 steps, delay 0 steps, check yes
  max neighbors/atom: 5000, page size: 100000
  master list distance cutoff = 2.42e-06
  ghost atom cutoff = 2.42e-06
  binsize = 1.21e-06, bins = 83 83 9
  1 neighbor lists, perpetual/occasional/extra = 1 0 0
  (1) pair gran/hooke/history, perpetual
      attributes: half, newton off, size, history
      pair build: half/size/bin/newtoff
      stencil: half/bin/3d/newtoff
      bin: standard
Setting up Verlet run ...
  Unit style    : lj
  Current step  : 0
  Time step     : 10
Per MPI rank memory allocation (min/avg/max) = 5.794 | 10.9 | 12.11 Mbytes
Step CPU Atoms c_myNtypes[1] c_myNtypes[2] c_myMass[1] c_myMass[2] c_myCon[1] c_myCon[2] c_myCon[3] c_myCon[4] 
       0            0      100           50           50 4.6220126e-14 9.4628882e-15          0.1        0.009     3.42e-20       0.0299 
number of iterations: 327090 
     100    15.721784      130           50           80 4.6832645e-14 9.456276e-15          0.1 0.0090008169  0.037145284  0.029898639 
number of iterations: 5929 
     200    16.150026      151           50          101 4.7453281e-14 9.4510716e-15          0.1 0.0090008276  0.073578963  0.029898621 
number of iterations: 3849 
     300    16.591826      151           50          101 4.8082142e-14 9.4472819e-15          0.1 0.0090008385   0.11045527  0.029898603 
number of iterations: 2895 
     400     16.87672      151           50          101 4.8719337e-14 9.444895e-15          0.1 0.0090008496   0.14778495  0.029898585 
number of iterations: 2330 
     500    17.127507      151           50          101 4.9364976e-14 9.4438994e-15          0.1 0.0090008608   0.18557618  0.029898566 
number of iterations: 1957 
     600    17.366532      152           51          101 5.0019171e-14 9.4442842e-15          0.1 0.0090008721   0.22383645  0.029898547 
number of iterations: 1696 
     700    17.581698      153           52          101 5.0682036e-14 9.4460372e-15          0.1 0.0090008836   0.26257311  0.029898528 
number of iterations: 1518 
     800    17.782414      153           52          101 5.1353685e-14 9.4491479e-15          0.1 0.0090008952   0.30179346  0.029898508 
number of iterations: 1484 
     900    17.990272      156           55          101 5.2034235e-14 9.4536044e-15          0.1  0.009000907   0.34150471  0.029898489 
number of iterations: 1486 
    1000    18.301684      159           58          101 5.2723804e-14 9.4593996e-15          0.1  0.009000919   0.38171426  0.029898469 
number of iterations: 1489 
    1100    18.514255      159           58          101 5.3422511e-14 9.4665243e-15          0.1 0.0090009311   0.42242922  0.029898448 
number of iterations: 1492 
    1200    18.718079      159           58          101 5.4130477e-14 9.4749707e-15          0.1 0.0090009434   0.46365691  0.029898428 
number of iterations: 1495 
    1300    18.915176      160           59          101 5.4847826e-14 9.4847319e-15          0.1 0.0090009558   0.50540466  0.029898407 
number of iterations: 1497 
    1400    19.120885      160           59          101 5.5574681e-14 9.4958007e-15          0.1 0.0090009684   0.54767995  0.029898386 
number of iterations: 1500 
    1500     19.31771      161           60          101 5.6311169e-14 9.5081716e-15          0.1 0.0090009812    0.5904903  0.029898365 
number of iterations: 1538 
    1600    19.531019      162           61          101 5.7057416e-14 9.5218395e-15          0.1 0.0090009941   0.63384333  0.029898343 
number of iterations: 1506 
    1700    19.730407      162           61          101 5.7813553e-14 9.5367991e-15          0.1 0.0090010072   0.67774672  0.029898321 
number of iterations: 1535 
    1800    19.903418      163           62          101 5.8579711e-14 9.5530469e-15          0.1 0.0090010205    0.7222083  0.029898299 
number of iterations: 1512 
    1900    20.103979      163           62          101 5.9356021e-14 9.5705801e-15          0.1  0.009001034   0.76723601  0.029898276 
number of iterations: 1515 
    2000    20.344267      163           62          101 6.014262e-14 9.5893934e-15          0.1 0.0090010477   0.81283774  0.029898253 
number of iterations: 1486 
    2100    20.559297      165           63          102 6.0939643e-14 9.6094849e-15          0.1 0.0090010615   0.85902154   0.02989823 
number of iterations: 1478 
    2200    20.751422      169           65          104 6.1747228e-14 9.6308501e-15          0.1 0.0090010755   0.90579567  0.029898207 
number of iterations: 1520 
    2300    20.947137      170           66          104 6.2565515e-14 9.6534868e-15          0.1 0.0090010849   0.95316839  0.029898191 
number of iterations: 1525 
    2400     21.17326      170           66          104 6.3394647e-14 9.6773947e-15          0.1 0.0090010992    1.0011479  0.029898167 
number of iterations: 1527 
    2500    21.385833      174           69          105 6.4234766e-14 9.7025746e-15          0.1 0.0090011153    1.0497427   0.02989814 
number of iterations: 1530 
    2600    21.704057      174           69          105 6.5086019e-14 9.7290243e-15          0.1 0.0090011301    1.0989612  0.029898116 
number of iterations: 1525 
    2700    21.898123      176           70          106 6.5948552e-14 9.756744e-15          0.1 0.0090011414    1.1488122  0.029898097 
number of iterations: 1536 
    2800     22.12397      176           70          106 6.6822517e-14 9.7857335e-15          0.1 0.0090011565    1.1993044  0.029898072 
number of iterations: 1548 
    2900     22.34585      177           71          106 6.7708063e-14 9.8159944e-15          0.1 0.0090011718    1.2504467  0.029898046 
number of iterations: 1541 
    3000    22.557644      178           71          107 6.8605344e-14 9.8475269e-15          0.1 0.0090011873    1.3022481   0.02989802 
number of iterations: 1577 
    3100    22.754247      179           72          107 6.9514517e-14 9.8803317e-15          0.1 0.0090012029    1.3547174  0.029897994 
number of iterations: 1547 
    3200    22.963094      179           72          107 7.0435738e-14 9.9144115e-15          0.1 0.0090012188    1.4078641  0.029897967 
number of iterations: 1550 
    3300    23.174622      179           72          107 7.1369167e-14 9.9497687e-15          0.1  0.009001235    1.4616974   0.02989794 
number of iterations: 1553 
    3400    23.368749      179           72          107 7.2314966e-14 9.9864061e-15          0.1 0.0090012513    1.5162268  0.029897913 
number of iterations: 1555 
    3500    23.627401      179           72          107 7.3273299e-14 1.0024329e-14          0.1 0.0090012678    1.5714616  0.029897886 
number of iterations: 1558 
    3600    23.851416      179           72          107 7.4244332e-14 1.0063538e-14          0.1 0.0090012846    1.6274117  0.029897858 
number of iterations: 1703 
    3700    24.063976      183           74          109 7.5228233e-14 1.0104037e-14          0.1 0.0090013047    1.6840869  0.029897824 
number of iterations: 1567 
    3800    24.277314      184           75          109 7.6225174e-14 1.0145832e-14          0.1 0.0090013219    1.7414969  0.029897795 
number of iterations: 1569 
    3900    24.486264      184           75          109 7.7235325e-14 1.0188926e-14          0.1 0.0090013394    1.7996518  0.029897766 
number of iterations: 1572 
    4000    24.697328      185           75          110 7.8258864e-14 1.0233325e-14          0.1 0.0090013571    1.8585618  0.029897736 
number of iterations: 1575 
    4100    24.892687      185           75          110 7.9295967e-14 1.0279034e-14          0.1 0.0090013751    1.9182371  0.029897706 
number of iterations: 1578 
    4200    25.068896      185           75          110 8.0346813e-14 1.0326059e-14          0.1 0.0090013933     1.978688  0.029897676 
number of iterations: 1580 
    4300    25.274977      185           75          110 8.1411586e-14 1.0374406e-14          0.1 0.0090014117    2.0399252  0.029897645 
number of iterations: 1639 
    4400    25.480308      188           77          111 8.2490469e-14 1.0424082e-14          0.1 0.0090014366    2.1019594  0.029897604 
number of iterations: 1586 
    4500    25.677964      189           77          112 8.358365e-14 1.0475093e-14          0.1 0.0090014556    2.1648013  0.029897572 
number of iterations: 1589 
    4600    25.874512      191           79          112 8.4691317e-14 1.0527447e-14          0.1 0.0090014705    2.2284619  0.029897547 
number of iterations: 1591 
    4700    26.066888      191           79          112 8.5813664e-14 1.0581152e-14          0.1   0.00900149    2.2929521  0.029897515 
number of iterations: 1606 
    4800    26.252279      192           80          112 8.6950884e-14 1.0636216e-14          0.1 0.0090015097    2.3582833  0.029897482 
number of iterations: 1581 
    4900    26.450277      195           82          113 8.8103175e-14 1.0692647e-14          0.1 0.0090015259    2.4244668  0.029897455 
number of iterations: 1600 
    5000    26.808944      195           82          113 8.9270736e-14 1.0750454e-14          0.1 0.0090015461     2.491514  0.029897421 
number of iterations: 1597 
    5100    27.024794      200           85          115 9.045377e-14 1.0809645e-14          0.1 0.0090015666    2.5594369  0.029897387 
number of iterations: 1605 
    5200    27.211714      200           85          115 9.1652482e-14 1.087023e-14          0.1 0.0090015873    2.6282471  0.029897352 
number of iterations: 1609 
    5300    27.405235      201           86          115 9.286708e-14 1.0932217e-14          0.1 0.0090016083    2.6979565  0.029897317 
number of iterations: 1702 
    5400    27.636705      205           89          116 9.4097773e-14 1.0995618e-14          0.1  0.009001628    2.7685772  0.029897284 
number of iterations: 1613 
    5500    27.819486      209           92          117 9.5344776e-14 1.1060442e-14          0.1 0.0090016454    2.8401215  0.029897255 
number of iterations: 1562 
    5600    28.006008      213           94          119 9.6608304e-14 1.1126697e-14          0.1 0.0090016672     2.912602  0.029897219 
number of iterations: 1701 
    5700    28.197866      216           97          119 9.7888577e-14 1.1194395e-14          0.1 0.0090016925    2.9860307  0.029897176 
number of iterations: 1638 
    5800    28.400121      219          100          119 9.9185817e-14 1.126355e-14          0.1 0.0090017216    3.0604207  0.029897128 
number of iterations: 1625 
    5900    28.593129      222          100          122 1.0050025e-13 1.1334174e-14          0.1 0.0090017474    3.1357849  0.029897085 
number of iterations: 1628 
    6000    28.807314      222          100          122 1.018321e-13 1.140628e-14          0.1 0.0090017705    3.2121363  0.029897046 
number of iterations: 1630 
    6100    29.023429      222          100          122 1.031816e-13 1.147988e-14          0.1 0.0090017939    3.2894883  0.029897007 
number of iterations: 1633 
    6200    29.224961      224          101          123 1.0454898e-13 1.1554986e-14          0.1 0.0090018177    3.3678542  0.029896968 
number of iterations: 1582 
    6300    29.404879      227          102          125 1.0593448e-13 1.1631612e-14          0.1 0.0090018388    3.4472475  0.029896932 
number of iterations: 1588 
    6400    29.593461      228          103          125 1.0733835e-13 1.1709772e-14          0.1 0.0090018594    3.5276822  0.029896898 
number of iterations: 1590 
    6500    29.773643      231          105          126 1.0876082e-13 1.1789481e-14          0.1 0.0090018786     3.609172  0.029896866 
number of iterations: 1637 
    6600    29.962959      235          108          127 1.1020214e-13 1.1870751e-14          0.1 0.0090018987    3.6917312  0.029896832 
number of iterations: 1642 
    6700    30.157261      235          108          127 1.1166256e-13 1.1953598e-14          0.1 0.0090019238    3.7753739   0.02989679 
number of iterations: 1749 
    6800    30.392762      241          114          127 1.1314234e-13 1.2038037e-14          0.1 0.0090019521    3.8601147  0.029896743 
number of iterations: 1709 
    6900    30.594961      246          119          127 1.1464172e-13 1.212408e-14          0.1 0.0090019785    3.9459683  0.029896699 
number of iterations: 1596 
    7000    30.767118      252          121          131 1.1616098e-13 1.2211748e-14          0.1 0.0090020007    4.0329494  0.029896662 
number of iterations: 1655 
    7100    30.984161      252          121          131 1.1770036e-13 1.2301057e-14          0.1 0.0090020306    4.1210733  0.029896612 
number of iterations: 1649 
    7200    31.165885      255          123          132 1.1926015e-13 1.2392022e-14          0.1  0.009002053    4.2103552  0.029896575 
number of iterations: 1644 
    7300     31.35585      258          125          133 1.2084061e-13 1.2484658e-14          0.1 0.0090020802    4.3008107  0.029896529 
number of iterations: 1644 
    7400    31.543012      260          126          134 1.2244202e-13 1.2578987e-14          0.1 0.0090021077    4.3924558  0.029896483 
number of iterations: 1694 
    7500    31.736919      264          129          135 1.2406464e-13 1.2675025e-14          0.1 0.0090021339    4.4853057   0.02989644 
number of iterations: 1678 
    7600    31.936283      264          129          135 1.2570877e-13 1.2772788e-14          0.1 0.0090021621    4.5793765  0.029896392 
number of iterations: 1597 
    7700    32.127677      266          131          135 1.2737469e-13 1.2872295e-14          0.1 0.0090021846    4.6746843  0.029896355 
number of iterations: 1641 
    7800    32.331838      269          133          136 1.2906268e-13 1.2973564e-14          0.1 0.0090022098    4.7712461  0.029896313 
number of iterations: 1675 
    7900    32.528982      270          133          137 1.3077305e-13 1.3076614e-14          0.1 0.0090022391    4.8690784  0.029896264 
number of iterations: 1748 
    8000     32.73521      271          134          137 1.3250608e-13 1.3181466e-14          0.1 0.0090022728    4.9681981  0.029896208 
number of iterations: 1678 
    8100    32.930324      275          138          137 1.3426208e-13 1.328814e-14          0.1 0.0090023012    5.0686221   0.02989616 
number of iterations: 1634 
    8200     33.12133      277          139          138 1.3604134e-13 1.3396655e-14          0.1 0.0090023291     5.170368  0.029896114 
number of iterations: 1701 
    8300    33.329974      278          140          138 1.3784419e-13 1.3507034e-14          0.1 0.0090023641    5.2734532  0.029896055 
number of iterations: 1688 
    8400     33.56684      278          140          138 1.3967093e-13 1.3619297e-14          0.1 0.0090023955    5.3778952  0.029896003 
number of iterations: 1691 
    8500    33.789451      279          140          139 1.4152188e-13 1.3733466e-14          0.1 0.0090024272    5.4837125   0.02989595 
number of iterations: 1663 
    8600    34.007726      282          141          141 1.4339735e-13 1.3849563e-14          0.1 0.0090024543    5.5909236  0.029895905 
number of iterations: 1771 
    8700    34.216211      284          142          142 1.4529768e-13 1.396761e-14          0.1 0.0090024981    5.6995465  0.029895832 
number of iterations: 1717 
    8800    34.398259      286          144          142 1.472232e-13 1.4087632e-14          0.1 0.0090025328    5.8096002  0.029895774 
number of iterations: 1702 
    8900    34.603083      290          145          145 1.4917423e-13 1.420965e-14          0.1 0.0090025663    5.9211037  0.029895718 
number of iterations: 1705 
    9000    34.810356      293          146          147 1.5115111e-13 1.433369e-14          0.1 0.0090025965    6.0340766  0.029895667 
number of iterations: 1721 
    9100    35.012659      296          147          149 1.531542e-13 1.4459776e-14          0.1 0.0090026348    6.1485382  0.029895603 
number of iterations: 1706 
    9200    35.218714      299          149          150 1.5518383e-13 1.4587933e-14          0.1 0.0090026673    6.2645084  0.029895549 
number of iterations: 1688 
    9300    35.412348      301          150          151 1.5724035e-13 1.4718185e-14          0.1 0.0090026994    6.3820076  0.029895495 
number of iterations: 1708 
    9400    35.617989      310          153          157 1.5932413e-13 1.4850559e-14          0.1 0.0090027321    6.5010557  0.029895441 
number of iterations: 1708 
    9500     35.81883      311          154          157 1.6143553e-13 1.4985078e-14          0.1 0.0090027636    6.6216732  0.029895388 
number of iterations: 1765 
    9600    36.023883      316          156          160 1.635749e-13 1.5121772e-14          0.1 0.0090028049     6.743881  0.029895319 
number of iterations: 1724 
    9700    36.228147      321          157          164 1.6574263e-13 1.5260665e-14          0.1 0.0090028456    6.8676999  0.029895251 
number of iterations: 1708 
    9800    36.439236      323          159          164 1.6793908e-13 1.5401784e-14          0.1 0.0090028782    6.9931518  0.029895197 
number of iterations: 1741 
    9900    36.630426      325          160          165 1.7016464e-13 1.5545158e-14          0.1 0.0090029195    7.1202581  0.029895128 
number of iterations: 1711 
   10000    36.832232      328          161          167 1.7241969e-13 1.5690814e-14          0.1 0.0090029582    7.2490412  0.029895063 
number of iterations: 1733 
   10100    37.070922      334          164          170 1.7470463e-13 1.583878e-14          0.1 0.0090029937     7.379523  0.029895004 
number of iterations: 1738 
   10200    37.279226      341          168          173 1.7701985e-13 1.5989084e-14          0.1 0.0090030397     7.511726  0.029894927 
number of iterations: 1740 
   10300     37.49314      342          169          173 1.7936575e-13 1.6141759e-14          0.1   0.00900308    7.6456731   0.02989486 
number of iterations: 1718 
   10400    37.678214      348          172          176 1.8174274e-13 1.6296835e-14          0.1 0.0090031206    7.7813872  0.029894792 
number of iterations: 1743 
   10500    37.906944      353          175          178 1.8415123e-13 1.6454342e-14          0.1 0.0090031637     7.918892   0.02989472 
number of iterations: 1772 
   10600    38.102196      358          178          180 1.8659164e-13 1.661431e-14          0.1  0.009003202     8.058211  0.029894657 
number of iterations: 1749 
   10700    38.297454      363          180          183 1.8906439e-13 1.6776773e-14          0.1 0.0090032377    8.1993685  0.029894597 
number of iterations: 1755 
   10800    38.488338      364          181          183 1.915699e-13 1.6941762e-14          0.1 0.0090032832    8.3423886  0.029894521 
number of iterations: 1748 
   10900    38.671674      377          189          188 1.9410862e-13 1.710931e-14          0.1 0.0090033206    8.4872961  0.029894458 
number of iterations: 1754 
   11000    38.852878      383          193          190 1.9668099e-13 1.7279454e-14          0.1 0.0090033582    8.6341159  0.029894396 
number of iterations: 1817 
   11100    39.109673      387          196          191 1.9928744e-13 1.7452227e-14          0.1 0.0090034075     8.782874  0.029894313 
number of iterations: 1757 
   11200    39.324692      391          198          193 2.0192843e-13 1.7627661e-14          0.1 0.0090034526    8.9335956  0.029894238 
number of iterations: 1781 
   11300    39.528731      398          203          195 2.0460443e-13 1.7805793e-14          0.1 0.0090034996    9.0863069   0.02989416 
number of iterations: 1769 
   11400    39.746519      403          206          197 2.0731588e-13 1.7986656e-14          0.1 0.0090035382    9.2410344  0.029894095 
number of iterations: 1772 
   11500    39.946242      404          207          197 2.1006327e-13 1.8170287e-14          0.1 0.0090035904    9.3978045  0.029894008 
number of iterations: 1774 
   11600    40.190672      406          209          197 2.1284707e-13 1.8356721e-14          0.1 0.0090036341    9.5566443  0.029893935 
number of iterations: 1816 
   11700    40.421193      411          213          198 2.1566775e-13 1.8545998e-14          0.1 0.0090036853    9.7175811   0.02989385 
number of iterations: 1737 
   11800    40.623678      416          217          199 2.1852582e-13 1.8738153e-14          0.1 0.0090037279     9.880642  0.029893778 
number of iterations: 1852 
   11900    40.827013      421          221          200 2.2142177e-13 1.8933225e-14          0.1 0.0090037901    10.045856  0.029893675 
number of iterations: 1782 
   12000    41.028943      427          227          200 2.2435609e-13 1.9131253e-14          0.1 0.0090038393    10.213251  0.029893593 
number of iterations: 1789 
   12100    41.255947      438          232          206 2.273293e-13 1.9332277e-14          0.1 0.0090038955    10.382857  0.029893499 
number of iterations: 1790 
   12200    41.471353      443          234          209 2.3034191e-13 1.9536337e-14          0.1 0.0090039471    10.554702  0.029893413 
number of iterations: 1797 
   12300    41.685576      447          236          211 2.3339444e-13 1.9743474e-14          0.1 0.0090039994    10.728817  0.029893325 
number of iterations: 1752 
   12400    41.888978      452          239          213 2.3648742e-13 1.9953731e-14          0.1 0.0090040505    10.905231   0.02989324 
number of iterations: 1904 
   12500     42.10918      460          244          216 2.396214e-13 2.0167148e-14          0.1  0.009004115    11.083975  0.029893133 
number of iterations: 1801 
   12600    42.308258      465          248          217 2.427969e-13 2.0383769e-14          0.1 0.0090041735     11.26508  0.029893035 
number of iterations: 1765 
   12700    42.520659      470          251          219 2.4601449e-13 2.060364e-14          0.1 0.0090042141    11.448576  0.029892967 
number of iterations: 1809 
   12800    42.704127      478          255          223 2.4927472e-13 2.0826801e-14          0.1 0.0090042721    11.634497   0.02989287 
number of iterations: 1832 
   12900    42.909904      481          256          225 2.5257815e-13 2.1053299e-14          0.1 0.0090043291    11.822873  0.029892775 
number of iterations: 1780 
   13000    43.143948      489          262          227 2.5592536e-13 2.128318e-14          0.1 0.0090043799    12.013737   0.02989269 
number of iterations: 1826 
   13100    43.374026      493          265          228 2.5931693e-13 2.151649e-14          0.1 0.0090044437    12.207122  0.029892584 
number of iterations: 1846 
   13200    43.615261      498          266          232 2.6275345e-13 2.1753275e-14          0.1 0.0090045048    12.403062  0.029892482 
number of iterations: 1818 
   13300    43.823771      500          266          234 2.662355e-13 2.1993585e-14          0.1 0.0090045645     12.60159  0.029892382 
number of iterations: 1866 
   13400    44.014849      508          271          237 2.697637e-13 2.2237466e-14          0.1 0.0090046371    12.802742  0.029892261 
number of iterations: 1836 
   13500    44.213114      513          274          239 2.7333866e-13 2.2484967e-14          0.1 0.0090047016     13.00655  0.029892153 
number of iterations: 1880 
   13600    44.438804      518          277          241 2.7696099e-13 2.2736139e-14          0.1 0.0090047668    13.213051  0.029892044 
number of iterations: 1832 
   13700    44.672394      521          279          242 2.8063132e-13 2.2991032e-14          0.1   0.00900483     13.42228  0.029891939 
number of iterations: 1839 
   13800    44.876997      528          282          246 2.843503e-13 2.3249698e-14          0.1 0.0090048977    13.634273  0.029891826 
number of iterations: 1841 
   13900    45.082865      533          283          250 2.8811856e-13 2.3512187e-14          0.1 0.0090049637    13.849068  0.029891716 
number of iterations: 1881 
   14000    45.288693      540          285          255 2.9193675e-13 2.3778555e-14          0.1 0.0090050306    14.066701  0.029891604 
number of iterations: 1844 
   14100    45.553151      546          289          257 2.9580555e-13 2.4048853e-14          0.1 0.0090050928    14.287209    0.0298915 
number of iterations: 1781 
   14200    45.780158      551          294          257 2.9972561e-13 2.4323139e-14          0.1 0.0090051492    14.510631  0.029891406 
number of iterations: 1942 
   14300    45.982799      556          298          258 3.0369763e-13 2.4601467e-14          0.1 0.0090052188    14.737005   0.02989129 
number of iterations: 1852 
   14400    46.187275      561          300          261 3.0772228e-13 2.4883892e-14          0.1 0.0090052834     14.96637  0.029891182 
number of iterations: 1852 
   14500    46.399333      572          305          267 3.1180027e-13 2.5170472e-14          0.1 0.0090053597    15.198766  0.029891055 
number of iterations: 1865 
   14600    46.785692      577          310          267 3.159323e-13 2.5461264e-14          0.1 0.0090054276    15.434232  0.029890941 
number of iterations: 1888 
   14700    47.003816      587          317          270 3.2011909e-13 2.5756327e-14          0.1 0.0090055147     15.67281  0.029890796 
number of iterations: 1845 
   14800     47.20844      592          320          272 3.2436136e-13 2.6055722e-14          0.1 0.0090055863     15.91454  0.029890677 
number of iterations: 1870 
   14900    47.430507      597          323          274 3.2865985e-13 2.6359508e-14          0.1 0.0090056603    16.159465  0.029890553 
number of iterations: 1890 
   15000    47.682261      603          327          276 3.330153e-13 2.6667748e-14          0.1 0.0090057295    16.407625  0.029890437 
number of iterations: 1894 
   15100    47.888325      612          332          280 3.3742848e-13 2.6980503e-14          0.1 0.0090058072    16.659065  0.029890308 
number of iterations: 1773 
   15200    48.078825      622          339          283 3.4190013e-13 2.7297836e-14          0.1 0.0090058683    16.913826  0.029890206 
number of iterations: 1944 
   15300     48.29016      632          344          288 3.4643105e-13 2.7619812e-14          0.1 0.0090059567    17.171955  0.029890058 
number of iterations: 1876 
   15400    48.515059      642          350          292 3.5102201e-13 2.7946499e-14          0.1 0.0090060348    17.433494  0.029889928 
number of iterations: 1902 
   15500    48.717672      650          354          296 3.5567381e-13 2.8277959e-14          0.1 0.0090061175     17.69849   0.02988979 
number of iterations: 1876 
   15600    48.934576      654          354          300 3.6038726e-13 2.8614262e-14          0.1 0.0090061985    17.966988  0.029889654 
number of iterations: 1890 
   15700    49.141578      661          358          303 3.6516317e-13 2.8955474e-14          0.1 0.0090062762    18.239034  0.029889525 
number of iterations: 1890 
   15800    49.388987      663          359          304 3.7000237e-13 2.9301666e-14          0.1 0.0090063542    18.514675  0.029889395 
number of iterations: 1881 
   15900    49.629547      674          367          307 3.749057e-13 2.9652907e-14          0.1 0.0090064334    18.793959  0.029889262 
number of iterations: 1900 
   16000    49.870083      680          369          311 3.7987401e-13 3.0009268e-14          0.1 0.0090065186    19.076933   0.02988912 
number of iterations: 1888 
   16100    50.087909      694          376          318 3.8490816e-13 3.0370823e-14          0.1 0.0090066053    19.363647  0.029888975 
number of iterations: 1906 
   16200    50.354259      707          385          322 3.9000902e-13 3.0737645e-14          0.1  0.009006702    19.654152  0.029888814 
number of iterations: 1960 
   16300    50.563419      720          392          328 3.9517748e-13 3.1109808e-14          0.1 0.0090067885    19.948495   0.02988867 
number of iterations: 1916 
   16400    50.772685      727          394          333 4.0041443e-13 3.1487388e-14          0.1 0.0090068797    20.246728  0.029888517 
number of iterations: 1928 
   16500    50.986994      735          399          336 4.0572079e-13 3.1870461e-14          0.1 0.0090069771    20.548902  0.029888355 
number of iterations: 1917 
   16600    51.228218      743          404          339 4.1109746e-13 3.2259105e-14          0.1 0.0090070844     20.85507  0.029888176 
number of iterations: 1904 
   16700    51.441716      756          411          345 4.1654539e-13 3.2653397e-14          0.1 0.0090071728    21.165284  0.029888028 
number of iterations: 1879 
   16800    51.917072      765          414          351 4.2206551e-13 3.3053419e-14          0.1 0.0090072503    21.479598  0.029887899 
number of iterations: 1940 
   16900    52.116145      776          421          355 4.2765879e-13 3.345925e-14          0.1 0.0090073396    21.798065   0.02988775 
number of iterations: 1925 
   17000    52.368456      787          425          362 4.3332619e-13 3.3870976e-14          0.1 0.0090074369    22.120741  0.029887587 
number of iterations: 1928 
   17100    52.566616      793          428          365 4.3906869e-13 3.4288678e-14          0.1   0.00900755    22.447681  0.029887398 
number of iterations: 1948 
   17200    52.778274      808          435          373 4.4488729e-13 3.4712442e-14          0.1  0.009007654    22.778943  0.029887225 
number of iterations: 1973 
   17300     52.97843      821          442          379  4.50783e-13 3.5142354e-14          0.1 0.0090077567    23.114582  0.029887053 
number of iterations: 1995 
   17400    53.199572      838          454          384 4.5675685e-13 3.5578505e-14          0.1 0.0090078661    23.454658  0.029886871 
number of iterations: 1938 
   17500    53.437959      847          459          388 4.6280986e-13 3.6020978e-14          0.1 0.0090079728     23.79923  0.029886692 
number of iterations: 1940 
   17600    53.707182      853          463          390 4.6894308e-13 3.6469867e-14          0.1  0.009008076    24.148355   0.02988652 
number of iterations: 1913 
   17700     53.94014      869          474          395 4.7515758e-13 3.692526e-14          0.1 0.0090081766    24.502094  0.029886352 
number of iterations: 1989 
   17800    54.154413      882          485          397 4.8145444e-13 3.7387254e-14          0.1  0.009008285    24.860508  0.029886171 
number of iterations: 1908 
   17900    54.410547      887          488          399 4.8783474e-13 3.7855939e-14          0.1 0.0090083833    25.223659  0.029886007 
number of iterations: 1956 
   18000    54.637538      895          492          403 4.9429959e-13 3.8331412e-14          0.1 0.0090085069    25.591609  0.029885801 
number of iterations: 1972 
   18100    54.846856      911          497          414 5.0085012e-13 3.881377e-14          0.1 0.0090086205    25.964422  0.029885611 
number of iterations: 1871 
   18200     55.06385      923          501          422 5.0748746e-13 3.930311e-14          0.1 0.0090087168    26.342162   0.02988545 
number of iterations: 2028 
   18300    55.270588      936          508          428 5.1421275e-13 3.9799531e-14          0.1 0.0090088417    26.724894  0.029885242 
number of iterations: 1932 
   18400    55.501117      948          515          433 5.2102717e-13 4.0303134e-14          0.1 0.0090089513    27.112684  0.029885059 
number of iterations: 1939 
   18500    55.726858      957          522          435 5.2793189e-13 4.0814023e-14          0.1 0.0090090695      27.5056  0.029884862 
number of iterations: 1994 
   18600     55.93983      970          530          440 5.3492812e-13 4.1332302e-14          0.1  0.009009187    27.903708  0.029884665 
number of iterations: 2027 
   18700    56.161399      980          536          444 5.4201706e-13 4.1858076e-14          0.1 0.0090093241    28.307078  0.029884437 
number of iterations: 2012 
   18800     56.38114      997          544          453 5.4919994e-13 4.2391452e-14          0.1 0.0090094567    28.715778  0.029884216 
number of iterations: 1998 
   18900     56.76783     1009          549          460 5.5647801e-13 4.2932538e-14          0.1 0.0090095895    29.129879  0.029883994 
number of iterations: 1974 
   19000    56.966534     1022          561          461 5.6385253e-13 4.3481446e-14          0.1 0.0090096868    29.549454  0.029883831 
number of iterations: 2001 
   19100    57.204582     1035          568          467 5.7132478e-13 4.4038288e-14          0.1 0.0090098174    29.974573  0.029883613 
number of iterations: 2021 
   19200    57.430043     1043          571          472 5.7889605e-13 4.4603175e-14          0.1 0.0090099514     30.40531  0.029883389 
number of iterations: 1979 
   19300    57.636887     1058          578          480 5.8656765e-13 4.5176224e-14          0.1 0.0090100662    30.841739  0.029883198 
number of iterations: 2020 
   19400    57.877643     1075          591          484 5.9434092e-13 4.5757552e-14          0.1 0.0090102142    31.283935  0.029882951 
number of iterations: 2000 
   19500    58.100315     1092          598          494 6.022172e-13 4.6347277e-14          0.1 0.0090103417    31.731975  0.029882738 
number of iterations: 1959 
   19600     58.32769     1108          607          501 6.1019786e-13 4.6945519e-14          0.1 0.0090104673    32.185936  0.029882528 
number of iterations: 2005 
   19700    58.551178     1115          611          504 6.1828428e-13  4.75524e-14          0.1 0.0090106081    32.645896  0.029882293 
number of iterations: 2035 
   19800    58.801475     1126          618          508 6.2647786e-13 4.8168045e-14          0.1 0.0090107424    33.111935  0.029882069 
number of iterations: 2001 
   19900    59.033024     1140          626          514 6.3478002e-13 4.8792579e-14          0.1 0.0090108866    33.584134  0.029881828 
number of iterations: 1999 
   20000    59.243084     1149          630          519 6.431922e-13 4.9426128e-14          0.1 0.0090110328    34.062572  0.029881584 
number of iterations: 1967 
   20100    59.458685     1168          640          528 6.5171586e-13 5.0068824e-14          0.1 0.0090111757    34.547335  0.029881345 
number of iterations: 1982 
   20200    59.719486     1182          647          535 6.6035248e-13 5.0720796e-14          0.1 0.0090113097    35.038504  0.029881122 
number of iterations: 2027 
   20300    59.940114     1196          655          541 6.6910355e-13 5.1382178e-14          0.1 0.0090114575    35.536164  0.029880875 
number of iterations: 2015 
   20400    60.156287     1212          663          549 6.7797059e-13 5.2053106e-14          0.1 0.0090116007    36.040399  0.029880636 
number of iterations: 2023 
   20500    60.402978     1234          673          561 6.8695514e-13 5.2733716e-14          0.1 0.0090117474      36.5513  0.029880391 
number of iterations: 1996 
   20600    60.630903     1244          679          565 6.9605874e-13 5.3424147e-14          0.1 0.0090118987    37.068952  0.029880138 
number of iterations: 2022 
   20700     60.87118     1258          685          573 7.0528299e-13 5.4124539e-14          0.1 0.0090120549    37.593445  0.029879878 
number of iterations: 2056 
   20800    61.129019     1274          698          576 7.1462948e-13 5.4835038e-14          0.1 0.0090122164    38.124872  0.029879608 
number of iterations: 1987 
   20900    61.347404     1292          709          583 7.2409983e-13 5.5555786e-14          0.1 0.0090123641    38.663322  0.029879361 
number of iterations: 2111 
   21000    61.623372     1306          716          590 7.3369568e-13 5.6286932e-14          0.1 0.0090125295    39.208887  0.029879085 
number of iterations: 2005 
   21100    61.943872     1329          726          603 7.434187e-13 5.7028625e-14          0.1 0.0090126845    39.761662  0.029878826 
number of iterations: 2053 
   21200     62.16051     1340          733          607 7.5327056e-13 5.7781017e-14          0.1  0.009012862    40.321742   0.02987853 
number of iterations: 2022 
   21300    62.382674     1358          744          614 7.6325298e-13 5.8544262e-14          0.1 0.0090130288    40.889223  0.029878251 
number of iterations: 2008 
   21400    62.625083     1372          751          621 7.7336769e-13 5.9318515e-14          0.1 0.0090131762    41.464204  0.029878005 
number of iterations: 2043 
   21500    62.847825     1394          762          632 7.8361644e-13 6.0103933e-14          0.1 0.0090133495    42.046784  0.029877716 
number of iterations: 2089 
   21600    63.074808     1416          777          639  7.94001e-13 6.0900678e-14          0.1 0.0090135301    42.637062  0.029877414 
number of iterations: 2114 
   21700    63.315202     1434          784          650 8.0452318e-13 6.1708914e-14          0.1 0.0090137267    43.235142  0.029877086 
number of iterations: 2050 
   21800     63.57741     1465          803          662 8.1518481e-13 6.2528804e-14          0.1 0.0090138933    43.841124  0.029876808 
number of iterations: 2081 
   21900    63.797398     1483          811          672 8.2598771e-13 6.3360517e-14          0.1 0.0090140925    44.455114  0.029876475 
number of iterations: 2030 
   22000    64.024629     1506          822          684 8.3693378e-13 6.4204221e-14          0.1 0.0090142744    45.077218  0.029876172 
number of iterations: 2038 
   22100    64.268009     1532          838          694 8.4802491e-13 6.506009e-14          0.1 0.0090144494    45.707544  0.029875879 
number of iterations: 2081 
   22200    64.483303     1552          850          702 8.5926302e-13 6.5928299e-14          0.1 0.0090146491    46.346198  0.029875546 
number of iterations: 2030 
   22300     64.70299     1574          862          712 8.7065005e-13 6.6809027e-14          0.1 0.0090148359    46.993293  0.029875234 
number of iterations: 2067 
   22400    64.918239     1595          874          721 8.8218798e-13 6.7702454e-14          0.1 0.0090150225     47.64894  0.029874922 
number of iterations: 2059 
   22500    65.186158     1609          880          729 8.9387882e-13 6.8608761e-14          0.1 0.0090152309     48.31325  0.029874574 
number of iterations: 2064 
   22600    65.403079     1631          895          736 9.0572458e-13 6.9528133e-14          0.1 0.0090154214    48.986339  0.029874256 
number of iterations: 2036 
   22700    65.629631     1659          909          750 9.1772732e-13 7.0460759e-14          0.1 0.0090155979    49.668324  0.029873961 
number of iterations: 2075 
   22800     65.88292     1674          914          760 9.2851854e-13 7.1406825e-14          0.1 0.0090157535    50.358272  0.029873701 
number of iterations: 2093 
   22900    66.108749     1699          931          768 9.4082334e-13 7.2366529e-14          0.1 0.0090159781    51.057337  0.029873327 
number of iterations: 2108 
   23000    66.339578     1723          944          779 9.5329121e-13 7.3340067e-14          0.1 0.0090161877    51.765639  0.029872976 
number of iterations: 2080 
   23100     66.58207     1746          954          792 9.6592431e-13 7.4327637e-14          0.1 0.0090163665      52.4833  0.029872678 
number of iterations: 2101 
   23200    67.025453     1767          967          800 9.7872481e-13 7.5329442e-14          0.1 0.0090165953    53.210445  0.029872296 
number of iterations: 2098 
   23300    67.242484     1790          979          811 9.9169495e-13 7.6345687e-14          0.1 0.0090168115    53.947199  0.029871935 
number of iterations: 2138 
   23400      67.5051     1816          995          821 1.004837e-12 7.737658e-14          0.1  0.009017033    54.693688  0.029871565 
number of iterations: 2090 
   23500    67.744876     1838         1006          832 1.0169024e-12 7.8422333e-14          0.1 0.0090172309    55.449082  0.029871234 
number of iterations: 2051 
   23600    67.966466     1858         1019          839 1.0303785e-12 7.9483156e-14          0.1 0.0090174496    56.214457  0.029870869 
number of iterations: 2125 
   23700    68.210323     1890         1038          852 1.0440331e-12 8.055927e-14          0.1 0.0090176637    56.989947  0.029870512 
number of iterations: 2071 
   23800    68.457926     1925         1056          869 1.0578687e-12 8.1650895e-14          0.1 0.0090178867    57.775684  0.029870139 
number of iterations: 2137 
   23900    68.691941     1946         1068          878 1.0705093e-12 8.2758248e-14          0.1 0.0090181021    58.570749  0.029869779 
number of iterations: 2095 
   24000    68.931919     1972         1080          892 1.0846957e-12 8.3881563e-14          0.1 0.0090183134    59.376318  0.029869426 
number of iterations: 2074 
   24100    69.165133     1998         1093          905 1.0990702e-12 8.5021064e-14          0.1 0.0090185339    60.192532  0.029869058 
number of iterations: 2128 
   24200    69.385713     2024         1107          917 1.1136351e-12 8.6176987e-14          0.1 0.0090187756    61.019532  0.029868655 
number of iterations: 2103 
   24300    69.658082     2050         1122          928 1.1283931e-12 8.734957e-14          0.1 0.0090190075    61.857457  0.029868267 
number of iterations: 2126 
   24400    69.895485     2081         1136          945 1.1433466e-12 8.8539054e-14          0.1 0.0090192726    62.706454  0.029867825 
number of iterations: 2119 
   24500    70.138862     2108         1153          955 1.1584983e-12 8.9745681e-14          0.1 0.0090195258     63.56667  0.029867402 
number of iterations: 2147 
   24600     70.41829     2137         1172          965 1.1738508e-12  9.09697e-14          0.1 0.0090198121    64.438251  0.029866924 
number of iterations: 2168 
   24700    70.666024     2163         1179          984 1.1894068e-12 9.2211361e-14          0.1 0.0090200971     65.32135  0.029866448 
number of iterations: 2148 
   24800    70.909394     2186         1189          997 1.2051689e-12 9.3470918e-14          0.1 0.0090203842    66.216117  0.029865969 
number of iterations: 2140 
   24900    71.150148     2216         1206         1010 1.2211398e-12 9.4748632e-14          0.1  0.009020638    67.122708  0.029865545 
number of iterations: 2153 
   25000    71.377559     2247         1224         1023 1.2359417e-12 9.6044756e-14          0.1 0.0090208955    68.040219  0.029865115 
number of iterations: 2167 
   25100    71.604184     2271         1238         1033 1.2523205e-12 9.735956e-14          0.1 0.0090211545    68.969853  0.029864682 
number of iterations: 2148 
   25200    71.959061     2302         1250         1052 1.2679321e-12 9.8693312e-14          0.1 0.0090214101    69.911018  0.029864255 
number of iterations: 2159 
   25300    72.185381     2327         1262         1065 1.2847348e-12 1.0004629e-13          0.1 0.0090217099    70.864618  0.029863755 
number of iterations: 2141 
   25400    72.405515     2354         1271         1083 1.3017602e-12 1.0141876e-13          0.1 0.0090219785    71.830818  0.029863306 
number of iterations: 2162 
   25500    72.653216     2375         1282         1093 1.3190112e-12 1.0281102e-13          0.1  0.009022269    72.809783  0.029862821 
number of iterations: 2131 
   25600    72.898842     2410         1300         1110 1.3364908e-12 1.0422335e-13          0.1  0.009022567    73.801684  0.029862323 
number of iterations: 2146 
   25700    73.140905     2436         1312         1124 1.354202e-12 1.0565603e-13          0.1 0.0090228608    74.806689  0.029861833 
number of iterations: 2168 
   25800    73.387907     2479         1337         1142 1.3721479e-12 1.0710936e-13          0.1 0.0090231654    75.824973  0.029861324 
number of iterations: 2152 
   25900    73.656354     2507         1353         1154 1.3903317e-12 1.0858364e-13          0.1 0.0090234652     76.85671  0.029860823 
number of iterations: 2193 
   26000    73.922354     2548         1379         1169 1.4087564e-12 1.1007917e-13          0.1 0.0090237566    77.902077  0.029860337 
number of iterations: 2163 
   26100    74.163994     2584         1395         1189 1.4274253e-12 1.1159626e-13          0.1 0.0090240584    78.961255  0.029859833 
number of iterations: 2168 
   26200    74.391162     2613         1416         1197 1.4463416e-12 1.1313521e-13          0.1  0.009024376    80.034428  0.029859302 
number of iterations: 2173 
   26300    74.629266     2658         1441         1217 1.4655085e-12 1.1469636e-13          0.1 0.0090246751    81.121782  0.029858803 
number of iterations: 2198 
   26400    74.860756     2687         1457         1230 1.4849295e-12   1.1628e-13          0.1 0.0090250172    82.223503  0.029858231 
number of iterations: 2175 
   26500     75.11808     2723         1472         1251 1.5032039e-12 1.1788647e-13          0.1 0.0090252994    83.338705   0.02985776 
number of iterations: 2201 
   26600    75.373228     2748         1486         1262 1.5231244e-12 1.195161e-13          0.1 0.0090256408    84.468642   0.02985719 
number of iterations: 2187 
   26700    75.624534     2787         1506         1281 1.5433089e-12 1.2116923e-13          0.1  0.009025988    85.613507   0.02985661 
number of iterations: 2219 
   26800    75.916007     2844         1539         1305 1.5637608e-12 1.2284618e-13          0.1 0.0090263318    86.773498  0.029856036 
number of iterations: 2141 
   26900    76.149358     2885         1561         1324 1.5832852e-12 1.2454731e-13          0.1 0.0090266117    87.947895  0.029855568 
number of iterations: 2201 
   27000    76.395786     2928         1586         1342 1.6042669e-12 1.2627296e-13          0.1 0.0090269705    89.137808  0.029854969 
number of iterations: 2249 
   27100    76.749971     2958         1603         1355 1.6255267e-12 1.280235e-13          0.1 0.0090273399     90.34344  0.029854352 
number of iterations: 2194 
   27200    77.126089     3006         1623         1383 1.6470682e-12 1.2979926e-13          0.1 0.0090276928       91.565  0.029853763 
number of iterations: 2206 
   27300    77.362271     3046         1649         1397 1.6688952e-12 1.3160064e-13          0.1 0.0090280809    92.802698  0.029853115 
number of iterations: 2150 
   27400    77.616033     3089         1674         1415 1.6910114e-12 1.3342798e-13          0.1  0.009028415    94.056748  0.029852556 
number of iterations: 2200 
   27500    77.875227     3125         1689         1436 1.7134206e-12 1.3528167e-13          0.1 0.0090287681    95.327364  0.029851967 
number of iterations: 2192 
   27600    78.140995     3164         1711         1453 1.7337874e-12 1.3716209e-13          0.1 0.0090291286    96.612979  0.029851365 
number of iterations: 2231 
   27700    78.395582     3200         1727         1473 1.7567636e-12 1.3906962e-13          0.1 0.0090295206    97.915575   0.02985071 
number of iterations: 2225 
   27800    78.679125     3228         1744         1484 1.7800442e-12 1.4100466e-13          0.1 0.0090299234     99.23538  0.029850037 
number of iterations: 2245 
   27900    78.935535     3278         1767         1511 1.8027034e-12 1.4296759e-13          0.1 0.0090303351    100.57191   0.02984935 
number of iterations: 2234 
   28000    79.191125     3327         1791         1536 1.8265928e-12 1.4495883e-13          0.1 0.0090307011    101.92609  0.029848738 
number of iterations: 2227 
   28100    79.447552     3381         1825         1556 1.8493508e-12 1.4697879e-13          0.1 0.0090310753    103.29706  0.029848113 
number of iterations: 2176 
   28200    79.696873     3426         1846         1580 1.8738584e-12 1.4902787e-13          0.1 0.0090314343    104.68614  0.029847513 
number of iterations: 2239 
   28300    79.954171     3475         1873         1602 1.8986908e-12 1.511065e-13          0.1 0.0090318388    106.09356  0.029846838 
number of iterations: 2265 
   28400    80.234166     3513         1896         1617 1.9238522e-12 1.532151e-13          0.1 0.0090322693    107.51958  0.029846119 
number of iterations: 2262 
   28500    80.519678     3560         1919         1641 1.9480619e-12 1.5535411e-13          0.1 0.0090326966    108.96346  0.029845405 
number of iterations: 2279 
   28600    80.775239     3606         1939         1667 1.9738776e-12 1.5752397e-13          0.1 0.0090331717     110.4264  0.029844612 
number of iterations: 2222 
   28700    81.023945     3671         1972         1699 2.0000353e-12 1.5972512e-13          0.1 0.0090336049    111.90868  0.029843888 
number of iterations: 2213 
   28800    81.307345     3732         2004         1728 2.0265397e-12 1.6195802e-13          0.1 0.0090340418    113.41053  0.029843159 
number of iterations: 2247 
   28900    81.582809     3790         2036         1754 2.0533954e-12 1.6422313e-13          0.1 0.0090344744    114.93223  0.029842436 
number of iterations: 2218 
   29000    81.896341     3850         2064         1786 2.0794173e-12 1.665209e-13          0.1 0.0090348815    116.47311  0.029841756 
number of iterations: 2272 
   29100    82.211792     3888         2085         1803 2.1069736e-12 1.6885182e-13          0.1 0.0090353639    118.03435  0.029840951 
number of iterations: 2262 
   29200    82.506328     3949         2121         1828 2.1348952e-12 1.7121635e-13          0.1 0.0090358452    119.61621  0.029840147 
number of iterations: 2267 
   29300    82.766273     3997         2149         1848 2.1631867e-12 1.7361499e-13          0.1 0.0090362894    121.21896  0.029839405 
number of iterations: 2275 
   29400    83.019102     4037         2171         1866 2.1918532e-12 1.7604824e-13          0.1 0.0090367942    122.84289  0.029838562 
number of iterations: 2292 
   29500    83.287362     4111         2208         1903 2.2208995e-12 1.7851658e-13          0.1 0.0090373033    124.48827  0.029837712 
number of iterations: 2270 
   29600    83.606064     4178         2242         1936 2.2503307e-12 1.8102054e-13          0.1 0.0090378516    126.15538  0.029836796 
number of iterations: 2292 
   29700    83.872694     4227         2270         1957 2.280152e-12 1.8356061e-13          0.1 0.0090383931    127.84452  0.029835892 
number of iterations: 2262 
   29800    84.142095     4284         2296         1988 2.3103684e-12 1.8613733e-13          0.1 0.0090388727    129.55597  0.029835091 
number of iterations: 2274 
   29900    84.420922     4334         2325         2009 2.3409853e-12 1.8875123e-13          0.1 0.0090394049    131.29002  0.029834202 
number of iterations: 2237 
   30000    84.695173     4381         2350         2031 2.3706968e-12 1.9140284e-13          0.1 0.0090398629    133.04597  0.029833437 
number of iterations: 2244 
   30100    84.962074     4438         2385         2053 2.4021131e-12 1.940927e-13          0.1 0.0090403785    134.82512  0.029832575 
number of iterations: 2316 
   30200    85.230483     4497         2411         2086 2.4339458e-12 1.9682138e-13          0.1 0.0090409297    136.62777  0.029831655 
number of iterations: 2297 
   30300    85.494531     4546         2438         2108 2.4662002e-12 1.9958943e-13          0.1 0.0090414497    138.45423  0.029830786 
number of iterations: 2285 
   30400    85.809937     4606         2465         2141 2.4975693e-12 2.0239741e-13          0.1  0.009041943    140.30381  0.029829962 
number of iterations: 2283 
   30500    86.107947     4673         2492         2181 2.5306669e-12 2.0524591e-13          0.1  0.009042512    142.17783  0.029829012 
number of iterations: 2292 
   30600    86.391682     4734         2521         2213 2.5642031e-12 2.0813551e-13          0.1 0.0090430473     144.0766  0.029828118 
number of iterations: 2258 
   30700    86.659559     4800         2553         2247 2.5968615e-12 2.1106681e-13          0.1  0.009043571    145.99943  0.029827242 
number of iterations: 2316 
   30800    87.123343     4870         2584         2286 2.6312749e-12 2.1404041e-13          0.1 0.0090441712    147.94766   0.02982624 
number of iterations: 2310 
   30900    87.396136     4932         2623         2309 2.6661443e-12 2.1705693e-13          0.1 0.0090447697    149.92163   0.02982524 
number of iterations: 2288 
   31000    87.659165     5004         2656         2348 2.7014758e-12 2.2011699e-13          0.1 0.0090453349    151.92166  0.029824296 
number of iterations: 2327 
   31100    87.940466     5071         2693         2378 2.7364016e-12 2.2322119e-13          0.1 0.0090458941    153.94745  0.029823362 
number of iterations: 2302 
   31200    88.213679     5139         2731         2408 2.7726641e-12 2.2629734e-13          0.1 0.0090464654    156.00002  0.029822408 
number of iterations: 2325 
   31300    88.557413     5195         2762         2433 2.8083292e-12 2.2949076e-13          0.1  0.009047053    158.07888  0.029821426 
number of iterations: 2308 
   31400    88.848306     5259         2797         2462 2.8455449e-12 2.3273028e-13          0.1 0.0090476652    160.18519  0.029820403 
number of iterations: 2281 
   31500    89.141666     5326         2836         2490 2.8804575e-12 2.3601655e-13          0.1 0.0090482523    162.31718  0.029819423 
number of iterations: 2321 
   31600    89.410647     5390         2876         2514 2.9175798e-12 2.3935026e-13          0.1 0.0090487768    164.47652  0.029818546 
number of iterations: 2304 
   31700    89.679889     5457         2907         2550 2.9534514e-12 2.4273207e-13          0.1 0.0090494056    166.66225  0.029817496 
number of iterations: 2275 
   31800    89.943573     5529         2939         2590 2.991133e-12 2.461627e-13          0.1 0.0090499902    168.87574  0.029816519 
number of iterations: 2303 
   31900    90.236086     5612         2973         2639 3.0307711e-12 2.4964285e-13          0.1 0.0090506318    171.11846  0.029815447 
number of iterations: 2329 
   32000    90.750137     5682         3007         2675 3.0700078e-12 2.5306859e-13          0.1 0.0090512944    173.39013   0.02981434 
number of iterations: 2330 
   32100     91.01924     5756         3043         2713 3.1093651e-12 2.5664845e-13          0.1 0.0090519337    175.69078  0.029813272 
number of iterations: 2319 
   32200    91.319913     5841         3088         2753  3.15057e-12 2.6027999e-13          0.1 0.0090526257    178.02182  0.029812116 
number of iterations: 2337 
   32300    91.607049     5925         3132         2793 3.1899684e-12 2.6396396e-13          0.1 0.0090532294    180.38184  0.029811107 
number of iterations: 2288 
   32400    92.069531     6003         3167         2836 3.2290126e-12 2.677011e-13          0.1 0.0090538581    182.77057  0.029810057 
number of iterations: 2380 
   32500    92.354224     6075         3196         2879 3.2706199e-12 2.7149219e-13          0.1 0.0090545323    185.18994   0.02980893 
number of iterations: 2316 
   32600    92.633798     6148         3240         2908 3.3128817e-12 2.7533801e-13          0.1 0.0090552077    187.64044  0.029807802 
number of iterations: 2385 
   32700    92.920183     6251         3297         2954 3.3546625e-12 2.7911863e-13          0.1  0.009055962    190.12174  0.029806542 
number of iterations: 2375 
   32800    93.201653     6343         3346         2997 3.3991179e-12 2.8307459e-13          0.1 0.0090566999    192.63581  0.029805309 
number of iterations: 2360 
   32900    93.510494     6432         3382         3050 3.4433546e-12 2.8708766e-13          0.1 0.0090574102    195.18247  0.029804123 
number of iterations: 2372 
   33000    93.811356     6519         3426         3093 3.4889854e-12 2.9115867e-13          0.1 0.0090581863    197.76277  0.029802826 
number of iterations: 2378 
   33100    94.106898     6619         3476         3143 3.5341614e-12 2.9528845e-13          0.1 0.0090589757    200.37633  0.029801508 
number of iterations: 2327 
   33200    94.388352     6717         3522         3195 3.5770955e-12 2.9947787e-13          0.1 0.0090596794    203.02143  0.029800332 
number of iterations: 2347 
   33300       94.684     6815         3570         3245 3.6222233e-12 3.0372777e-13          0.1 0.0090604737    205.69972  0.029799005 
number of iterations: 2350 
   33400    94.968163     6909         3624         3285 3.6702244e-12 3.0803905e-13          0.1 0.0090612963    208.41338  0.029797631 
number of iterations: 2398 
   33500    95.264871     7002         3673         3329 3.7178705e-12 3.1241258e-13          0.1 0.0090620827    211.16212  0.029796317 
number of iterations: 2389 
   33600    95.559995     7088         3721         3367 3.767139e-12 3.1684927e-13          0.1 0.0090628975    213.94715  0.029794956 
number of iterations: 2388 
   33700    95.889038     7195         3783         3412 3.8158128e-12 3.2135002e-13          0.1  0.009063739    216.76801  0.029793551 
number of iterations: 2370 
   33800    96.177308     7309         3845         3464 3.8663792e-12 3.2591578e-13          0.1 0.0090645652    219.62612   0.02979217 
number of iterations: 2379 
   33900    96.474316     7398         3894         3504 3.9117081e-12 3.3043252e-13          0.1 0.0090653498    222.51748  0.029790859 
number of iterations: 2351 
   34000    96.974288     7498         3936         3562 3.9635452e-12 3.3503444e-13          0.1 0.0090661216    225.44706   0.02978957 
number of iterations: 2342 
   34100    97.321536     7598         3995         3603 4.0126891e-12 3.3971905e-13          0.1 0.0090669181    228.41275  0.029788239 
number of iterations: 2392 
   34200    97.631999     7684         4034         3650 4.0618607e-12 3.4455017e-13          0.1 0.0090678276    231.41455  0.029786719 
number of iterations: 2420 
   34300    97.928011     7782         4078         3704 4.1156876e-12 3.493403e-13          0.1 0.0090687331    234.45604  0.029785207 
number of iterations: 2399 
   34400     98.23367     7895         4130         3765 4.1660607e-12 3.543104e-13          0.1 0.0090695827    237.53451  0.029783787 
number of iterations: 2404 
   34500    98.570029     8007         4175         3832 4.2212684e-12 3.5925494e-13          0.1 0.0090705092    240.65368  0.029782239 
number of iterations: 2426 
   34600    98.868987     8136         4233         3903 4.2772077e-12 3.6436827e-13          0.1 0.0090714482    243.81402  0.029780671 
number of iterations: 2383 
   34700    99.190514     8230         4274         3956 4.331271e-12 3.6955546e-13          0.1 0.0090723129    247.01412  0.029779226 
number of iterations: 2396 
   34800    99.492421     8329         4325         4004 4.3853441e-12 3.7481758e-13          0.1 0.0090732226    250.25391  0.029777706 
number of iterations: 2428 
   34900    99.805636     8422         4370         4052 4.4396302e-12 3.8015571e-13          0.1 0.0090740816    253.53358   0.02977627 
number of iterations: 2401 
   35000    100.14103     8533         4427         4106 4.4923221e-12 3.8557094e-13          0.1 0.0090749209    256.85184  0.029774867 
Loop time of 100.141 on 32 procs for 35000 steps with 8533 atoms

Performance: 301974050.707 tau/day, 349.507 timesteps/s
92.1% CPU use with 32 MPI tasks x no OpenMP threads

MPI task timing breakdown:
Section |  min time  |  avg time  |  max time  |%varavg| %total
---------------------------------------------------------------
Pair    | 0.0044862  | 0.12191    | 0.39282    |  23.9 |  0.12
Neigh   | 0.0034903  | 0.044048   | 0.11779    |  13.6 |  0.04
Comm    | 0.044104   | 0.23716    | 0.3741     |  12.6 |  0.24
Output  | 26.501     | 26.502     | 26.512     |   0.0 | 26.46
Modify  | 72.47      | 72.548     | 72.664     |   0.5 | 72.45
Other   |            | 0.6882     |            |       |  0.69

Nlocal:    266.656 ave 597 max 10 min
Histogram: 1 4 3 9 7 1 1 2 2 2
Nghost:    157.312 ave 356 max 13 min
Histogram: 2 2 5 8 3 6 4 1 0 1
Neighs:    1216.66 ave 3073 max 38 min
Histogram: 2 4 6 9 3 3 1 1 1 2

Total # of neighbors = 38933
Ave neighs/atom = 4.56264
Neighbor list builds = 674
Dangerous builds = 0
Total wall time: 0:01:40
