 NUFEB Simulation

     100 atoms 
     2 atom types 
     4 nutrients 

  0.0e-4   1.00e-04  xlo xhi 
  0.0e-4   1.00e-04  ylo yhi 
  0.0e-4   1.00e-05  zlo zhi 

 Atoms 

     1 1 1.89e-06  370 3.49e-05 1.90e-05 4.65e-06 1.89e-06 
     2 1 1.90e-06  370 2.48e-05 8.39e-05 3.96e-06 1.90e-06 
     3 1 1.65e-06  370 2.08e-05 3.10e-05 3.79e-06 1.65e-06 
     4 1 1.62e-06  370 1.28e-05 4.92e-05 6.25e-06 1.62e-06 
     5 1 1.63e-06  370 4.09e-05 2.10e-05 3.29e-06 1.63e-06 
     6 1 1.73e-06  370 1.17e-05 4.99e-05 3.38e-06 1.73e-06 
     7 1 1.64e-06  370 4.99e-05 7.74e-05 2.55e-06 1.64e-06 
     8 1 1.52e-06  370 2.87e-05 7.47e-06 3.05e-06 1.52e-06 
     9 1 1.85e-06  370 2.66e-05 9.61e-05 4.55e-06 1.85e-06 
     10 1 1.81e-06  370 2.88e-05 1.51e-05 1.87e-06 1.81e-06 
     11 1 1.89e-06  370 6.41e-06 6.12e-05 3.91e-06 1.89e-06 
     12 1 1.56e-06  370 2.37e-05 9.72e-05 2.54e-06 1.56e-06 
     13 1 1.81e-06  370 6.17e-05 3.79e-05 2.52e-06 1.81e-06 
     14 1 1.89e-06  370 8.41e-05 2.20e-05 3.37e-06 1.89e-06 
     15 1 1.61e-06  370 3.83e-05 7.64e-05 8.24e-06 1.61e-06 
     16 1 1.55e-06  370 2.94e-05 6.26e-05 4.96e-06 1.55e-06 
     17 1 1.92e-06  370 8.35e-05 1.89e-05 4.41e-06 1.92e-06 
     18 1 1.83e-06  370 9.06e-05 6.24e-05 2.26e-06 1.83e-06 
     19 1 1.40e-06  370 6.98e-05 3.22e-06 7.57e-06 1.40e-06 
     20 1 1.48e-06  370 2.25e-05 4.95e-06 4.84e-06 1.48e-06 
     21 1 1.83e-06  370 1.00e-05 2.72e-05 6.13e-06 1.83e-06 
     22 1 1.56e-06  370 5.02e-05 8.12e-05 1.97e-06 1.56e-06 
     23 1 1.86e-06  370 1.19e-05 3.00e-05 4.81e-06 1.86e-06 
     24 1 1.90e-06  370 1.27e-05 3.51e-05 4.14e-06 1.90e-06 
     25 1 1.91e-06  370 7.93e-06 3.04e-05 3.99e-06 1.91e-06 
     26 1 1.41e-06  370 4.97e-05 6.41e-05 7.52e-06 1.41e-06 
     27 1 1.45e-06  370 5.89e-06 2.08e-05 4.19e-06 1.45e-06 
     28 1 1.43e-06  370 8.61e-05 6.80e-05 5.36e-06 1.43e-06 
     29 1 1.67e-06  370 8.20e-05 8.59e-05 7.68e-06 1.67e-06 
     30 1 1.42e-06  370 3.73e-05 6.26e-05 5.28e-06 1.42e-06 
     31 1 1.39e-06  370 8.68e-05 1.51e-05 2.36e-06 1.39e-06 
     32 1 1.67e-06  370 4.88e-06 7.30e-05 5.84e-06 1.67e-06 
     33 1 1.56e-06  370 9.51e-05 9.04e-05 4.45e-06 1.56e-06 
     34 1 1.48e-06  370 2.89e-05 9.85e-05 1.76e-06 1.48e-06 
     35 1 1.90e-06  370 2.04e-05 1.28e-05 7.01e-06 1.90e-06 
     36 1 1.80e-06  370 5.30e-05 4.61e-05 4.89e-06 1.80e-06 
     37 1 1.53e-06  370 2.88e-05 3.72e-05 6.82e-06 1.53e-06 
     38 1 1.71e-06  370 7.13e-05 7.47e-05 3.78e-06 1.71e-06 
     39 1 1.86e-06  370 1.41e-05 5.73e-05 6.35e-06 1.86e-06 
     40 1 1.91e-06  370 7.16e-05 6.59e-05 4.37e-06 1.91e-06 
     41 1 1.52e-06  370 8.70e-05 8.49e-05 3.65e-06 1.52e-06 
     42 1 1.41e-06  370 1.87e-05 7.11e-05 6.32e-06 1.41e-06 
     43 1 1.54e-06  370 5.82e-05 6.41e-05 2.47e-06 1.54e-06 
     44 1 1.92e-06  370 9.48e-05 6.53e-05 6.18e-06 1.92e-06 
     45 1 1.45e-06  370 2.87e-05 7.53e-05 4.36e-06 1.45e-06 
     46 1 1.60e-06  370 4.40e-05 4.08e-05 7.49e-06 1.60e-06 
     47 1 1.55e-06  370 4.23e-05 4.80e-05 6.12e-06 1.55e-06 
     48 1 1.38e-06  370 4.24e-05 3.52e-05 3.46e-06 1.38e-06 
     49 1 1.44e-06  370 9.34e-05 2.37e-05 6.15e-06 1.44e-06 
     50 1 1.61e-06  370 9.25e-06 8.66e-05 3.70e-06 1.61e-06 
     51 2 8.95e-07  230 6.32e-05 8.77e-05 2.11e-06 8.95e-07 
     52 2 1.08e-06  230 7.87e-06 9.88e-05 8.24e-06 1.08e-06 
     53 2 1.14e-06  230 9.64e-05 8.21e-05 8.06e-06 1.14e-06 
     54 2 1.04e-06  230 5.27e-05 8.10e-05 6.68e-06 1.04e-06 
     55 2 1.11e-06  230 4.05e-05 1.32e-05 4.64e-06 1.11e-06 
     56 2 1.25e-06  230 2.90e-05 1.07e-05 6.78e-06 1.25e-06 
     57 2 9.98e-07  230 4.56e-05 9.77e-05 8.10e-06 9.98e-07 
     58 2 1.35e-06  230 3.30e-05 1.85e-05 6.60e-06 1.35e-06 
     59 2 1.19e-06  230 3.88e-05 8.51e-05 6.19e-06 1.19e-06 
     60 2 1.31e-06  230 6.67e-05 5.58e-05 6.89e-06 1.31e-06 
     61 2 1.23e-06  230 4.28e-05 7.60e-05 8.31e-06 1.23e-06 
     62 2 1.03e-06  230 1.51e-05 7.76e-05 5.32e-06 1.03e-06 
     63 2 1.07e-06  230 5.18e-06 5.97e-05 1.46e-06 1.07e-06 
     64 2 8.98e-07  230 3.61e-05 7.13e-05 7.09e-06 8.98e-07 
     65 2 1.06e-06  230 8.89e-05 4.44e-05 3.10e-06 1.06e-06 
     66 2 1.20e-06  230 1.41e-05 3.30e-05 5.83e-06 1.20e-06 
     67 2 1.38e-06  230 3.01e-05 7.87e-06 5.91e-06 1.38e-06 
     68 2 1.14e-06  230 2.25e-05 5.99e-05 6.38e-06 1.14e-06 
     69 2 1.14e-06  230 6.99e-06 5.95e-05 8.29e-06 1.14e-06 
     70 2 1.20e-06  230 5.50e-05 7.61e-05 5.52e-06 1.20e-06 
     71 2 1.29e-06  230 2.89e-05 1.71e-05 5.21e-06 1.29e-06 
     72 2 1.28e-06  230 5.33e-05 1.20e-05 3.70e-06 1.28e-06 
     73 2 1.20e-06  230 9.81e-05 2.48e-05 6.68e-06 1.20e-06 
     74 2 1.33e-06  230 8.85e-05 3.07e-05 1.86e-06 1.33e-06 
     75 2 1.10e-06  230 7.03e-05 6.13e-05 7.52e-06 1.10e-06 
     76 2 1.17e-06  230 5.28e-05 3.64e-05 6.92e-06 1.17e-06 
     77 2 1.25e-06  230 5.65e-05 9.21e-05 8.09e-06 1.25e-06 
     78 2 9.31e-07  230 4.41e-05 9.61e-05 7.86e-06 9.31e-07 
     79 2 1.27e-06  230 3.59e-05 7.29e-05 6.71e-06 1.27e-06 
     80 2 8.80e-07  230 7.49e-05 6.15e-05 7.87e-06 8.80e-07 
     81 2 1.28e-06  230 1.20e-05 1.72e-05 5.46e-06 1.28e-06 
     82 2 1.17e-06  230 1.83e-06 9.50e-05 2.74e-06 1.17e-06 
     83 2 1.36e-06  230 3.24e-05 2.93e-05 6.99e-06 1.36e-06 
     84 2 1.33e-06  230 9.46e-05 4.47e-05 1.86e-06 1.33e-06 
     85 2 1.11e-06  230 2.20e-05 6.49e-05 8.16e-06 1.11e-06 
     86 2 1.03e-06  230 1.74e-05 4.52e-05 4.32e-06 1.03e-06 
     87 2 1.08e-06  230 6.06e-05 3.87e-05 7.32e-06 1.08e-06 
     88 2 1.06e-06  230 3.13e-05 4.40e-05 2.30e-06 1.06e-06 
     89 2 1.32e-06  230 9.53e-05 4.02e-05 8.17e-06 1.32e-06 
     90 2 1.02e-06  230 4.79e-05 8.55e-05 2.48e-06 1.02e-06 
     91 2 1.38e-06  230 5.28e-05 1.09e-05 1.83e-06 1.38e-06 
     92 2 1.28e-06  230 6.24e-06 5.08e-05 3.63e-06 1.28e-06 
     93 2 1.31e-06  230 4.72e-05 2.58e-05 8.08e-06 1.31e-06 
     94 2 1.26e-06  230 9.09e-05 7.87e-05 2.75e-06 1.26e-06 
     95 2 1.00e-06  230 5.94e-05 7.08e-06 2.89e-06 1.00e-06 
     96 2 1.21e-06  230 8.02e-06 9.05e-05 3.22e-06 1.21e-06 
     97 2 8.97e-07  230 5.73e-05 4.52e-05 9.07e-06 8.97e-07 
     98 2 9.06e-07  230 6.18e-05 6.81e-05 3.78e-06 9.06e-07 
     99 2 1.34e-06  230 9.21e-05 5.09e-05 4.22e-06 1.34e-06 
     100 2 9.60e-07  230 2.67e-05 1.03e-05 4.55e-06 9.60e-07 

 Nutrients 

     1 sub g nn nn nn 1.00e-01 1.00e-01 
     2 o2 l nn nn nd 9.00e-03 9.00e-03 
     3 suc l nn nn nn 3.42e-20 3.42e-20 
     4 co2 l nn nn nd 2.99e-02 2.99e-02 

 Type Name 

     1 cyano  
     2 ecw  

 Diffusion Coeffs 

     sub 0 
     o2 2.3e-09 
     suc 5.2e-10 
     co2 1.9e-09 

 Growth Rate 

     cyano 1.67e-05 
     ecw 1.2e-05 

 Ks 

     cyano 0.00035 0.0002 0.01 0.000138 
     ecw 0 0.001 3.6 0.05 

 Yield 

     cyano 0.55 
     ecw 0.43 

 Maintenance 

     cyano 0 
     ecw 9.5e-07 

 Decay 

     cyano 0 
     ecw 0 



