LAMMPS (20 Nov 2019)
Reading data file ...
  orthogonal box = (0 0 0) to (0.0001 0.0001 0.0001)
  2 by 4 by 4 MPI processor grid
  reading atoms ...
  100 atoms
  4 nutrients
Lattice spacing in x,y,z = 100 100 100
100 atoms in group CYANO
0 atoms in group ECW
Model is defined as a closed system. 
Neighbor list info ...
  update every 1 steps, delay 0 steps, check yes
  max neighbors/atom: 5000, page size: 100000
  master list distance cutoff = 2.43e-06
  ghost atom cutoff = 2.43e-06
  binsize = 1.215e-06, bins = 83 83 83
  1 neighbor lists, perpetual/occasional/extra = 1 0 0
  (1) pair gran/hooke/history, perpetual
      attributes: half, newton off, size, history
      pair build: half/size/bin/newtoff
      stencil: half/bin/3d/newtoff
      bin: standard
Setting up Verlet run ...
  Unit style    : lj
  Current step  : 0
  Time step     : 10
Per MPI rank memory allocation (min/avg/max) = 5.856 | 9.288 | 10.91 Mbytes
Step CPU Atoms c_myNtypes[1] c_myNtypes[2] c_myMass[1] c_myMass[2] c_myCon[1] c_myCon[2] c_myCon[3] c_myCon[4] 
       0            0      100          100            0 9.1669434e-14            0          0.1        0.009     3.42e-20       0.0299 
number of iterations: 122767 
     100    1.3360694      100          100            0 9.3325014e-14            0          0.1 0.0090009124 1.3677837e-05  0.029898481 
number of iterations: 108652 
     200    2.4624094      100          100            0 9.5010495e-14            0          0.1 0.0090009289 3.4998277e-05  0.029898453 
number of iterations: 97270 
     300    3.5142803      100          100            0 9.6726416e-14            0          0.1 0.0090009457 6.766318e-05  0.029898425 
number of iterations: 86961 
     400    4.4394762      101          101            0 9.8473327e-14            0          0.1 0.0090009628 0.00011767918  0.029898397 
number of iterations: 77224 
     500    5.2678722      103          103            0 1.0025179e-13            0          0.1 0.0090009802 0.0001943572  0.029898368 
number of iterations: 67726 
     600     5.990658      108          108            0 1.0206237e-13            0          0.1 0.0090009935 0.00031231889  0.029898346 
number of iterations: 58371 
     700    6.6700642      108          108            0 1.0390565e-13            0          0.1 0.0090010114 0.00049500841  0.029898316 
number of iterations: 48908 
     800    7.2248745      114          114            0 1.0578222e-13            0          0.1 0.0090010297 0.0007815632  0.029898286 
number of iterations: 39008 
     900    7.6822301      116          116            0 1.0769268e-13            0          0.1 0.0090010483 0.0012432715  0.029898255 
number of iterations: 28731 
    1000    8.0440352      116          116            0 1.0963765e-13            0          0.1 0.0090010672 0.0020063544  0.029898223 
number of iterations: 19700 
    1100    8.3192535      118          118            0 1.1161774e-13            0          0.1 0.0090010865 0.0032089481  0.029898191 
number of iterations: 15393 
    1200    8.5404303      120          120            0 1.1363359e-13            0          0.1 0.0090011061 0.0051535055  0.029898158 
number of iterations: 15451 
    1300    8.7511428      122          122            0 1.1568585e-13            0          0.1 0.0090011261 0.0076432243  0.029898125 
number of iterations: 15509 
    1400    8.9593574      125          125            0 1.1777518e-13            0          0.1 0.0090011464  0.010391054  0.029898091 
number of iterations: 15567 
    1500    9.1661249      127          127            0 1.1990223e-13            0          0.1 0.0090011668  0.013493601  0.029898057 
number of iterations: 15626 
    1600    9.3706231      129          129            0 1.2206771e-13            0          0.1 0.0090011879  0.016863841  0.029898022 
number of iterations: 15684 
    1700    9.5780355      130          130            0 1.2427229e-13            0          0.1 0.0090012093  0.020487335  0.029897986 
number of iterations: 15742 
    1800    9.7819295      132          132            0 1.2651669e-13            0          0.1 0.0090012312  0.024285258   0.02989795 
number of iterations: 15800 
    1900    9.9857857      134          134            0 1.2880162e-13            0          0.1 0.0090012534  0.028252384  0.029897913 
number of iterations: 15859 
    2000    10.191991      136          136            0 1.3112782e-13            0          0.1  0.009001276  0.032385068  0.029897875 
number of iterations: 15917 
    2100    10.397123      139          139            0 1.3349603e-13            0          0.1 0.0090012991  0.036681839  0.029897837 
number of iterations: 15975 
    2200    10.604582      141          141            0 1.3590702e-13            0          0.1 0.0090013225  0.041140769  0.029897798 
number of iterations: 16033 
    2300    10.809446      145          145            0 1.3836154e-13            0          0.1 0.0090013464  0.045761273  0.029897758 
number of iterations: 16092 
    2400    11.014098      145          145            0 1.408604e-13            0          0.1 0.0090013707   0.05054349  0.029897718 
number of iterations: 16150 
    2500    11.220226      145          145            0 1.4340438e-13            0          0.1 0.0090013955  0.055487377  0.029897676 
number of iterations: 16208 
    2600    11.425879      146          146            0 1.4599431e-13            0          0.1 0.0090014207  0.060594059  0.029897634 
number of iterations: 16266 
    2700    11.634005      147          147            0 1.4863102e-13            0          0.1 0.0090014464  0.065864154  0.029897592 
number of iterations: 16712 
    2800    11.845083      150          150            0 1.5131534e-13            0          0.1 0.0090014739  0.071299286  0.029897546 
number of iterations: 16390 
    2900     12.05379      153          153            0 1.5404814e-13            0          0.1 0.0090015005  0.076900321  0.029897502 
number of iterations: 16448 
    3000    12.263351      155          155            0 1.568303e-13            0          0.1 0.0090015292  0.082672859  0.029897454 
number of iterations: 16506 
    3100     12.47383      155          155            0 1.5966271e-13            0          0.1 0.0090015568  0.088614647  0.029897408 
number of iterations: 16565 
    3200    12.683411      158          158            0 1.6254627e-13            0          0.1 0.0090015854  0.094730959   0.02989736 
number of iterations: 16623 
    3300     12.89476      159          159            0 1.6548191e-13            0          0.1  0.009001614   0.10102034  0.029897313 
number of iterations: 17378 
    3400    13.148707      161          161            0 1.6847057e-13            0          0.1 0.0090016447   0.10748599  0.029897262 
number of iterations: 16753 
    3500    13.368503      161          161            0 1.715132e-13            0          0.1 0.0090016744   0.11412859  0.029897212 
number of iterations: 16811 
    3600    13.582022      162          162            0 1.7461079e-13            0          0.1 0.0090017046    0.1209517  0.029897162 
number of iterations: 16869 
    3700    13.794489      162          162            0 1.7776431e-13            0          0.1 0.0090017354   0.12795782   0.02989711 
number of iterations: 16928 
    3800    14.006832      163          163            0 1.809748e-13            0          0.1 0.0090017667   0.13514934  0.029897058 
number of iterations: 17181 
    3900    14.222801      166          166            0 1.8424326e-13            0          0.1 0.0090018079   0.14253192   0.02989699 
number of iterations: 16977 
    4000    14.437839      169          169            0 1.8757075e-13            0          0.1 0.0090018387   0.15010843  0.029896939 
number of iterations: 18231 
    4100    14.664047      173          173            0 1.9095834e-13            0          0.1 0.0090018785   0.15787838  0.029896872 
number of iterations: 17336 
    4200    14.881082      179          179            0 1.9440711e-13            0          0.1 0.0090019176   0.16584805  0.029896807 
number of iterations: 17248 
    4300    15.097429      184          184            0 1.9791817e-13            0          0.1 0.0090019522   0.17401742  0.029896749 
number of iterations: 17305 
    4400    15.315067      186          186            0 2.0149263e-13            0          0.1 0.0090019875   0.18238941  0.029896691 
number of iterations: 17299 
    4500    15.532899      191          191            0 2.0513165e-13            0          0.1 0.0090020231    0.1909681  0.029896631 
number of iterations: 17421 
    4600    15.749722      196          196            0 2.088364e-13            0          0.1 0.0090020596   0.19975641  0.029896571 
number of iterations: 17631 
    4700    15.971383      206          206            0 2.1260805e-13            0          0.1  0.009002097    0.2087571  0.029896508 
number of iterations: 17054 
    4800    16.212403      210          210            0 2.1644782e-13            0          0.1 0.0090021284   0.21797429  0.029896456 
number of iterations: 17490 
    4900    16.433725      215          215            0 2.2035694e-13            0          0.1 0.0090021652   0.22741062  0.029896395 
number of iterations: 17646 
    5000    16.659687      222          222            0 2.2433666e-13            0          0.1 0.0090022043   0.23707021   0.02989633 
number of iterations: 17503 
    5100    16.879823      231          231            0 2.2838825e-13            0          0.1  0.009002244   0.24695862  0.029896264 
number of iterations: 17759 
    5200    17.101885      234          234            0 2.3251302e-13            0          0.1 0.0090022845   0.25707846  0.029896196 
number of iterations: 16577 
    5300    17.312764      240          240            0 2.3671228e-13            0          0.1  0.009002324   0.26743383   0.02989613 
number of iterations: 18079 
    5400    17.541396      246          246            0 2.4098738e-13            0          0.1 0.0090023674   0.27802879  0.029896058 
number of iterations: 17920 
    5500    17.767839      251          251            0 2.4533968e-13            0          0.1 0.0090024101   0.28886743  0.029895987 
number of iterations: 17736 
    5600    17.994591      263          263            0 2.497706e-13            0          0.1 0.0090024496   0.29995451  0.029895921 
number of iterations: 18032 
    5700    18.222457      265          265            0 2.5428154e-13            0          0.1 0.0090024939   0.31129518  0.029895848 
number of iterations: 18090 
    5800    18.450851      265          265            0 2.5887394e-13            0          0.1 0.0090025389   0.32289182  0.029895773 
number of iterations: 18148 
    5900    18.678948      267          267            0 2.6354929e-13            0          0.1 0.0090025848   0.33475042  0.029895696 
number of iterations: 18206 
    6000    18.908934      276          276            0 2.6830907e-13            0          0.1 0.0090026314   0.34687519  0.029895618 
number of iterations: 17833 
    6100    19.137693      279          279            0 2.7315482e-13            0          0.1 0.0090026777   0.35927034  0.029895541 
number of iterations: 17728 
    6200    19.360902      282          282            0 2.7808808e-13            0          0.1 0.0090027177   0.37194004  0.029895475 
number of iterations: 18366 
    6300    19.591764      283          283            0 2.8311044e-13            0          0.1 0.0090027684   0.38485102   0.02989539 
number of iterations: 18080 
    6400    19.820233      289          289            0 2.8822351e-13            0          0.1 0.0090028104   0.39799516   0.02989532 
number of iterations: 18474 
    6500    20.054846      295          295            0 2.9342892e-13            0          0.1 0.0090028612   0.41137668  0.029895236 
number of iterations: 17666 
    6600    20.277089      296          296            0 2.9872834e-13            0          0.1 0.0090029112   0.42499988  0.029895153 
number of iterations: 18577 
    6700    20.512383      299          299            0 3.0412347e-13            0          0.1 0.0090029638   0.43886912  0.029895065 
number of iterations: 18635 
    6800    20.747993      302          302            0 3.0961603e-13            0          0.1 0.0090030173   0.45298884  0.029894976 
number of iterations: 18693 
    6900    20.982737      306          306            0 3.152078e-13            0          0.1 0.0090030718   0.46736357  0.029894885 
number of iterations: 18751 
    7000    21.224234      309          309            0 3.2090055e-13            0          0.1 0.0090031273   0.48199791  0.029894793 
number of iterations: 18810 
    7100    21.460786      315          315            0 3.2669612e-13            0          0.1 0.0090031837   0.49689655  0.029894699 
number of iterations: 19679 
    7200    21.707548      319          319            0 3.3259635e-13            0          0.1 0.0090032439   0.51206427  0.029894599 
number of iterations: 18942 
    7300    21.945549      322          322            0 3.3860315e-13            0          0.1 0.0090033025   0.52750591  0.029894501 
number of iterations: 18812 
    7400    22.181971      326          326            0 3.4471843e-13            0          0.1 0.0090033615   0.54322644  0.029894403 
number of iterations: 19055 
    7500     22.42088      330          330            0 3.5094415e-13            0          0.1 0.0090034228   0.55923088  0.029894301 
number of iterations: 19116 
    7600    22.660498      335          335            0 3.5728231e-13            0          0.1 0.0090034864     0.575527  0.029894195 
number of iterations: 19076 
    7700    22.898846      343          343            0 3.6373494e-13            0          0.1  0.009003542   0.59211742  0.029894102 
number of iterations: 19228 
    7800    23.168011      353          353            0 3.7030411e-13            0          0.1  0.009003606   0.60900746  0.029893996 
number of iterations: 20140 
    7900    23.420464      361          361            0 3.7699192e-13            0          0.1 0.0090036794   0.62620256  0.029893873 
number of iterations: 19216 
    8000    23.661699      367          367            0 3.8380051e-13            0          0.1 0.0090037458    0.6437082  0.029893763 
number of iterations: 19245 
    8100    23.902728      371          371            0 3.9073207e-13            0          0.1 0.0090038133   0.66152999  0.029893651 
number of iterations: 17970 
    8200    24.129574      386          386            0 3.9778881e-13            0          0.1 0.0090038753   0.67967365  0.029893547 
number of iterations: 19509 
    8300    24.374815      391          391            0  4.04973e-13            0          0.1 0.0090039453   0.69814499  0.029893431 
number of iterations: 19567 
    8400    24.619586      391          391            0 4.1228694e-13            0          0.1 0.0090040165   0.71694992  0.029893312 
number of iterations: 18467 
    8500    24.851883      402          402            0 4.1973297e-13            0          0.1  0.009004082   0.73609447  0.029893203 
number of iterations: 19666 
    8600    25.097386      411          411            0 4.2731348e-13            0          0.1 0.0090041557   0.75558478   0.02989308 
number of iterations: 19961 
    8700    25.346435      421          421            0 4.350309e-13            0          0.1 0.0090042375    0.7754271  0.029892944 
Loop time of 25.3465 on 32 procs for 8700 steps with 421 atoms

Performance: 296562174.274 tau/day, 343.243 timesteps/s
98.6% CPU use with 32 MPI tasks x no OpenMP threads

MPI task timing breakdown:
Section |  min time  |  avg time  |  max time  |%varavg| %total
---------------------------------------------------------------
Pair    | 0.00042567 | 0.0022807  | 0.0076954  |   3.3 |  0.01
Neigh   | 0.0011752  | 0.0020539  | 0.0050708  |   1.8 |  0.01
Comm    | 0.010248   | 0.024188   | 0.043826   |   5.4 |  0.10
Output  | 0.85205    | 0.85264    | 0.85351    |   0.0 |  3.36
Modify  | 24.411     | 24.416     | 24.422     |   0.0 | 96.33
Other   |            | 0.04969    |            |       |  0.20

Nlocal:    13.1562 ave 56 max 0 min
Histogram: 9 10 5 3 1 2 0 0 1 1
Nghost:    3.90625 ave 23 max 0 min
Histogram: 16 7 4 2 0 0 2 0 0 1
Neighs:    13.4375 ave 60 max 0 min
Histogram: 11 8 6 3 1 1 0 0 0 2

Total # of neighbors = 430
Ave neighs/atom = 1.02138
Neighbor list builds = 107
Dangerous builds = 0
Total wall time: 0:00:25
