LAMMPS (20 Nov 2019)
Reading data file ...
  orthogonal box = (0 0 0) to (0.0001 0.0001 5e-05)
  2 by 2 by 2 MPI processor grid
  reading atoms ...
  50 atoms
  4 nutrients
Lattice spacing in x,y,z = 100 100 100
50 atoms in group CYANO
0 atoms in group ECW
Model is defined as a closed system. 
Neighbor list info ...
  update every 1 steps, delay 0 steps, check yes
  max neighbors/atom: 5000, page size: 100000
  master list distance cutoff = 2.44e-06
  ghost atom cutoff = 2.44e-06
  binsize = 1.22e-06, bins = 82 82 41
  1 neighbor lists, perpetual/occasional/extra = 1 0 0
  (1) pair gran/hooke/history, perpetual
      attributes: half, newton off, size, history
      pair build: half/size/bin/newtoff
      stencil: half/bin/3d/newtoff
      bin: standard
Setting up Verlet run ...
  Unit style    : lj
  Current step  : 0
  Time step     : 10
Per MPI rank memory allocation (min/avg/max) = 6.964 | 10.18 | 12.34 Mbytes
Step CPU Atoms c_myNtypes[1] c_myNtypes[2] c_myMass[1] c_myMass[2] c_myCon[1] c_myCon[2] c_myCon[3] c_myCon[4] 
       0            0       50           50            0 4.5275152e-14            0          0.1        0.009     3.42e-20       0.0299 
number of iterations: 324352 
     100    5.2405853       50           50            0 4.6157686e-14            0          0.1 0.0090015923 0.0017939617  0.029897349 
number of iterations: 21246 
     200    5.8290067       50           50            0 4.7057424e-14            0          0.1 0.0090016233 0.0035666812  0.029897298 
number of iterations: 21331 
     300    6.3893481       51           51            0 4.7974699e-14            0          0.1  0.009001655  0.005373687  0.029897245 
number of iterations: 21417 
     400    7.0055852       52           52            0 4.8909855e-14            0          0.1 0.0090016873 0.0072157638  0.029897191 
number of iterations: 21502 
     500    7.6713184       52           52            0 4.9863239e-14            0          0.1 0.0090017202 0.0090936427  0.029897136 
number of iterations: 21587 
     600     8.266788       54           54            0 5.0835207e-14            0          0.1 0.0090017537  0.011008046  0.029897081 
number of iterations: 21672 
     700    8.8276125       54           54            0 5.1826122e-14            0          0.1 0.0090017879  0.012959702  0.029897024 
number of iterations: 21757 
     800    9.3857742       55           55            0 5.2836352e-14            0          0.1 0.0090018227  0.014949347  0.029896966 
number of iterations: 23361 
     900    9.9822453       56           56            0 5.3866274e-14            0          0.1 0.0090018709  0.016977728  0.029896885 
number of iterations: 20420 
    1000    10.522193       58           58            0 5.4916272e-14            0          0.1 0.0090018963  0.019045615  0.029896843 
number of iterations: 22017 
    1100    11.121549       59           59            0 5.5986738e-14            0          0.1 0.0090019332  0.021153788  0.029896782 
number of iterations: 22100 
    1200    11.685384       61           61            0 5.7078069e-14            0          0.1 0.0090019709  0.023303003  0.029896719 
number of iterations: 22187 
    1300    12.247031       62           62            0 5.8190674e-14            0          0.1 0.0090020093  0.025494095  0.029896655 
number of iterations: 22272 
    1400    12.808091       62           62            0 5.9324966e-14            0          0.1 0.0090020485  0.027727881   0.02989659 
number of iterations: 22366 
    1500    13.382051       64           64            0 6.0481369e-14            0          0.1 0.0090020885  0.030005195  0.029896523 
number of iterations: 22468 
    1600    13.961231       64           64            0 6.1660313e-14            0          0.1 0.0090021292  0.032326887  0.029896455 
number of iterations: 22571 
    1700    14.557077       65           65            0 6.2862238e-14            0          0.1 0.0090021707  0.034693822  0.029896386 
number of iterations: 22673 
    1800    15.204159       66           66            0 6.4087591e-14            0          0.1  0.009002213  0.037106883  0.029896316 
number of iterations: 22775 
    1900    15.819208       68           68            0 6.533683e-14            0          0.1 0.0090022561   0.03956697  0.029896244 
number of iterations: 22878 
    2000    16.427553       69           69            0 6.661042e-14            0          0.1 0.0090023001     0.042075  0.029896171 
number of iterations: 22980 
    2100    17.034724       71           71            0 6.7908836e-14            0          0.1  0.009002345  0.044631912  0.029896096 
number of iterations: 23082 
    2200    17.649219       71           71            0 6.9232561e-14            0          0.1 0.0090023907  0.047238656   0.02989602 
number of iterations: 23184 
    2300    18.265353       72           72            0 7.0582089e-14            0          0.1 0.0090024373  0.049896203  0.029895942 
number of iterations: 23287 
    2400    18.963406       73           73            0 7.1957923e-14            0          0.1 0.0090024848  0.052605545  0.029895863 
number of iterations: 23389 
    2500    19.560074       74           74            0 7.3360575e-14            0          0.1 0.0090025332   0.05536769  0.029895783 
number of iterations: 23494 
    2600    20.154821       75           75            0 7.479057e-14            0          0.1 0.0090025826  0.058183664    0.0298957 
number of iterations: 23594 
    2700    20.845042       75           75            0 7.6248438e-14            0          0.1  0.009002633  0.061054522  0.029895616 
number of iterations: 23697 
    2800    21.456995       75           75            0 7.7734724e-14            0          0.1 0.0090026843  0.063981333  0.029895531 
number of iterations: 23799 
    2900    22.058475       75           75            0 7.9249982e-14            0          0.1 0.0090027366  0.066965187  0.029895444 
number of iterations: 23902 
    3000    22.638665       75           75            0 8.0794776e-14            0          0.1   0.00900279  0.070007199  0.029895355 
number of iterations: 24005 
    3100    23.269946       75           75            0 8.2369683e-14            0          0.1 0.0090028444    0.0731085  0.029895264 
number of iterations: 24107 
    3200    23.894528       76           76            0 8.3975288e-14            0          0.1 0.0090028998  0.076270248  0.029895172 
number of iterations: 24210 
    3300    24.503198       80           80            0 8.5612191e-14            0          0.1 0.0090029563   0.07949362  0.029895078 
number of iterations: 24313 
    3400    25.124938       82           82            0 8.7281002e-14            0          0.1  0.009003014  0.082779817  0.029894982 
number of iterations: 24415 
    3500    25.797127       82           82            0 8.8982342e-14            0          0.1 0.0090030727  0.086130066  0.029894884 
number of iterations: 24518 
    3600    26.433495       82           82            0 9.0716846e-14            0          0.1 0.0090031326  0.089545614  0.029894784 
number of iterations: 24621 
    3700    27.042134       83           83            0 9.248516e-14            0          0.1 0.0090031937  0.093027734  0.029894683 
number of iterations: 24724 
    3800    27.669491       89           89            0 9.4287943e-14            0          0.1  0.009003256  0.096577725  0.029894579 
number of iterations: 24827 
    3900    28.350152       91           91            0 9.6125867e-14            0          0.1 0.0090033194   0.10019691  0.029894473 
number of iterations: 23605 
    4000    28.970757       94           94            0 9.7999617e-14            0          0.1 0.0090033696   0.10388663   0.02989439 
number of iterations: 25010 
    4100    29.617953       94           94            0 9.9909891e-14            0          0.1 0.0090034353   0.10764827   0.02989428 
number of iterations: 25113 
    4200    30.320204       97           97            0 1.018574e-13            0          0.1 0.0090035023   0.11148322  0.029894169 
number of iterations: 25137 
    4300      30.9208      100          100            0 1.0384287e-13            0          0.1 0.0090035696   0.11539293  0.029894057 
number of iterations: 25317 
    4400     31.58045      104          104            0 1.0586705e-13            0          0.1 0.0090036392   0.11937884  0.029893941 
number of iterations: 25434 
    4500    32.183315      108          108            0 1.0793068e-13            0          0.1 0.0090037102   0.12344244  0.029893823 
number of iterations: 25522 
    4600    32.817573      111          111            0 1.1003454e-13            0          0.1 0.0090037825   0.12758525  0.029893702 
number of iterations: 26388 
    4700    33.452783      113          113            0 1.1217941e-13            0          0.1 0.0090038675   0.13180876  0.029893561 
number of iterations: 25744 
    4800     34.09574      114          114            0 1.1436608e-13            0          0.1 0.0090039429   0.13611459  0.029893435 
number of iterations: 25847 
    4900    34.761814      114          114            0 1.1659538e-13            0          0.1 0.0090040198   0.14050435  0.029893307 
number of iterations: 25950 
    5000    35.413329      117          117            0 1.1886814e-13            0          0.1 0.0090040981   0.14497968  0.029893177 
number of iterations: 26053 
    5100    36.088915      120          120            0 1.2118519e-13            0          0.1  0.009004178   0.14954223  0.029893044 
number of iterations: 27618 
    5200     36.75292      125          125            0 1.2354742e-13            0          0.1 0.0090042851   0.15419373  0.029892865 
number of iterations: 26305 
    5300    37.378909      130          130            0 1.2595569e-13            0          0.1 0.0090043687   0.15893589  0.029892726 
number of iterations: 26397 
    5400    38.018269      134          134            0 1.284109e-13            0          0.1 0.0090044538    0.1637705  0.029892585 
number of iterations: 26495 
    5500    38.675074      136          136            0 1.3091397e-13            0          0.1 0.0090045407   0.16869933   0.02989244 
number of iterations: 26601 
    5600    39.309078      141          141            0 1.3346583e-13            0          0.1 0.0090046292   0.17372423  0.029892293 
number of iterations: 26704 
    5700    39.960078      143          143            0 1.3606743e-13            0          0.1 0.0090047194   0.17884708  0.029892142 
number of iterations: 26807 
    5800    40.599303      143          143            0 1.3871975e-13            0          0.1 0.0090048114   0.18406978  0.029891989 
number of iterations: 26910 
    5900    41.285992      144          144            0 1.4142377e-13            0          0.1 0.0090049052   0.18939428  0.029891833 
number of iterations: 27013 
    6000    41.937466      145          145            0 1.4418049e-13            0          0.1 0.0090050008   0.19482257  0.029891674 
number of iterations: 27117 
    6100    42.596521      146          146            0 1.4699096e-13            0          0.1 0.0090050983   0.20035666  0.029891511 
number of iterations: 27220 
    6200    43.252851      147          147            0 1.498562e-13            0          0.1 0.0090051977   0.20599863  0.029891346 
number of iterations: 27323 
    6300    43.886145      149          149            0 1.527773e-13            0          0.1  0.009005299   0.21175056  0.029891177 
number of iterations: 27426 
    6400    44.572611      150          150            0 1.5575533e-13            0          0.1 0.0090054023   0.21761462  0.029891005 
number of iterations: 27142 
    6500    45.244306      154          154            0 1.5879142e-13            0          0.1 0.0090055016   0.22359297   0.02989084 
number of iterations: 28109 
    6600    45.983252      154          154            0 1.6188669e-13            0          0.1  0.009005617   0.22968784  0.029890648 
number of iterations: 27740 
    6700    46.675685      155          155            0 1.6504229e-13            0          0.1 0.0090057265   0.23590153  0.029890465 
number of iterations: 28352 
    6800    47.360814      159          159            0 1.682594e-13            0          0.1 0.0090058493   0.24223632  0.029890261 
number of iterations: 28454 
    6900    48.058456      164          164            0 1.7153922e-13            0          0.1 0.0090059732   0.24869458  0.029890055 
number of iterations: 28206 
    7000    48.765851      169          169            0 1.7488298e-13            0          0.1 0.0090060926   0.25527874  0.029889856 
number of iterations: 27645 
    7100    49.440609      171          171            0 1.7829191e-13            0          0.1    0.0090062   0.26199123  0.029889677 
number of iterations: 28272 
    7200    50.132079      176          176            0 1.8176729e-13            0          0.1 0.0090063208   0.26883456  0.029889476 
number of iterations: 28513 
    7300    50.857253      184          184            0 1.8531042e-13            0          0.1 0.0090064463   0.27581128  0.029889267 
number of iterations: 28478 
    7400    51.657044      186          186            0 1.8892261e-13            0          0.1  0.009006572     0.282924  0.029889058 
number of iterations: 28581 
    7500    52.531728      190          190            0 1.9260522e-13            0          0.1 0.0090067001   0.29017535  0.029888844 
number of iterations: 27830 
    7600    53.498815      195          195            0 1.963596e-13            0          0.1 0.0090068128   0.29756806  0.029888657 
number of iterations: 29235 
    7700    54.516951      196          196            0 2.0018717e-13            0          0.1 0.0090069576   0.30510486  0.029888415 
number of iterations: 28888 
    7800    55.334893      198          198            0 2.0408935e-13            0          0.1 0.0090070933   0.31278858   0.02988819 
number of iterations: 28990 
    7900    56.767765      201          201            0 2.0806759e-13            0          0.1 0.0090072315   0.32062207  0.029887959 
number of iterations: 27381 
    8000    57.493337      206          206            0 2.1212338e-13            0          0.1  0.009007336   0.32860824  0.029887785 
number of iterations: 29030 
    8100    58.234617      210          210            0 2.1625823e-13            0          0.1 0.0090074762   0.33675008  0.029887552 
number of iterations: 29273 
    8200    58.936769      214          214            0 2.2047367e-13            0          0.1  0.009007622   0.34505061  0.029887309 
number of iterations: 29375 
    8300    59.686837      217          217            0 2.2477129e-13            0          0.1 0.0090077706   0.35351297  0.029887062 
number of iterations: 29476 
    8400     60.41652      221          221            0 2.2915267e-13            0          0.1  0.009007922   0.36214027   0.02988681 
number of iterations: 29225 
    8500    61.164058      224          224            0 2.3361946e-13            0          0.1 0.0090080663   0.37093573  0.029886569 
number of iterations: 29295 
    8600    61.885106      236          236            0 2.3817333e-13            0          0.1 0.0090082125   0.37990264  0.029886326 
number of iterations: 29773 
    8700    62.601105      240          240            0 2.4281595e-13            0          0.1 0.0090083726   0.38904434  0.029886059 
number of iterations: 29877 
    8800    63.314231      244          244            0 2.4754908e-13            0          0.1 0.0090085358   0.39836423  0.029885788 
number of iterations: 29853 
    8900    64.028736      251          251            0 2.5237446e-13            0          0.1 0.0090086992   0.40786579  0.029885516 
number of iterations: 29959 
    9000    64.730835      253          253            0 2.5729391e-13            0          0.1 0.0090088658   0.41755256  0.029885238 
number of iterations: 30497 
    9100    65.453877      258          258            0 2.6230924e-13            0          0.1 0.0090090491   0.42742814  0.029884933 
number of iterations: 30292 
    9200    66.211443      263          263            0 2.6742234e-13            0          0.1 0.0090092255   0.43749623  0.029884639 
number of iterations: 30895 
    9300    66.959052      269          269            0 2.7263511e-13            0          0.1 0.0090094196   0.44776056  0.029884316 
number of iterations: 30416 
    9400    67.680099      277          277            0 2.7794948e-13            0          0.1 0.0090096007   0.45822495  0.029884014 
number of iterations: 30612 
    9500    68.405499      278          278            0 2.8336745e-13            0          0.1 0.0090097879   0.46889331  0.029883703 
number of iterations: 30715 
    9600    69.149664      279          279            0 2.8889103e-13            0          0.1 0.0090099787   0.47976963  0.029883385 
number of iterations: 30819 
    9700    69.912402      285          285            0 2.9452228e-13            0          0.1 0.0090101732   0.49085795  0.029883061 
number of iterations: 31081 
    9800    70.654944      289          289            0 3.0026329e-13            0          0.1  0.009010376    0.5021624  0.029882723 
number of iterations: 31294 
    9900    71.462275      298          298            0 3.0611621e-13            0          0.1 0.0090105886    0.5136872   0.02988237 
number of iterations: 30819 
   10000    72.241453      306          306            0 3.1208322e-13            0          0.1  0.009010783   0.52543664  0.029882046 
Loop time of 72.2415 on 8 procs for 10000 steps with 306 atoms

Performance: 119598843.842 tau/day, 138.425 timesteps/s
87.5% CPU use with 8 MPI tasks x no OpenMP threads

MPI task timing breakdown:
Section |  min time  |  avg time  |  max time  |%varavg| %total
---------------------------------------------------------------
Pair    | 0.010257   | 0.011698   | 0.014215   |   1.3 |  0.02
Neigh   | 0.0077077  | 0.0089964  | 0.010216   |   1.0 |  0.01
Comm    | 0.038254   | 0.056707   | 0.073419   |   6.5 |  0.08
Output  | 13.194     | 13.194     | 13.197     |   0.0 | 18.26
Modify  | 58.891     | 58.894     | 58.896     |   0.0 | 81.52
Other   |            | 0.07656    |            |       |  0.11

Nlocal:    38.25 ave 63 max 23 min
Histogram: 1 1 3 1 0 0 0 0 1 1
Nghost:    8.5 ave 22 max 1 min
Histogram: 4 1 0 0 0 0 1 0 1 1
Neighs:    49.125 ave 87 max 29 min
Histogram: 2 2 1 0 1 0 1 0 0 1

Total # of neighbors = 393
Ave neighs/atom = 1.28431
Neighbor list builds = 125
Dangerous builds = 0
Total wall time: 0:01:12
