 NUFEB Simulation

     50 atoms 
     2 atom types 
     4 nutrients 

  0.0e-4   1.00e-04  xlo xhi 
  0.0e-4   1.00e-04  ylo yhi 
  0.0e-4   5.00e-05  zlo zhi 

 Atoms 

     1 1 1.69e-06  370 3.25e-05 3.11e-06 3.87e-05 1.69e-06 
     2 1 1.83e-06  370 6.15e-05 1.21e-05 3.89e-05 1.83e-06 
     3 1 1.50e-06  370 7.01e-05 6.25e-05 1.17e-05 1.50e-06 
     4 1 1.84e-06  370 7.22e-05 8.00e-05 1.67e-05 1.84e-06 
     5 1 1.41e-06  370 7.08e-05 3.91e-05 6.27e-06 1.41e-06 
     6 1 1.87e-06  370 3.61e-05 4.37e-05 2.17e-05 1.87e-06 
     7 1 1.78e-06  370 3.43e-05 6.84e-05 1.03e-05 1.78e-06 
     8 1 1.56e-06  370 6.07e-05 2.57e-05 3.65e-05 1.56e-06 
     9 1 1.82e-06  370 6.23e-06 2.79e-05 7.76e-06 1.82e-06 
     10 1 1.53e-06  370 3.00e-05 1.70e-05 3.83e-05 1.53e-06 
     11 1 1.42e-06  370 2.77e-05 9.26e-05 3.06e-05 1.42e-06 
     12 1 1.92e-06  370 4.83e-05 6.98e-05 3.45e-05 1.92e-06 
     13 1 1.72e-06  370 4.13e-06 5.63e-05 2.99e-05 1.72e-06 
     14 1 1.90e-06  370 9.62e-06 1.11e-05 1.39e-05 1.90e-06 
     15 1 1.75e-06  370 9.17e-05 4.36e-05 1.66e-05 1.75e-06 
     16 1 1.57e-06  370 3.04e-05 4.63e-05 3.27e-05 1.57e-06 
     17 1 1.43e-06  370 6.18e-05 5.30e-05 3.44e-05 1.43e-06 
     18 1 1.39e-06  370 1.56e-05 4.45e-05 3.51e-05 1.39e-06 
     19 1 1.46e-06  370 6.16e-05 2.76e-05 1.86e-05 1.46e-06 
     20 1 1.86e-06  370 2.95e-05 2.46e-05 3.13e-05 1.86e-06 
     21 1 1.92e-06  370 7.30e-05 4.74e-05 1.03e-05 1.92e-06 
     22 1 1.75e-06  370 5.03e-05 4.14e-05 3.86e-05 1.75e-06 
     23 1 1.60e-06  370 3.27e-05 2.58e-05 4.14e-05 1.60e-06 
     24 1 1.87e-06  370 4.15e-05 9.00e-05 6.17e-06 1.87e-06 
     25 1 1.88e-06  370 9.69e-05 6.85e-05 4.13e-05 1.88e-06 
     26 1 1.63e-06  370 3.56e-05 6.81e-05 8.01e-06 1.63e-06 
     27 1 1.67e-06  370 6.82e-05 8.63e-06 2.96e-05 1.67e-06 
     28 1 1.75e-06  370 7.91e-06 9.62e-05 4.15e-05 1.75e-06 
     29 1 1.85e-06  370 6.36e-05 3.56e-05 3.09e-05 1.85e-06 
     30 1 1.63e-06  370 9.74e-05 3.93e-05 6.49e-06 1.63e-06 
     31 1 1.47e-06  370 8.65e-06 3.12e-05 9.21e-06 1.47e-06 
     32 1 1.65e-06  370 9.49e-05 3.59e-05 4.43e-05 1.65e-06 
     33 1 1.59e-06  370 3.23e-05 4.43e-05 4.19e-05 1.59e-06 
     34 1 1.60e-06  370 1.43e-05 5.30e-05 4.82e-05 1.60e-06 
     35 1 1.88e-06  370 6.67e-05 5.92e-05 2.91e-06 1.88e-06 
     36 1 1.76e-06  370 2.50e-05 1.44e-05 6.29e-06 1.76e-06 
     37 1 1.56e-06  370 5.26e-05 4.78e-05 2.15e-05 1.56e-06 
     38 1 1.67e-06  370 6.64e-05 7.08e-05 2.33e-05 1.67e-06 
     39 1 1.83e-06  370 7.00e-06 5.92e-05 2.16e-05 1.83e-06 
     40 1 1.54e-06  370 2.64e-05 4.92e-05 7.46e-06 1.54e-06 
     41 1 1.42e-06  370 3.68e-05 2.10e-05 2.95e-05 1.42e-06 
     42 1 1.92e-06  370 5.47e-05 3.19e-05 4.40e-05 1.92e-06 
     43 1 1.92e-06  370 4.61e-05 8.49e-05 2.73e-05 1.92e-06 
     44 1 1.61e-06  370 1.00e-05 6.66e-05 1.29e-05 1.61e-06 
     45 1 1.72e-06  370 9.18e-05 6.71e-05 4.34e-05 1.72e-06 
     46 1 1.71e-06  370 8.27e-05 6.60e-05 2.97e-05 1.71e-06 
     47 1 1.93e-06  370 2.28e-05 1.04e-05 2.13e-05 1.93e-06 
     48 1 1.48e-06  370 3.05e-05 1.44e-05 1.55e-05 1.48e-06 
     49 1 1.48e-06  370 5.91e-06 7.74e-05 4.51e-05 1.48e-06 
     50 1 1.73e-06  370 2.09e-06 8.82e-05 2.74e-06 1.73e-06 

 Nutrients 

     1 sub g nn nn nn 1.00e-01 1.00e-01 
     2 o2 l nn nn nd 9.00e-03 9.00e-03 
     3 suc l nn nn nn 3.42e-20 3.42e-20 
     4 co2 l nn nn nd 2.99e-02 2.99e-02 

 Type Name 

     1 cyano  
     2 ecw  

 Diffusion Coeffs 

     sub 0 
     o2 2.3e-09 
     suc 5.2e-10 
     co2 1.9e-09 

 Growth Rate 

     cyano 2.047e-05 
     ecw 6.71e-05 

 Ks 

     cyano 0.00035 0.0002 0.01 0.000138 
     ecw 0 0.001 3.6 0.05 

 Yield 

     cyano 0.55 
     ecw 0.43 

 Maintenance 

     cyano 0 
     ecw 9.5e-07 

 Decay 

     cyano 0 
     ecw 0 



