LAMMPS (20 Nov 2019)
Reading data file ...
  orthogonal box = (0 0 0) to (0.0001 0.0001 5e-05)
  2 by 2 by 2 MPI processor grid
  reading atoms ...
  50 atoms
  4 nutrients
Lattice spacing in x,y,z = 100 100 100
50 atoms in group CYANO
0 atoms in group ECW
Model is defined as a closed system. 
Neighbor list info ...
  update every 1 steps, delay 0 steps, check yes
  max neighbors/atom: 5000, page size: 100000
  master list distance cutoff = 2.43e-06
  ghost atom cutoff = 2.43e-06
  binsize = 1.215e-06, bins = 83 83 42
  1 neighbor lists, perpetual/occasional/extra = 1 0 0
  (1) pair gran/hooke/history, perpetual
      attributes: half, newton off, size, history
      pair build: half/size/bin/newtoff
      stencil: half/bin/3d/newtoff
      bin: standard
Setting up Verlet run ...
  Unit style    : lj
  Current step  : 0
  Time step     : 10
Per MPI rank memory allocation (min/avg/max) = 6.973 | 10.9 | 12.35 Mbytes
Step CPU Atoms c_myNtypes[1] c_myNtypes[2] c_myMass[1] c_myMass[2] c_myCon[1] c_myCon[2] c_myCon[3] c_myCon[4] 
       0            0       50           50            0 4.7696147e-14            0          0.1        0.009     3.42e-20       0.0299 
number of iterations: 325769 
     100      5.11821       50           50            0 4.8470918e-14            0          0.1 0.0090047404 0.0094507371  0.029892107 
number of iterations: 25876 
     200    5.7716631       50           50            0 4.9258274e-14            0          0.1 0.0090048174  0.018756884  0.029891979 
number of iterations: 25961 
     300    6.4156295       50           50            0 5.0058419e-14            0          0.1 0.0090048956  0.028213076  0.029891849 
number of iterations: 26056 
     400    7.0433432       51           51            0 5.0871563e-14            0          0.1 0.0090049751  0.037822432  0.029891716 
number of iterations: 26785 
     500    7.7051492       55           55            0 5.1697914e-14            0          0.1 0.0090050642  0.047587595  0.029891568 
number of iterations: 26230 
     600     8.380477       55           55            0 5.2537689e-14            0          0.1 0.0090051465   0.05751117  0.029891431 
number of iterations: 26316 
     700    9.0291142       56           56            0 5.3391105e-14            0          0.1 0.0090052301  0.067595777  0.029891292 
number of iterations: 26402 
     800    9.6814234       56           56            0 5.4258384e-14            0          0.1  0.009005315   0.07784406  0.029891151 
number of iterations: 26488 
     900     10.32381       58           58            0 5.5139751e-14            0          0.1 0.0090054014    0.0882587  0.029891007 
number of iterations: 26582 
    1000    11.030471       60           60            0 5.6035435e-14            0          0.1 0.0090054891  0.098842427  0.029890861 
number of iterations: 26660 
    1100    11.695406       61           61            0 5.6945668e-14            0          0.1 0.0090055783   0.10959799  0.029890712 
number of iterations: 26746 
    1200    12.347131       62           62            0 5.7870686e-14            0          0.1 0.0090056689   0.12052818  0.029890561 
number of iterations: 26846 
    1300    13.004029       63           63            0 5.8810731e-14            0          0.1  0.009005761   0.13163587  0.029890408 
number of iterations: 26918 
    1400    13.672092       65           65            0 5.9766045e-14            0          0.1 0.0090058546   0.14292392  0.029890252 
number of iterations: 27004 
    1500    14.357015       66           66            0 6.0736878e-14            0          0.1 0.0090059497   0.15439528  0.029890094 
number of iterations: 27090 
    1600    15.018902       66           66            0 6.172348e-14            0          0.1 0.0090060463   0.16605292  0.029889933 
number of iterations: 27176 
    1700     15.69298       66           66            0 6.2726109e-14            0          0.1 0.0090061446   0.17789988  0.029889769 
number of iterations: 27262 
    1800    16.351337       66           66            0 6.3745024e-14            0          0.1 0.0090062444   0.18993923  0.029889603 
number of iterations: 27883 
    1900    17.024063       67           67            0 6.4780491e-14            0          0.1 0.0090063541   0.20217408   0.02988942 
number of iterations: 27443 
    2000     17.68951       67           67            0 6.5832777e-14            0          0.1 0.0090064574   0.21460764  0.029889248 
number of iterations: 27529 
    2100    18.398174       67           67            0 6.6902156e-14            0          0.1 0.0090065623   0.22724312  0.029889074 
number of iterations: 27615 
    2200    19.087191       68           68            0 6.7988907e-14            0          0.1 0.0090066689   0.24008382  0.029888896 
number of iterations: 27701 
    2300    19.744334       71           71            0 6.909331e-14            0          0.1 0.0090067772   0.25313307  0.029888716 
number of iterations: 27787 
    2400    20.409955       71           71            0 7.0215653e-14            0          0.1 0.0090068873   0.26639424  0.029888533 
number of iterations: 27874 
    2500    21.085972       72           72            0 7.1356227e-14            0          0.1 0.0090069992    0.2798708  0.029888346 
number of iterations: 26501 
    2600    21.735613       74           74            0 7.2515329e-14            0          0.1 0.0090070886   0.29356623  0.029888197 
number of iterations: 26713 
    2700    22.424477       75           75            0 7.3693259e-14            0          0.1 0.0090071809   0.30748411  0.029888044 
number of iterations: 28092 
    2800    23.124578       75           75            0 7.4890323e-14            0          0.1 0.0090072976   0.32162804  0.029887849 
number of iterations: 28179 
    2900    23.808916       76           76            0 7.6106831e-14            0          0.1 0.0090074161   0.33600168  0.029887652 
number of iterations: 28265 
    3000    24.516229       76           76            0 7.7343101e-14            0          0.1 0.0090075366   0.35060879  0.029887451 
number of iterations: 27036 
    3100    25.165303       78           78            0 7.8599452e-14            0          0.1 0.0090076349   0.36545313  0.029887288 
number of iterations: 28418 
    3200    25.838375       78           78            0 7.9876212e-14            0          0.1  0.009007759   0.38053858  0.029887081 
number of iterations: 28505 
    3300    26.522143       78           78            0 8.117371e-14            0          0.1  0.009007885   0.39586905  0.029886871 
number of iterations: 28591 
    3400    27.211305       79           79            0 8.2492285e-14            0          0.1 0.0090080131   0.41144851  0.029886658 
number of iterations: 28677 
    3500    27.969246       79           79            0 8.3832279e-14            0          0.1 0.0090081433   0.42728102  0.029886441 
number of iterations: 28763 
    3600    28.800635       81           81            0 8.519404e-14            0          0.1 0.0090082755    0.4433707  0.029886221 
number of iterations: 28849 
    3700    29.504222       81           81            0 8.657792e-14            0          0.1   0.00900841    0.4597217  0.029885997 
number of iterations: 28940 
    3800    30.202322       82           82            0 8.7984281e-14            0          0.1 0.0090085466   0.47633826   0.02988577 
number of iterations: 29022 
    3900    30.896664       84           84            0 8.9413485e-14            0          0.1 0.0090086854   0.49322472  0.029885539 
number of iterations: 29108 
    4000    31.610128       85           85            0 9.0865906e-14            0          0.1 0.0090088265   0.51038546  0.029885304 
number of iterations: 29195 
    4100    32.306188       85           85            0 9.2341919e-14            0          0.1 0.0090089699   0.52782493  0.029885065 
number of iterations: 29281 
    4200    32.987306       85           85            0 9.3841909e-14            0          0.1 0.0090091156   0.54554766  0.029884822 
number of iterations: 29367 
    4300    33.785643       86           86            0 9.5366264e-14            0          0.1 0.0090092637   0.56355826  0.029884576 
number of iterations: 29454 
    4400    34.510729       88           88            0 9.691538e-14            0          0.1 0.0090094141    0.5818614  0.029884325 
number of iterations: 29540 
    4500    35.209055       89           89            0 9.848966e-14            0          0.1 0.0090095671   0.60046183   0.02988407 
number of iterations: 31083 
    4600    35.917899       93           93            0 1.0008951e-13            0          0.1 0.0090097658    0.6193644   0.02988374 
number of iterations: 29736 
    4700    36.611795       94           94            0 1.0171535e-13            0          0.1 0.0090099244     0.638574  0.029883475 
number of iterations: 30726 
    4800    37.348241       97           97            0 1.033676e-13            0          0.1 0.0090101117   0.65809564  0.029883164 
number of iterations: 29925 
    4900    38.081092       98           98            0 1.0504669e-13            0          0.1 0.0090102759    0.6779344   0.02988289 
number of iterations: 29672 
    5000     38.82433      104          104            0 1.0675305e-13            0          0.1 0.0090104348   0.69809542  0.029882626 
number of iterations: 30098 
    5100    39.560548      108          108            0 1.0848713e-13            0          0.1 0.0090106043   0.71858391  0.029882343 
number of iterations: 30181 
    5200    40.279747      110          110            0 1.1024938e-13            0          0.1 0.0090107766    0.7394052  0.029882057 
number of iterations: 30268 
    5300    41.062971      110          110            0 1.1204026e-13            0          0.1 0.0090109516   0.76056469  0.029881765 
number of iterations: 30354 
    5400    41.777284      115          115            0 1.1386022e-13            0          0.1 0.0090111295   0.78206788  0.029881469 
number of iterations: 30440 
    5500    42.530816      119          119            0 1.1570975e-13            0          0.1 0.0090113103    0.8039203  0.029881168 
number of iterations: 30529 
    5600    43.264656      120          120            0 1.1758932e-13            0          0.1 0.0090114941    0.8261277  0.029880862 
number of iterations: 30614 
    5700    44.013063      122          122            0 1.1949943e-13            0          0.1 0.0090116808   0.84869581  0.029880551 
number of iterations: 30703 
    5800    44.726834      124          124            0 1.2144056e-13            0          0.1 0.0090118705   0.87163052  0.029880235 
number of iterations: 30785 
    5900    45.468111      124          124            0 1.2341322e-13            0          0.1 0.0090120633   0.89493773  0.029879914 
number of iterations: 30873 
    6000    46.181591      126          126            0 1.2541793e-13            0          0.1 0.0090122593   0.91862352  0.029879588 
number of iterations: 30959 
    6100    46.923471      130          130            0 1.274552e-13            0          0.1 0.0090124584   0.94269405  0.029879256 
number of iterations: 31140 
    6200    47.755961      133          133            0 1.2952556e-13            0          0.1 0.0090126639   0.96715556  0.029878914 
number of iterations: 31133 
    6300    48.526515      135          135            0 1.3162955e-13            0          0.1 0.0090128696    0.9920144  0.029878571 
number of iterations: 31218 
    6400    49.274411      137          137            0 1.3376772e-13            0          0.1 0.0090130786    1.0172771  0.029878223 
number of iterations: 31305 
    6500    49.991846      141          141            0 1.3594062e-13            0          0.1 0.0090132911    1.0429501   0.02987787 
number of iterations: 31393 
    6600    50.721093      141          141            0 1.3814882e-13            0          0.1  0.009013507    1.0690401   0.02987751 
number of iterations: 31479 
    6700    51.475293      144          144            0 1.4039289e-13            0          0.1 0.0090137264    1.0955539  0.029877145 
number of iterations: 31566 
    6800    52.214535      144          144            0 1.4267341e-13            0          0.1 0.0090139494    1.1224983  0.029876774 
number of iterations: 31652 
    6900    52.964096      146          146            0 1.4499097e-13            0          0.1  0.009014176    1.1498805  0.029876396 
number of iterations: 31739 
    7000    53.750488      147          147            0 1.4734618e-13            0          0.1 0.0090144062    1.1777074  0.029876013 
number of iterations: 31827 
    7100    54.497878      150          150            0 1.4973965e-13            0          0.1 0.0090146403    1.2059863  0.029875623 
number of iterations: 31912 
    7200    55.250062      152          152            0 1.5217199e-13            0          0.1 0.0090148781    1.2347246  0.029875227 
number of iterations: 31999 
    7300    56.000354      153          153            0 1.5464385e-13            0          0.1 0.0090151198    1.2639296  0.029874825 
number of iterations: 32085 
    7400       56.741      154          154            0 1.5715586e-13            0          0.1 0.0090153654    1.2936091  0.029874416 
number of iterations: 32172 
    7500    57.508969      156          156            0 1.5970867e-13            0          0.1  0.009015615    1.3237706     0.029874 
number of iterations: 32256 
    7600    58.279435      157          157            0 1.6230295e-13            0          0.1 0.0090158686    1.3544221  0.029873578 
number of iterations: 31560 
    7700    59.052823      159          159            0 1.6493937e-13            0          0.1 0.0090160911    1.3855714  0.029873207 
number of iterations: 32962 
    7800    59.834165      161          161            0 1.6761862e-13            0          0.1 0.0090163772    1.4172267  0.029872731 
number of iterations: 33088 
    7900    60.603562      163          163            0 1.7034138e-13            0          0.1 0.0090166734    1.4493963  0.029872238 
number of iterations: 32612 
    8000    61.369779      165          165            0 1.7310838e-13            0          0.1 0.0090169442    1.4820883  0.029871787 
number of iterations: 32699 
    8100     62.12998      166          166            0 1.7592032e-13            0          0.1 0.0090172195    1.5153115  0.029871329 
number of iterations: 33181 
    8200    62.931668      168          168            0 1.7877794e-13            0          0.1 0.0090175165    1.5490742  0.029870834 
number of iterations: 32879 
    8300    63.804427      171          171            0 1.8168198e-13            0          0.1 0.0090178011    1.5833853   0.02987036 
number of iterations: 32967 
    8400    64.582507      175          175            0 1.8463318e-13            0          0.1 0.0090180902    1.6182538  0.029869879 
number of iterations: 33052 
    8500    65.352465      178          178            0 1.8763233e-13            0          0.1 0.0090183841    1.6536887  0.029869389 
number of iterations: 33139 
    8600     66.11894      181          181            0 1.906802e-13            0          0.1 0.0090186827    1.6896991  0.029868892 
number of iterations: 33225 
    8700    66.971285      185          185            0 1.9377757e-13            0          0.1 0.0090189862    1.7262945  0.029868387 
number of iterations: 33312 
    8800    67.775924      189          189            0 1.9692526e-13            0          0.1 0.0090192946    1.7634843  0.029867873 
number of iterations: 33399 
    8900    68.570092      193          193            0 2.0012407e-13            0          0.1  0.009019608    1.8012782  0.029867351 
number of iterations: 34029 
    9000    69.373085      200          200            0 2.0337485e-13            0          0.1 0.0090199616    1.8396858  0.029866763 
number of iterations: 33582 
    9100    70.177036      204          204            0 2.0667843e-13            0          0.1 0.0090202858    1.8787172  0.029866223 
number of iterations: 33668 
    9200    71.037327      207          207            0 2.1003567e-13            0          0.1 0.0090206153    1.9183826  0.029865674 
number of iterations: 33755 
    9300    71.865067      208          208            0 2.1344745e-13            0          0.1 0.0090209502    1.9586923  0.029865116 
number of iterations: 33842 
    9400    72.648776      210          210            0 2.1691465e-13            0          0.1 0.0090212905    1.9996568   0.02986455 
number of iterations: 33929 
    9500    73.468601      214          214            0 2.2043817e-13            0          0.1 0.0090216364    2.0412867  0.029863974 
number of iterations: 34015 
    9600    74.296285      217          217            0 2.2401892e-13            0          0.1 0.0090219878    2.0835927  0.029863389 
number of iterations: 34062 
    9700    75.104354      221          221            0 2.2765784e-13            0          0.1  0.009022343     2.126586  0.029862797 
number of iterations: 33280 
    9800    75.889287      227          227            0 2.3135586e-13            0          0.1 0.0090226555    2.1702776  0.029862277 
number of iterations: 34262 
    9900    76.688463      231          231            0 2.3511396e-13            0          0.1 0.0090230235     2.214679  0.029861664 
number of iterations: 34437 
   10000    77.510527      237          237            0 2.389331e-13            0          0.1 0.0090234031    2.2598015  0.029861032 
Loop time of 77.5106 on 8 procs for 10000 steps with 237 atoms

Performance: 111468640.756 tau/day, 129.015 timesteps/s
88.7% CPU use with 8 MPI tasks x no OpenMP threads

MPI task timing breakdown:
Section |  min time  |  avg time  |  max time  |%varavg| %total
---------------------------------------------------------------
Pair    | 0.0096801  | 0.01104    | 0.012931   |   0.9 |  0.01
Neigh   | 0.0073556  | 0.00836    | 0.0095147  |   1.0 |  0.01
Comm    | 0.037031   | 0.048819   | 0.054711   |   2.5 |  0.06
Output  | 12.805     | 12.805     | 12.807     |   0.0 | 16.52
Modify  | 64.57      | 64.572     | 64.574     |   0.0 | 83.31
Other   |            | 0.06535    |            |       |  0.08

Nlocal:    29.625 ave 45 max 16 min
Histogram: 1 0 2 1 0 1 0 2 0 1
Nghost:    6 ave 10 max 1 min
Histogram: 1 0 1 0 1 1 2 0 1 1
Neighs:    32 ave 46 max 18 min
Histogram: 1 1 1 1 0 0 1 1 0 2

Total # of neighbors = 256
Ave neighs/atom = 1.08017
Neighbor list builds = 111
Dangerous builds = 0
Total wall time: 0:01:17
