ITEM: TIMESTEP
0
ITEM: NUMBER OF ATOMS
50
ITEM: BOX BOUNDS ff ff ff
0.0000000000000000e+00 1.0000000000000000e-04
0.0000000000000000e+00 1.0000000000000000e-04
0.0000000000000000e+00 5.0000000000000002e-05
ITEM: ATOMS id type diameter x y z 
12 1 1.73e-06 1.51e-05 3.15e-05 2.61e-06 
35 1 1.59e-06 4.02e-06 4.35e-05 4.52e-06 
29 1 1.89e-06 2.31e-05 3.01e-06 2.03e-05 
11 1 1.84e-06 1.55e-05 2.46e-05 2.74e-05 
19 1 1.39e-06 3.18e-05 6.37e-06 2.8e-05 
40 1 1.68e-06 3.64e-05 2.07e-05 2.82e-05 
44 1 1.82e-06 1.24e-05 3.49e-05 3.8e-05 
16 1 1.54e-06 2.03e-05 3.46e-05 4.19e-05 
13 1 1.84e-06 4.71e-05 5.31e-05 8.11e-06 
38 1 1.48e-06 1.81e-05 8.6e-05 1.51e-05 
36 1 1.84e-06 1.62e-05 9.2e-05 2.78e-05 
4 1 1.55e-06 1.63e-05 6.73e-05 2.91e-05 
27 1 1.73e-06 3.99e-06 6.93e-05 3.24e-05 
6 1 1.42e-06 2.83e-05 8.91e-05 3.68e-05 
25 1 1.4e-06 2.94e-05 5.16e-05 3.95e-05 
3 1 1.53e-06 3.79e-06 9.6e-05 3.96e-05 
49 1 1.45e-06 2.78e-05 8.77e-05 4.65e-05 
34 1 1.81e-06 6.25e-05 2.67e-05 2.46e-06 
41 1 1.86e-06 6.22e-05 1.66e-05 3.73e-06 
46 1 1.38e-06 6.36e-05 5.16e-06 4.45e-06 
7 1 1.59e-06 7.53e-05 1.96e-05 6.02e-06 
48 1 1.88e-06 8.56e-05 3.66e-05 6.41e-06 
10 1 1.79e-06 7.73e-05 4.54e-05 7.27e-06 
2 1 1.9e-06 5.75e-05 3.37e-05 9.17e-06 
24 1 1.42e-06 9.02e-05 1.31e-05 1.05e-05 
26 1 1.58e-06 6.1e-05 2.02e-05 1.28e-05 
43 1 1.65e-06 7.14e-05 1.86e-05 1.5e-05 
8 1 1.45e-06 8.69e-05 2.97e-05 1.55e-05 
50 1 1.72e-06 6.41e-05 3.32e-05 1.7e-05 
1 1 1.67e-06 9.04e-05 4.42e-05 1.83e-05 
23 1 1.8e-06 5.11e-05 2.07e-05 2.14e-05 
21 1 1.78e-06 7.61e-05 2.65e-05 2.22e-05 
9 1 1.7e-06 8.24e-05 3.35e-05 2.21e-05 
33 1 1.57e-06 7.06e-05 4.15e-05 2.73e-05 
30 1 1.47e-06 8.08e-05 4.27e-05 2.84e-05 
5 1 1.57e-06 5.89e-05 3.52e-05 3.75e-05 
37 1 1.82e-06 7.79e-05 8.2e-05 2.94e-06 
14 1 1.86e-06 7.87e-05 7.85e-05 3.21e-06 
22 1 1.69e-06 8.05e-05 5.19e-05 3.84e-06 
32 1 1.58e-06 8.27e-05 6.19e-05 3.9e-06 
31 1 1.91e-06 9.35e-05 6.22e-05 6.56e-06 
42 1 1.73e-06 6.17e-05 6.29e-05 6.63e-06 
18 1 1.46e-06 6.99e-05 6.64e-05 8.24e-06 
39 1 1.85e-06 7.6e-05 9.3e-05 8.26e-06 
15 1 1.76e-06 7.04e-05 5.69e-05 1.54e-05 
47 1 1.5e-06 5.35e-05 7.01e-05 2.17e-05 
17 1 1.52e-06 5.21e-05 8.09e-05 3.88e-05 
45 1 1.48e-06 9.27e-05 8.23e-05 4.29e-05 
28 1 1.9e-06 7.17e-05 7.18e-05 4.57e-05 
20 1 1.79e-06 6.94e-05 9.67e-05 4.57e-05 
ITEM: TIMESTEP
100
ITEM: NUMBER OF ATOMS
50
ITEM: BOX BOUNDS ff ff ff
0.0000000000000000e+00 1.0000000000000000e-04
0.0000000000000000e+00 1.0000000000000000e-04
0.0000000000000000e+00 5.0000000000000002e-05
ITEM: ATOMS id type diameter x y z 
12 1 1.7414e-06 1.51e-05 3.15e-05 2.61e-06 
35 1 1.60048e-06 4.02e-06 4.35e-05 4.52e-06 
29 1 1.90245e-06 2.31e-05 3.01e-06 2.03e-05 
11 1 1.85212e-06 1.55e-05 2.46e-05 2.74e-05 
19 1 1.39916e-06 3.18e-05 6.37e-06 2.8e-05 
40 1 1.69107e-06 3.64e-05 2.07e-05 2.82e-05 
44 1 1.83199e-06 1.24e-05 3.49e-05 3.8e-05 
16 1 1.55015e-06 2.03e-05 3.46e-05 4.19e-05 
13 1 1.85212e-06 4.71e-05 5.31e-05 8.11e-06 
38 1 1.48975e-06 1.81e-05 8.6e-05 1.51e-05 
36 1 1.85212e-06 1.62e-05 9.2e-05 2.78e-05 
4 1 1.56021e-06 1.63e-05 6.73e-05 2.91e-05 
27 1 1.7414e-06 3.99e-06 6.93e-05 3.24e-05 
6 1 1.42936e-06 2.83e-05 8.91e-05 3.68e-05 
25 1 1.40923e-06 2.94e-05 5.16e-05 3.95e-05 
3 1 1.54008e-06 3.79e-06 9.6e-05 3.96e-05 
49 1 1.45955e-06 2.78e-05 8.77e-05 4.65e-05 
34 1 1.82193e-06 6.25e-05 2.67e-05 2.46e-06 
41 1 1.87226e-06 6.22e-05 1.66e-05 3.73e-06 
46 1 1.38909e-06 6.36e-05 5.16e-06 4.45e-06 
7 1 1.60048e-06 7.53e-05 1.96e-05 6.02e-06 
48 1 1.89239e-06 8.56e-05 3.66e-05 6.41e-06 
10 1 1.8018e-06 7.73e-05 4.54e-05 7.27e-06 
2 1 1.91252e-06 5.75e-05 3.37e-05 9.17e-06 
24 1 1.42936e-06 9.02e-05 1.31e-05 1.05e-05 
26 1 1.59041e-06 6.1e-05 2.02e-05 1.28e-05 
43 1 1.66087e-06 7.14e-05 1.86e-05 1.5e-05 
8 1 1.45955e-06 8.69e-05 2.97e-05 1.55e-05 
50 1 1.73133e-06 6.41e-05 3.32e-05 1.7e-05 
1 1 1.681e-06 9.04e-05 4.42e-05 1.83e-05 
23 1 1.81186e-06 5.11e-05 2.07e-05 2.14e-05 
21 1 1.79173e-06 7.61e-05 2.65e-05 2.22e-05 
9 1 1.7112e-06 8.24e-05 3.35e-05 2.21e-05 
33 1 1.58035e-06 7.06e-05 4.15e-05 2.73e-05 
30 1 1.47969e-06 8.08e-05 4.27e-05 2.84e-05 
5 1 1.58035e-06 5.89e-05 3.52e-05 3.75e-05 
37 1 1.83199e-06 7.79e-05 8.2e-05 2.94e-06 
14 1 1.87226e-06 7.87e-05 7.85e-05 3.21e-06 
22 1 1.70114e-06 8.05e-05 5.19e-05 3.84e-06 
32 1 1.59041e-06 8.27e-05 6.19e-05 3.9e-06 
31 1 1.92259e-06 9.35e-05 6.22e-05 6.56e-06 
42 1 1.7414e-06 6.17e-05 6.29e-05 6.63e-06 
18 1 1.46962e-06 6.99e-05 6.64e-05 8.24e-06 
39 1 1.86219e-06 7.6e-05 9.3e-05 8.26e-06 
15 1 1.7716e-06 7.04e-05 5.69e-05 1.54e-05 
47 1 1.50988e-06 5.35e-05 7.01e-05 2.17e-05 
17 1 1.53002e-06 5.21e-05 8.09e-05 3.88e-05 
45 1 1.48975e-06 9.27e-05 8.23e-05 4.29e-05 
28 1 1.91252e-06 7.17e-05 7.18e-05 4.57e-05 
20 1 1.8018e-06 6.94e-05 9.67e-05 4.57e-05 
ITEM: TIMESTEP
200
ITEM: NUMBER OF ATOMS
50
ITEM: BOX BOUNDS ff ff ff
0.0000000000000000e+00 1.0000000000000000e-04
0.0000000000000000e+00 1.0000000000000000e-04
0.0000000000000000e+00 5.0000000000000002e-05
ITEM: ATOMS id type diameter x y z 
12 1 1.75287e-06 1.51e-05 3.15e-05 2.61e-06 
35 1 1.61102e-06 4.02e-06 4.35e-05 4.52e-06 
29 1 1.91499e-06 2.31e-05 3.01e-06 2.03e-05 
11 1 1.86433e-06 1.55e-05 2.46e-05 2.74e-05 
19 1 1.40838e-06 3.18e-05 6.37e-06 2.8e-05 
40 1 1.70221e-06 3.64e-05 2.07e-05 2.82e-05 
44 1 1.84406e-06 1.24e-05 3.49e-05 3.8e-05 
16 1 1.56036e-06 2.03e-05 3.46e-05 4.19e-05 
13 1 1.86433e-06 4.71e-05 5.31e-05 8.11e-06 
38 1 1.49957e-06 1.81e-05 8.6e-05 1.51e-05 
36 1 1.86433e-06 1.62e-05 9.2e-05 2.78e-05 
4 1 1.57049e-06 1.63e-05 6.73e-05 2.91e-05 
27 1 1.75287e-06 3.99e-06 6.93e-05 3.24e-05 
6 1 1.43878e-06 2.83e-05 8.91e-05 3.68e-05 
25 1 1.41851e-06 2.94e-05 5.16e-05 3.95e-05 
3 1 1.55023e-06 3.79e-06 9.6e-05 3.96e-05 
49 1 1.46917e-06 2.78e-05 8.77e-05 4.65e-05 
34 1 1.83393e-06 6.25e-05 2.67e-05 2.46e-06 
41 1 1.88459e-06 6.22e-05 1.66e-05 3.73e-06 
46 1 1.39825e-06 6.36e-05 5.16e-06 4.45e-06 
7 1 1.61102e-06 7.53e-05 1.96e-05 6.02e-06 
48 1 1.90486e-06 8.56e-05 3.66e-05 6.41e-06 
10 1 1.81367e-06 7.73e-05 4.54e-05 7.27e-06 
2 1 1.92512e-06 5.75e-05 3.37e-05 9.17e-06 
24 1 1.43878e-06 9.02e-05 1.31e-05 1.05e-05 
26 1 1.60089e-06 6.1e-05 2.02e-05 1.28e-05 
43 1 1.67182e-06 7.14e-05 1.86e-05 1.5e-05 
8 1 1.46917e-06 8.69e-05 2.97e-05 1.55e-05 
50 1 1.74274e-06 6.41e-05 3.32e-05 1.7e-05 
1 1 1.69208e-06 9.04e-05 4.42e-05 1.83e-05 
23 1 1.8238e-06 5.11e-05 2.07e-05 2.14e-05 
21 1 1.80354e-06 7.61e-05 2.65e-05 2.22e-05 
9 1 1.72248e-06 8.24e-05 3.35e-05 2.21e-05 
33 1 1.59076e-06 7.06e-05 4.15e-05 2.73e-05 
30 1 1.48944e-06 8.08e-05 4.27e-05 2.84e-05 
5 1 1.59076e-06 5.89e-05 3.52e-05 3.75e-05 
37 1 1.84406e-06 7.79e-05 8.2e-05 2.94e-06 
14 1 1.88459e-06 7.87e-05 7.85e-05 3.21e-06 
22 1 1.71235e-06 8.05e-05 5.19e-05 3.84e-06 
32 1 1.60089e-06 8.27e-05 6.19e-05 3.9e-06 
31 1 1.93525e-06 9.35e-05 6.22e-05 6.56e-06 
42 1 1.75287e-06 6.17e-05 6.29e-05 6.63e-06 
18 1 1.4793e-06 6.99e-05 6.64e-05 8.24e-06 
39 1 1.87446e-06 7.6e-05 9.3e-05 8.26e-06 
15 1 1.78327e-06 7.04e-05 5.69e-05 1.54e-05 
47 1 1.51983e-06 5.35e-05 7.01e-05 2.17e-05 
17 1 1.5401e-06 5.21e-05 8.09e-05 3.88e-05 
45 1 1.49957e-06 9.27e-05 8.23e-05 4.29e-05 
28 1 1.92512e-06 7.17e-05 7.18e-05 4.57e-05 
20 1 1.81367e-06 6.94e-05 9.67e-05 4.57e-05 
ITEM: TIMESTEP
300
ITEM: NUMBER OF ATOMS
50
ITEM: BOX BOUNDS ff ff ff
0.0000000000000000e+00 1.0000000000000000e-04
0.0000000000000000e+00 1.0000000000000000e-04
0.0000000000000000e+00 5.0000000000000002e-05
ITEM: ATOMS id type diameter x y z 
12 1 1.76442e-06 1.51e-05 3.15e-05 2.61e-06 
35 1 1.62164e-06 4.02e-06 4.35e-05 4.52e-06 
29 1 1.92761e-06 2.31e-05 3.01e-06 2.03e-05 
11 1 1.87661e-06 1.55e-05 2.46e-05 2.74e-05 
19 1 1.41766e-06 3.18e-05 6.37e-06 2.8e-05 
40 1 1.71343e-06 3.64e-05 2.07e-05 2.82e-05 
44 1 1.85622e-06 1.24e-05 3.49e-05 3.8e-05 
16 1 1.57064e-06 2.03e-05 3.46e-05 4.19e-05 
13 1 1.87661e-06 4.71e-05 5.31e-05 8.11e-06 
38 1 1.50945e-06 1.81e-05 8.6e-05 1.51e-05 
36 1 1.87661e-06 1.62e-05 9.2e-05 2.78e-05 
4 1 1.58084e-06 1.63e-05 6.73e-05 2.91e-05 
27 1 1.76442e-06 3.99e-06 6.93e-05 3.24e-05 
6 1 1.44826e-06 2.83e-05 8.91e-05 3.68e-05 
25 1 1.42786e-06 2.94e-05 5.16e-05 3.95e-05 
3 1 1.56045e-06 3.79e-06 9.6e-05 3.96e-05 
49 1 1.47885e-06 2.78e-05 8.77e-05 4.65e-05 
34 1 1.84602e-06 6.25e-05 2.67e-05 2.46e-06 
41 1 1.89701e-06 6.22e-05 1.66e-05 3.73e-06 
46 1 1.40746e-06 6.36e-05 5.16e-06 4.45e-06 
7 1 1.62164e-06 7.53e-05 1.96e-05 6.02e-06 
48 1 1.91741e-06 8.56e-05 3.66e-05 6.41e-06 
10 1 1.82562e-06 7.73e-05 4.54e-05 7.27e-06 
2 1 1.93781e-06 5.75e-05 3.37e-05 9.17e-06 
24 1 1.44826e-06 9.02e-05 1.31e-05 1.05e-05 
26 1 1.61144e-06 6.1e-05 2.02e-05 1.28e-05 
43 1 1.68283e-06 7.14e-05 1.86e-05 1.5e-05 
8 1 1.47885e-06 8.69e-05 2.97e-05 1.55e-05 
50 1 1.75423e-06 6.41e-05 3.32e-05 1.7e-05 
1 1 1.70323e-06 9.04e-05 4.42e-05 1.83e-05 
23 1 1.83582e-06 5.11e-05 2.07e-05 2.14e-05 
21 1 1.81542e-06 7.61e-05 2.65e-05 2.22e-05 
9 1 1.73383e-06 8.24e-05 3.35e-05 2.21e-05 
33 1 1.60124e-06 7.06e-05 4.15e-05 2.73e-05 
30 1 1.49925e-06 8.08e-05 4.27e-05 2.84e-05 
5 1 1.60124e-06 5.89e-05 3.52e-05 3.75e-05 
37 1 1.85622e-06 7.79e-05 8.2e-05 2.94e-06 
14 1 1.89701e-06 7.87e-05 7.85e-05 3.21e-06 
22 1 1.72363e-06 8.05e-05 5.19e-05 3.84e-06 
32 1 1.61144e-06 8.27e-05 6.19e-05 3.9e-06 
31 1 1.94801e-06 9.35e-05 6.22e-05 6.56e-06 
42 1 1.76442e-06 6.17e-05 6.29e-05 6.63e-06 
18 1 1.48905e-06 6.99e-05 6.64e-05 8.24e-06 
39 1 1.88681e-06 7.6e-05 9.3e-05 8.26e-06 
15 1 1.79502e-06 7.04e-05 5.69e-05 1.54e-05 
47 1 1.52985e-06 5.35e-05 7.01e-05 2.17e-05 
17 1 1.55025e-06 5.21e-05 8.09e-05 3.88e-05 
45 1 1.50945e-06 9.27e-05 8.23e-05 4.29e-05 
28 1 1.93781e-06 7.17e-05 7.18e-05 4.57e-05 
20 1 1.82562e-06 6.94e-05 9.67e-05 4.57e-05 
ITEM: TIMESTEP
400
ITEM: NUMBER OF ATOMS
50
ITEM: BOX BOUNDS ff ff ff
0.0000000000000000e+00 1.0000000000000000e-04
0.0000000000000000e+00 1.0000000000000000e-04
0.0000000000000000e+00 5.0000000000000002e-05
ITEM: ATOMS id type diameter x y z 
12 1 1.77605e-06 1.51e-05 3.15e-05 2.61e-06 
35 1 1.63232e-06 4.02e-06 4.35e-05 4.52e-06 
29 1 1.94031e-06 2.31e-05 3.01e-06 2.03e-05 
11 1 1.88898e-06 1.55e-05 2.46e-05 2.74e-05 
19 1 1.427e-06 3.18e-05 6.37e-06 2.8e-05 
40 1 1.72472e-06 3.64e-05 2.07e-05 2.82e-05 
44 1 1.86845e-06 1.24e-05 3.49e-05 3.8e-05 
16 1 1.58099e-06 2.03e-05 3.46e-05 4.19e-05 
13 1 1.88898e-06 4.71e-05 5.31e-05 8.11e-06 
38 1 1.5194e-06 1.81e-05 8.6e-05 1.51e-05 
36 1 1.88898e-06 1.62e-05 9.2e-05 2.78e-05 
4 1 1.59126e-06 1.63e-05 6.73e-05 2.91e-05 
27 1 1.77605e-06 3.99e-06 6.93e-05 3.24e-05 
6 1 1.4578e-06 2.83e-05 8.91e-05 3.68e-05 
25 1 1.43727e-06 2.94e-05 5.16e-05 3.95e-05 
3 1 1.57073e-06 3.79e-06 9.6e-05 3.96e-05 
49 1 1.4886e-06 2.78e-05 8.77e-05 4.65e-05 
34 1 1.85818e-06 6.25e-05 2.67e-05 2.46e-06 
41 1 1.90951e-06 6.22e-05 1.66e-05 3.73e-06 
46 1 1.41673e-06 6.36e-05 5.16e-06 4.45e-06 
7 1 1.63232e-06 7.53e-05 1.96e-05 6.02e-06 
48 1 1.93004e-06 8.56e-05 3.66e-05 6.41e-06 
10 1 1.83765e-06 7.73e-05 4.54e-05 7.27e-06 
2 1 1.95058e-06 5.75e-05 3.37e-05 9.17e-06 
24 1 1.4578e-06 9.02e-05 1.31e-05 1.05e-05 
26 1 1.62206e-06 6.1e-05 2.02e-05 1.28e-05 
43 1 1.69392e-06 7.14e-05 1.86e-05 1.5e-05 
8 1 1.4886e-06 8.69e-05 2.97e-05 1.55e-05 
50 1 1.76579e-06 6.41e-05 3.32e-05 1.7e-05 
1 1 1.71445e-06 9.04e-05 4.42e-05 1.83e-05 
23 1 1.84791e-06 5.11e-05 2.07e-05 2.14e-05 
21 1 1.82738e-06 7.61e-05 2.65e-05 2.22e-05 
9 1 1.74525e-06 8.24e-05 3.35e-05 2.21e-05 
33 1 1.61179e-06 7.06e-05 4.15e-05 2.73e-05 
30 1 1.50913e-06 8.08e-05 4.27e-05 2.84e-05 
5 1 1.61179e-06 5.89e-05 3.52e-05 3.75e-05 
37 1 1.86845e-06 7.79e-05 8.2e-05 2.94e-06 
14 1 1.90951e-06 7.87e-05 7.85e-05 3.21e-06 
22 1 1.73499e-06 8.05e-05 5.19e-05 3.84e-06 
32 1 1.62206e-06 8.27e-05 6.19e-05 3.9e-06 
31 1 1.96084e-06 9.35e-05 6.22e-05 6.56e-06 
42 1 1.77605e-06 6.17e-05 6.29e-05 6.63e-06 
18 1 1.49886e-06 6.99e-05 6.64e-05 8.24e-06 
39 1 1.89925e-06 7.6e-05 9.3e-05 8.26e-06 
15 1 1.80685e-06 7.04e-05 5.69e-05 1.54e-05 
47 1 1.53993e-06 5.35e-05 7.01e-05 2.17e-05 
17 1 1.56046e-06 5.21e-05 8.09e-05 3.88e-05 
45 1 1.5194e-06 9.27e-05 8.23e-05 4.29e-05 
28 1 1.95058e-06 7.17e-05 7.18e-05 4.57e-05 
20 1 1.83765e-06 6.94e-05 9.67e-05 4.57e-05 
ITEM: TIMESTEP
500
ITEM: NUMBER OF ATOMS
51
ITEM: BOX BOUNDS ff ff ff
0.0000000000000000e+00 1.0000000000000000e-04
0.0000000000000000e+00 1.0000000000000000e-04
0.0000000000000000e+00 5.0000000000000002e-05
ITEM: ATOMS id type diameter x y z 
12 1 1.78775e-06 1.51e-05 3.15e-05 2.61e-06 
35 1 1.64308e-06 4.02e-06 4.35e-05 4.52e-06 
29 1 1.9531e-06 2.31e-05 3.01e-06 2.03e-05 
11 1 1.90143e-06 1.55e-05 2.46e-05 2.74e-05 
19 1 1.4364e-06 3.18e-05 6.37e-06 2.8e-05 
40 1 1.73609e-06 3.64e-05 2.07e-05 2.82e-05 
44 1 1.88076e-06 1.24e-05 3.49e-05 3.8e-05 
16 1 1.59141e-06 2.03e-05 3.46e-05 4.19e-05 
13 1 1.90143e-06 4.71e-05 5.31e-05 8.11e-06 
38 1 1.52941e-06 1.81e-05 8.6e-05 1.51e-05 
36 1 1.90143e-06 1.62e-05 9.2e-05 2.78e-05 
4 1 1.60175e-06 1.63e-05 6.73e-05 2.91e-05 
27 1 1.78775e-06 3.99e-06 6.93e-05 3.24e-05 
6 1 1.46741e-06 2.83e-05 8.91e-05 3.68e-05 
25 1 1.44674e-06 2.94e-05 5.16e-05 3.95e-05 
3 1 1.58108e-06 3.79e-06 9.6e-05 3.96e-05 
49 1 1.49841e-06 2.78e-05 8.77e-05 4.65e-05 
34 1 1.87043e-06 6.25e-05 2.67e-05 2.46e-06 
41 1 1.92209e-06 6.22e-05 1.66e-05 3.73e-06 
46 1 1.42607e-06 6.36e-05 5.16e-06 4.45e-06 
7 1 1.64308e-06 7.53e-05 1.96e-05 6.02e-06 
48 1 1.94276e-06 8.56e-05 3.66e-05 6.41e-06 
10 1 1.84976e-06 7.73e-05 4.54e-05 7.27e-06 
2 1 1.96343e-06 5.75e-05 3.37e-05 9.17e-06 
24 1 1.46741e-06 9.02e-05 1.31e-05 1.05e-05 
26 1 1.63275e-06 6.1e-05 2.02e-05 1.28e-05 
43 1 1.70508e-06 7.14e-05 1.86e-05 1.5e-05 
8 1 1.49841e-06 8.69e-05 2.97e-05 1.55e-05 
50 1 1.77742e-06 6.41e-05 3.32e-05 1.7e-05 
1 1 1.72575e-06 9.04e-05 4.42e-05 1.83e-05 
23 1 1.86009e-06 5.11e-05 2.07e-05 2.14e-05 
21 1 1.83942e-06 7.61e-05 2.65e-05 2.22e-05 
9 1 1.75675e-06 8.24e-05 3.35e-05 2.21e-05 
33 1 1.62241e-06 7.06e-05 4.15e-05 2.73e-05 
30 1 1.51907e-06 8.08e-05 4.27e-05 2.84e-05 
5 1 1.62241e-06 5.89e-05 3.52e-05 3.75e-05 
37 1 1.88076e-06 7.79e-05 8.2e-05 2.94e-06 
14 1 1.92209e-06 7.87e-05 7.85e-05 3.21e-06 
22 1 1.74642e-06 8.05e-05 5.19e-05 3.84e-06 
32 1 1.63275e-06 8.27e-05 6.19e-05 3.9e-06 
31 1 1.61056e-06 9.367e-05 6.17628e-05 7.21301e-06 
42 1 1.78775e-06 6.17e-05 6.29e-05 6.63e-06 
18 1 1.50874e-06 6.99e-05 6.64e-05 8.24e-06 
39 1 1.91176e-06 7.6e-05 9.3e-05 8.26e-06 
15 1 1.81876e-06 7.04e-05 5.69e-05 1.54e-05 
51 1 1.51998e-06 9.33396e-05 6.26126e-05 5.94371e-06 
47 1 1.55008e-06 5.35e-05 7.01e-05 2.17e-05 
17 1 1.57074e-06 5.21e-05 8.09e-05 3.88e-05 
45 1 1.52941e-06 9.27e-05 8.23e-05 4.29e-05 
28 1 1.96343e-06 7.17e-05 7.18e-05 4.57e-05 
20 1 1.84976e-06 6.94e-05 9.67e-05 4.57e-05 
ITEM: TIMESTEP
600
ITEM: NUMBER OF ATOMS
53
ITEM: BOX BOUNDS ff ff ff
0.0000000000000000e+00 1.0000000000000000e-04
0.0000000000000000e+00 1.0000000000000000e-04
0.0000000000000000e+00 5.0000000000000002e-05
ITEM: ATOMS id type diameter x y z 
12 1 1.79953e-06 1.51e-05 3.15e-05 2.61e-06 
35 1 1.65391e-06 4.02e-06 4.35e-05 4.52e-06 
29 1 1.96597e-06 2.31e-05 3.01e-06 2.03e-05 
11 1 1.91396e-06 1.55e-05 2.46e-05 2.74e-05 
19 1 1.44587e-06 3.18e-05 6.37e-06 2.8e-05 
40 1 1.74753e-06 3.64e-05 2.07e-05 2.82e-05 
44 1 1.89315e-06 1.24e-05 3.49e-05 3.8e-05 
16 1 1.6019e-06 2.03e-05 3.46e-05 4.19e-05 
13 1 1.91396e-06 4.71e-05 5.31e-05 8.11e-06 
38 1 1.53949e-06 1.81e-05 8.6e-05 1.51e-05 
36 1 1.91396e-06 1.62e-05 9.2e-05 2.78e-05 
4 1 1.6123e-06 1.63e-05 6.73e-05 2.91e-05 
27 1 1.79953e-06 3.99e-06 6.93e-05 3.24e-05 
6 1 1.47707e-06 2.83e-05 8.91e-05 3.68e-05 
25 1 1.45627e-06 2.94e-05 5.16e-05 3.95e-05 
3 1 1.5915e-06 3.79e-06 9.6e-05 3.96e-05 
49 1 1.50828e-06 2.78e-05 8.77e-05 4.65e-05 
34 1 1.88275e-06 6.25e-05 2.67e-05 2.46e-06 
41 1 1.93476e-06 6.22e-05 1.66e-05 3.73e-06 
46 1 1.43547e-06 6.36e-05 5.16e-06 4.45e-06 
7 1 1.65391e-06 7.53e-05 1.96e-05 6.02e-06 
48 1 1.95556e-06 8.56e-05 3.66e-05 6.41e-06 
10 1 1.86195e-06 7.73e-05 4.54e-05 7.27e-06 
2 1 1.61268e-06 5.76702e-05 3.32623e-05 9.82388e-06 
24 1 1.47707e-06 9.02e-05 1.31e-05 1.05e-05 
26 1 1.64351e-06 6.1e-05 2.02e-05 1.28e-05 
43 1 1.71632e-06 7.14e-05 1.86e-05 1.5e-05 
8 1 1.50828e-06 8.69e-05 2.97e-05 1.55e-05 
50 1 1.78913e-06 6.41e-05 3.32e-05 1.7e-05 
1 1 1.73712e-06 9.04e-05 4.42e-05 1.83e-05 
52 1 1.52198e-06 5.73394e-05 3.41131e-05 8.5529e-06 
23 1 1.87235e-06 5.11e-05 2.07e-05 2.14e-05 
21 1 1.85154e-06 7.61e-05 2.65e-05 2.22e-05 
9 1 1.76833e-06 8.24e-05 3.35e-05 2.21e-05 
33 1 1.6331e-06 7.06e-05 4.15e-05 2.73e-05 
30 1 1.52908e-06 8.08e-05 4.27e-05 2.84e-05 
5 1 1.6331e-06 5.89e-05 3.52e-05 3.75e-05 
37 1 1.89315e-06 7.79e-05 8.2e-05 2.94e-06 
14 1 1.93476e-06 7.87e-05 7.85e-05 3.21e-06 
22 1 1.75793e-06 8.05e-05 5.19e-05 3.84e-06 
32 1 1.64351e-06 8.27e-05 6.19e-05 3.9e-06 
31 1 1.62117e-06 9.367e-05 6.17628e-05 7.21301e-06 
42 1 1.79953e-06 6.17e-05 6.29e-05 6.63e-06 
18 1 1.51868e-06 6.99e-05 6.64e-05 8.24e-06 
39 1 1.92436e-06 7.6e-05 9.3e-05 8.26e-06 
15 1 1.83074e-06 7.04e-05 5.69e-05 1.54e-05 
51 1 1.52999e-06 9.33396e-05 6.26126e-05 5.94371e-06 
47 1 1.56029e-06 5.35e-05 7.01e-05 2.17e-05 
17 1 1.58109e-06 5.21e-05 8.09e-05 3.88e-05 
45 1 1.53949e-06 9.27e-05 8.23e-05 4.29e-05 
28 1 1.61268e-06 7.18702e-05 7.13623e-05 4.63539e-05 
20 1 1.86195e-06 6.94e-05 9.67e-05 4.57e-05 
53 1 1.52198e-06 7.15394e-05 7.22131e-05 4.50829e-05 
ITEM: TIMESTEP
700
ITEM: NUMBER OF ATOMS
54
ITEM: BOX BOUNDS ff ff ff
0.0000000000000000e+00 1.0000000000000000e-04
0.0000000000000000e+00 1.0000000000000000e-04
0.0000000000000000e+00 5.0000000000000002e-05
ITEM: ATOMS id type diameter x y z 
12 1 1.81139e-06 1.51e-05 3.15e-05 2.61e-06 
35 1 1.66481e-06 4.02e-06 4.35e-05 4.52e-06 
54 1 1.52395e-06 2.29392e-05 3.42365e-06 1.96821e-05 
29 1 1.61477e-06 2.32704e-05 2.5717e-06 2.09547e-05 
11 1 1.92657e-06 1.55e-05 2.46e-05 2.74e-05 
19 1 1.4554e-06 3.18e-05 6.37e-06 2.8e-05 
40 1 1.75904e-06 3.64e-05 2.07e-05 2.82e-05 
44 1 1.90563e-06 1.24e-05 3.49e-05 3.8e-05 
16 1 1.61245e-06 2.03e-05 3.46e-05 4.19e-05 
13 1 1.92657e-06 4.71e-05 5.31e-05 8.11e-06 
38 1 1.54963e-06 1.81e-05 8.6e-05 1.51e-05 
36 1 1.92657e-06 1.62e-05 9.2e-05 2.78e-05 
4 1 1.62292e-06 1.63e-05 6.73e-05 2.91e-05 
27 1 1.81139e-06 3.99e-06 6.93e-05 3.24e-05 
6 1 1.48681e-06 2.83e-05 8.91e-05 3.68e-05 
25 1 1.46587e-06 2.94e-05 5.16e-05 3.95e-05 
3 1 1.60198e-06 3.79e-06 9.6e-05 3.96e-05 
49 1 1.51822e-06 2.78e-05 8.77e-05 4.65e-05 
34 1 1.89516e-06 6.25e-05 2.67e-05 2.46e-06 
41 1 1.94751e-06 6.22e-05 1.66e-05 3.73e-06 
46 1 1.44493e-06 6.36e-05 5.16e-06 4.45e-06 
7 1 1.66481e-06 7.53e-05 1.96e-05 6.02e-06 
48 1 1.96845e-06 8.56e-05 3.66e-05 6.41e-06 
10 1 1.87422e-06 7.73e-05 4.54e-05 7.27e-06 
2 1 1.62331e-06 5.76702e-05 3.32623e-05 9.82388e-06 
24 1 1.48681e-06 9.02e-05 1.31e-05 1.05e-05 
26 1 1.65434e-06 6.1e-05 2.02e-05 1.28e-05 
43 1 1.72763e-06 7.14e-05 1.86e-05 1.5e-05 
8 1 1.51822e-06 8.69e-05 2.97e-05 1.55e-05 
50 1 1.80092e-06 6.41e-05 3.32e-05 1.7e-05 
1 1 1.74857e-06 9.04e-05 4.42e-05 1.83e-05 
52 1 1.53201e-06 5.73394e-05 3.41131e-05 8.5529e-06 
23 1 1.88469e-06 5.11e-05 2.07e-05 2.14e-05 
21 1 1.86375e-06 7.61e-05 2.65e-05 2.22e-05 
9 1 1.77998e-06 8.24e-05 3.35e-05 2.21e-05 
33 1 1.64387e-06 7.06e-05 4.15e-05 2.73e-05 
30 1 1.53916e-06 8.08e-05 4.27e-05 2.84e-05 
5 1 1.64387e-06 5.89e-05 3.52e-05 3.75e-05 
37 1 1.90563e-06 7.79e-05 8.2e-05 2.94e-06 
14 1 1.94751e-06 7.87e-05 7.85e-05 3.21e-06 
22 1 1.76951e-06 8.05e-05 5.19e-05 3.84e-06 
32 1 1.65434e-06 8.27e-05 6.19e-05 3.9e-06 
31 1 1.63186e-06 9.367e-05 6.17628e-05 7.21301e-06 
42 1 1.81139e-06 6.17e-05 6.29e-05 6.63e-06 
18 1 1.52869e-06 6.99e-05 6.64e-05 8.24e-06 
39 1 1.93704e-06 7.6e-05 9.3e-05 8.26e-06 
15 1 1.8428e-06 7.04e-05 5.69e-05 1.54e-05 
51 1 1.54007e-06 9.33396e-05 6.26126e-05 5.94371e-06 
47 1 1.57057e-06 5.35e-05 7.01e-05 2.17e-05 
17 1 1.59151e-06 5.21e-05 8.09e-05 3.88e-05 
45 1 1.54963e-06 9.27e-05 8.23e-05 4.29e-05 
28 1 1.62331e-06 7.18702e-05 7.13623e-05 4.63539e-05 
20 1 1.87422e-06 6.94e-05 9.67e-05 4.57e-05 
53 1 1.53201e-06 7.15394e-05 7.22131e-05 4.50829e-05 
ITEM: TIMESTEP
800
ITEM: NUMBER OF ATOMS
55
ITEM: BOX BOUNDS ff ff ff
0.0000000000000000e+00 1.0000000000000000e-04
0.0000000000000000e+00 1.0000000000000000e-04
0.0000000000000000e+00 5.0000000000000002e-05
ITEM: ATOMS id type diameter x y z 
12 1 1.82333e-06 1.51e-05 3.15e-05 2.61e-06 
35 1 1.67578e-06 4.02e-06 4.35e-05 4.52e-06 
54 1 1.53399e-06 2.2937e-05 3.42909e-06 1.9674e-05 
29 1 1.62541e-06 2.32725e-05 2.56626e-06 2.09628e-05 
11 1 1.93926e-06 1.55e-05 2.46e-05 2.74e-05 
19 1 1.46499e-06 3.18e-05 6.37e-06 2.8e-05 
40 1 1.77063e-06 3.64e-05 2.07e-05 2.82e-05 
44 1 1.91818e-06 1.24e-05 3.49e-05 3.8e-05 
16 1 1.62308e-06 2.03e-05 3.46e-05 4.19e-05 
13 1 1.93926e-06 4.71e-05 5.31e-05 8.11e-06 
38 1 1.55984e-06 1.81e-05 8.6e-05 1.51e-05 
36 1 1.93926e-06 1.62e-05 9.2e-05 2.78e-05 
4 1 1.63362e-06 1.63e-05 6.73e-05 2.91e-05 
27 1 1.82333e-06 3.99e-06 6.93e-05 3.24e-05 
6 1 1.49661e-06 2.83e-05 8.91e-05 3.68e-05 
25 1 1.47553e-06 2.94e-05 5.16e-05 3.95e-05 
3 1 1.61254e-06 3.79e-06 9.6e-05 3.96e-05 
49 1 1.52822e-06 2.78e-05 8.77e-05 4.65e-05 
34 1 1.90764e-06 6.25e-05 2.67e-05 2.46e-06 
41 1 1.96034e-06 6.22e-05 1.66e-05 3.73e-06 
46 1 1.45445e-06 6.36e-05 5.16e-06 4.45e-06 
7 1 1.67578e-06 7.53e-05 1.96e-05 6.02e-06 
48 1 1.53675e-06 8.59979e-05 3.69454e-05 6.9676e-06 
10 1 1.88657e-06 7.73e-05 4.54e-05 7.27e-06 
2 1 1.63401e-06 5.76702e-05 3.32623e-05 9.82388e-06 
24 1 1.49661e-06 9.02e-05 1.31e-05 1.05e-05 
26 1 1.66524e-06 6.1e-05 2.02e-05 1.28e-05 
43 1 1.73901e-06 7.14e-05 1.86e-05 1.5e-05 
8 1 1.52822e-06 8.69e-05 2.97e-05 1.55e-05 
50 1 1.81279e-06 6.41e-05 3.32e-05 1.7e-05 
1 1 1.76009e-06 9.04e-05 4.42e-05 1.83e-05 
52 1 1.5421e-06 5.73394e-05 3.41131e-05 8.5529e-06 
55 1 1.60699e-06 8.51839e-05 3.62388e-05 5.82692e-06 
23 1 1.8971e-06 5.11e-05 2.07e-05 2.14e-05 
21 1 1.87603e-06 7.61e-05 2.65e-05 2.22e-05 
9 1 1.79171e-06 8.24e-05 3.35e-05 2.21e-05 
33 1 1.6547e-06 7.06e-05 4.15e-05 2.73e-05 
30 1 1.5493e-06 8.08e-05 4.27e-05 2.84e-05 
5 1 1.6547e-06 5.89e-05 3.52e-05 3.75e-05 
37 1 1.91818e-06 7.79e-05 8.2e-05 2.94e-06 
14 1 1.96034e-06 7.87e-05 7.85e-05 3.21e-06 
22 1 1.78117e-06 8.05e-05 5.19e-05 3.84e-06 
32 1 1.66524e-06 8.27e-05 6.19e-05 3.9e-06 
31 1 1.64261e-06 9.36742e-05 6.1752e-05 7.22926e-06 
42 1 1.82333e-06 6.17e-05 6.29e-05 6.63e-06 
18 1 1.53876e-06 6.99e-05 6.64e-05 8.24e-06 
39 1 1.9498e-06 7.6e-05 9.3e-05 8.26e-06 
15 1 1.85495e-06 7.04e-05 5.69e-05 1.54e-05 
51 1 1.55022e-06 9.33354e-05 6.26234e-05 5.92747e-06 
47 1 1.58092e-06 5.35e-05 7.01e-05 2.17e-05 
17 1 1.602e-06 5.21e-05 8.09e-05 3.88e-05 
45 1 1.55984e-06 9.27e-05 8.23e-05 4.29e-05 
28 1 1.63401e-06 7.18702e-05 7.13623e-05 4.63539e-05 
20 1 1.88657e-06 6.94e-05 9.67e-05 4.57e-05 
53 1 1.5421e-06 7.15394e-05 7.22131e-05 4.50829e-05 
ITEM: TIMESTEP
900
ITEM: NUMBER OF ATOMS
57
ITEM: BOX BOUNDS ff ff ff
0.0000000000000000e+00 1.0000000000000000e-04
0.0000000000000000e+00 1.0000000000000000e-04
0.0000000000000000e+00 5.0000000000000002e-05
ITEM: ATOMS id type diameter x y z 
12 1 1.83534e-06 1.51e-05 3.15e-05 2.61e-06 
35 1 1.68682e-06 4.02e-06 4.35e-05 4.52e-06 
54 1 1.5441e-06 2.2937e-05 3.42909e-06 1.9674e-05 
29 1 1.63612e-06 2.32725e-05 2.56626e-06 2.09628e-05 
11 1 1.95204e-06 1.55e-05 2.46e-05 2.74e-05 
19 1 1.47464e-06 3.18e-05 6.37e-06 2.8e-05 
40 1 1.7823e-06 3.64e-05 2.07e-05 2.82e-05 
44 1 1.93082e-06 1.24e-05 3.49e-05 3.8e-05 
16 1 1.63377e-06 2.03e-05 3.46e-05 4.19e-05 
13 1 1.95204e-06 4.71e-05 5.31e-05 8.11e-06 
38 1 1.57012e-06 1.81e-05 8.6e-05 1.51e-05 
36 1 1.95204e-06 1.62e-05 9.2e-05 2.78e-05 
4 1 1.64438e-06 1.63e-05 6.73e-05 2.91e-05 
27 1 1.83534e-06 3.99e-06 6.93e-05 3.24e-05 
6 1 1.50647e-06 2.83e-05 8.91e-05 3.68e-05 
25 1 1.48525e-06 2.94e-05 5.16e-05 3.95e-05 
3 1 1.62316e-06 3.79e-06 9.6e-05 3.96e-05 
49 1 1.53829e-06 2.78e-05 8.77e-05 4.65e-05 
34 1 1.92021e-06 6.25e-05 2.67e-05 2.46e-06 
41 1 1.53645e-06 6.29038e-05 1.63613e-05 3.91978e-06 
46 1 1.46403e-06 6.36e-05 5.16e-06 4.45e-06 
7 1 1.68682e-06 7.53e-05 1.96e-05 6.02e-06 
48 1 1.54688e-06 8.59979e-05 3.69454e-05 6.9676e-06 
10 1 1.899e-06 7.73e-05 4.54e-05 7.27e-06 
2 1 1.64478e-06 5.76744e-05 3.32514e-05 9.84012e-06 
24 1 1.50647e-06 9.02e-05 1.31e-05 1.05e-05 
26 1 1.67621e-06 6.1e-05 2.02e-05 1.28e-05 
43 1 1.75047e-06 7.14e-05 1.86e-05 1.5e-05 
8 1 1.53829e-06 8.69e-05 2.97e-05 1.55e-05 
50 1 1.82473e-06 6.41e-05 3.32e-05 1.7e-05 
1 1 1.77169e-06 9.04e-05 4.42e-05 1.83e-05 
52 1 1.55227e-06 5.73351e-05 3.4124e-05 8.53666e-06 
55 1 1.61758e-06 8.51839e-05 3.62388e-05 5.82692e-06 
56 1 1.59482e-06 6.14695e-05 1.68477e-05 3.53301e-06 
23 1 1.90961e-06 5.11e-05 2.07e-05 2.14e-05 
21 1 1.88839e-06 7.61e-05 2.65e-05 2.22e-05 
9 1 1.80352e-06 8.24e-05 3.35e-05 2.21e-05 
33 1 1.6656e-06 7.06e-05 4.15e-05 2.73e-05 
30 1 1.55951e-06 8.08e-05 4.27e-05 2.84e-05 
5 1 1.6656e-06 5.89e-05 3.52e-05 3.75e-05 
37 1 1.93082e-06 7.79e-05 8.2e-05 2.94e-06 
14 1 1.53042e-06 7.90963e-05 7.8844e-05 3.7653e-06 
22 1 1.79291e-06 8.05e-05 5.19e-05 3.84e-06 
32 1 1.67621e-06 8.27e-05 6.19e-05 3.9e-06 
31 1 1.65343e-06 9.36742e-05 6.1752e-05 7.22926e-06 
42 1 1.83534e-06 6.17e-05 6.29e-05 6.63e-06 
18 1 1.5489e-06 6.99e-05 6.64e-05 8.24e-06 
39 1 1.96265e-06 7.6e-05 9.3e-05 8.26e-06 
15 1 1.86717e-06 7.04e-05 5.69e-05 1.54e-05 
51 1 1.56044e-06 9.33354e-05 6.26234e-05 5.92747e-06 
57 1 1.60037e-06 7.82856e-05 7.81403e-05 2.62932e-06 
47 1 1.59134e-06 5.35e-05 7.01e-05 2.17e-05 
17 1 1.61256e-06 5.21e-05 8.09e-05 3.88e-05 
45 1 1.57012e-06 9.27e-05 8.23e-05 4.29e-05 
28 1 1.64478e-06 7.18744e-05 7.13514e-05 4.63701e-05 
20 1 1.899e-06 6.94e-05 9.67e-05 4.57e-05 
53 1 1.55227e-06 7.15351e-05 7.2224e-05 4.50667e-05 
ITEM: TIMESTEP
1000
ITEM: NUMBER OF ATOMS
58
ITEM: BOX BOUNDS ff ff ff
0.0000000000000000e+00 1.0000000000000000e-04
0.0000000000000000e+00 1.0000000000000000e-04
0.0000000000000000e+00 5.0000000000000002e-05
ITEM: ATOMS id type diameter x y z 
12 1 1.84744e-06 1.51e-05 3.15e-05 2.61e-06 
35 1 1.69793e-06 4.02e-06 4.35e-05 4.52e-06 
54 1 1.55427e-06 2.2937e-05 3.42909e-06 1.9674e-05 
29 1 1.6469e-06 2.32725e-05 2.56626e-06 2.09628e-05 
11 1 1.9649e-06 1.55e-05 2.46e-05 2.74e-05 
19 1 1.48436e-06 3.18e-05 6.37e-06 2.8e-05 
40 1 1.79404e-06 3.64e-05 2.07e-05 2.82e-05 
44 1 1.94355e-06 1.24e-05 3.49e-05 3.8e-05 
16 1 1.64454e-06 2.03e-05 3.46e-05 4.19e-05 
13 1 1.9649e-06 4.71e-05 5.31e-05 8.11e-06 
38 1 1.58047e-06 1.81e-05 8.6e-05 1.51e-05 
36 1 1.9649e-06 1.62e-05 9.2e-05 2.78e-05 
4 1 1.65522e-06 1.63e-05 6.73e-05 2.91e-05 
27 1 1.84744e-06 3.99e-06 6.93e-05 3.24e-05 
6 1 1.51639e-06 2.83e-05 8.91e-05 3.68e-05 
25 1 1.49504e-06 2.94e-05 5.16e-05 3.95e-05 
3 1 1.63386e-06 3.79e-06 9.6e-05 3.96e-05 
49 1 1.54843e-06 2.78e-05 8.77e-05 4.65e-05 
34 1 1.93287e-06 6.25e-05 2.67e-05 2.46e-06 
41 1 1.54657e-06 6.29038e-05 1.63613e-05 3.91978e-06 
56 1 1.60533e-06 6.14695e-05 1.68477e-05 3.53301e-06 
46 1 1.47368e-06 6.36e-05 5.16e-06 4.45e-06 
55 1 1.62824e-06 8.51839e-05 3.62388e-05 5.82692e-06 
7 1 1.69793e-06 7.53e-05 1.96e-05 6.02e-06 
48 1 1.55707e-06 8.59979e-05 3.69454e-05 6.9676e-06 
10 1 1.91151e-06 7.73e-05 4.54e-05 7.27e-06 
52 1 1.56249e-06 5.73351e-05 3.4124e-05 8.53666e-06 
2 1 1.65561e-06 5.76744e-05 3.32514e-05 9.84012e-06 
24 1 1.51639e-06 9.02e-05 1.31e-05 1.05e-05 
26 1 1.68725e-06 6.1e-05 2.02e-05 1.28e-05 
43 1 1.76201e-06 7.14e-05 1.86e-05 1.5e-05 
8 1 1.54843e-06 8.69e-05 2.97e-05 1.55e-05 
50 1 1.83676e-06 6.41e-05 3.32e-05 1.7e-05 
1 1 1.78336e-06 9.04e-05 4.42e-05 1.83e-05 
23 1 1.92219e-06 5.11e-05 2.07e-05 2.14e-05 
21 1 1.90083e-06 7.61e-05 2.65e-05 2.22e-05 
9 1 1.8154e-06 8.24e-05 3.35e-05 2.21e-05 
33 1 1.67658e-06 7.06e-05 4.15e-05 2.73e-05 
30 1 1.56979e-06 8.08e-05 4.27e-05 2.84e-05 
5 1 1.67658e-06 5.89e-05 3.52e-05 3.75e-05 
57 1 1.61091e-06 7.82856e-05 7.81403e-05 2.62932e-06 
37 1 1.94355e-06 7.79e-05 8.2e-05 2.94e-06 
22 1 1.80472e-06 8.05e-05 5.19e-05 3.84e-06 
32 1 1.68725e-06 8.27e-05 6.19e-05 3.9e-06 
14 1 1.54051e-06 7.90963e-05 7.8844e-05 3.7653e-06 
51 1 1.57072e-06 9.33354e-05 6.26234e-05 5.92747e-06 
42 1 1.84744e-06 6.17e-05 6.29e-05 6.63e-06 
31 1 1.66433e-06 9.36742e-05 6.1752e-05 7.22926e-06 
18 1 1.55911e-06 6.99e-05 6.64e-05 8.24e-06 
39 1 1.53826e-06 7.67046e-05 9.2761e-05 8.45e-06 
58 1 1.5967e-06 7.52686e-05 9.3248e-05 8.06278e-06 
15 1 1.87947e-06 7.04e-05 5.69e-05 1.54e-05 
47 1 1.60182e-06 5.35e-05 7.01e-05 2.17e-05 
17 1 1.62318e-06 5.21e-05 8.09e-05 3.88e-05 
45 1 1.58047e-06 9.27e-05 8.23e-05 4.29e-05 
53 1 1.56249e-06 7.15351e-05 7.2224e-05 4.50667e-05 
20 1 1.91151e-06 6.94e-05 9.67e-05 4.57e-05 
28 1 1.65561e-06 7.18744e-05 7.13514e-05 4.63701e-05 
ITEM: TIMESTEP
1100
ITEM: NUMBER OF ATOMS
61
ITEM: BOX BOUNDS ff ff ff
0.0000000000000000e+00 1.0000000000000000e-04
0.0000000000000000e+00 1.0000000000000000e-04
0.0000000000000000e+00 5.0000000000000002e-05
ITEM: ATOMS id type diameter x y z 
12 1 1.85961e-06 1.51e-05 3.15e-05 2.61e-06 
35 1 1.70912e-06 4.02e-06 4.35e-05 4.52e-06 
54 1 1.56451e-06 2.2937e-05 3.42909e-06 1.9674e-05 
29 1 1.65775e-06 2.32725e-05 2.56626e-06 2.09628e-05 
11 1 1.53399e-06 1.58972e-05 2.49448e-05 2.79566e-05 
19 1 1.49414e-06 3.18e-05 6.37e-06 2.8e-05 
40 1 1.80586e-06 3.64e-05 2.07e-05 2.82e-05 
44 1 1.95635e-06 1.24e-05 3.49e-05 3.8e-05 
16 1 1.65538e-06 2.03e-05 3.46e-05 4.19e-05 
59 1 1.60409e-06 1.50847e-05 2.42395e-05 2.6818e-05 
13 1 1.6139e-06 4.72703e-05 5.26619e-05 8.76437e-06 
38 1 1.59088e-06 1.81e-05 8.6e-05 1.51e-05 
60 1 1.52312e-06 4.69393e-05 5.35134e-05 7.49244e-06 
36 1 1.6139e-06 1.63703e-05 9.15619e-05 2.84544e-05 
4 1 1.66613e-06 1.63e-05 6.73e-05 2.91e-05 
27 1 1.85961e-06 3.99e-06 6.93e-05 3.24e-05 
6 1 1.52639e-06 2.83e-05 8.91e-05 3.68e-05 
25 1 1.50489e-06 2.94e-05 5.16e-05 3.95e-05 
3 1 1.64463e-06 3.79e-06 9.6e-05 3.96e-05 
49 1 1.55863e-06 2.78e-05 8.77e-05 4.65e-05 
61 1 1.52312e-06 1.60393e-05 9.24134e-05 2.71824e-05 