ITEM: TIMESTEP
0
ITEM: NUMBER OF ATOMS
50
ITEM: BOX BOUNDS ff ff ff
0.0000000000000000e+00 1.0000000000000000e-04
0.0000000000000000e+00 1.0000000000000000e-04
0.0000000000000000e+00 5.0000000000000002e-05
ITEM: ATOMS id type diameter x y z 
49 1 1.5e-06 4.29e-05 3.6e-05 1.83e-06 
46 1 1.8e-06 3.44e-05 1.87e-05 2.16e-06 
27 1 1.91e-06 2.34e-05 3.6e-05 8.81e-06 
37 1 1.81e-06 1.98e-05 2.61e-05 9.47e-06 
50 1 1.56e-06 3.13e-05 1.75e-05 9.74e-06 
32 1 1.76e-06 1.79e-05 4.72e-05 1.38e-05 
4 1 1.64e-06 1.96e-05 4.27e-05 1.85e-05 
23 1 1.38e-06 1.23e-05 1.93e-05 2.25e-05 
30 1 1.48e-06 1.04e-05 1.61e-05 2.48e-05 
40 1 1.41e-06 1.02e-05 6.28e-06 2.69e-05 
47 1 1.57e-06 2.5e-05 4.6e-05 2.93e-05 
13 1 1.4e-06 1.17e-05 3.1e-05 3.67e-05 
12 1 1.71e-06 3.14e-06 2.4e-05 3.78e-05 
17 1 1.67e-06 2.97e-05 2.78e-05 3.79e-05 
38 1 1.51e-06 4.84e-05 2.79e-05 4.68e-05 
48 1 1.42e-06 4.83e-05 3.96e-05 4.66e-05 
25 1 1.41e-06 1.88e-05 2.72e-05 4.81e-05 
42 1 1.93e-06 3.24e-05 8.39e-05 4.44e-06 
31 1 1.48e-06 4.2e-05 9.48e-05 8.95e-06 
2 1 1.73e-06 4.43e-05 6.82e-05 1.57e-05 
43 1 1.89e-06 2.36e-05 9.37e-05 2.09e-05 
39 1 1.47e-06 4.93e-05 6.95e-05 2.24e-05 
28 1 1.43e-06 3.57e-05 8.36e-05 3.48e-05 
44 1 1.46e-06 4.49e-05 8.6e-05 3.92e-05 
34 1 1.76e-06 7.21e-06 7.31e-05 4.01e-05 
21 1 1.85e-06 3.94e-05 7.1e-05 4.12e-05 
41 1 1.91e-06 8.19e-05 3.89e-05 1.11e-05 
45 1 1.42e-06 7.09e-05 4.38e-05 1.2e-05 
14 1 1.83e-06 6.4e-05 1.2e-05 1.46e-05 
35 1 1.42e-06 8.3e-05 1.17e-05 2.16e-05 
29 1 1.46e-06 9.82e-05 2.81e-05 2.68e-05 
22 1 1.59e-06 5.52e-05 3.2e-05 3.39e-05 
24 1 1.85e-06 8.17e-05 4.48e-05 3.53e-05 
5 1 1.82e-06 9.47e-05 2.79e-05 3.88e-05 
3 1 1.69e-06 5.31e-05 4.08e-05 4.57e-05 
1 1 1.87e-06 7.49e-05 5.23e-06 4.8e-05 
16 1 1.78e-06 9.52e-05 2.9e-05 4.82e-05 
33 1 1.58e-06 6.73e-05 6.62e-05 2e-06 
20 1 1.62e-06 8.41e-05 8.1e-05 4.75e-06 
7 1 1.79e-06 9.05e-05 6.28e-05 2.08e-05 
11 1 1.74e-06 7.82e-05 6.75e-05 2.14e-05 
18 1 1.79e-06 8.74e-05 7.66e-05 2.24e-05 
15 1 1.75e-06 7.84e-05 8.21e-05 2.71e-05 
10 1 1.91e-06 7.64e-05 6.52e-05 2.9e-05 
26 1 1.64e-06 7.63e-05 6.7e-05 3.03e-05 
9 1 1.84e-06 9.64e-05 6.51e-05 3.06e-05 
8 1 1.6e-06 5.14e-05 6.81e-05 3.59e-05 
19 1 1.56e-06 5.44e-05 6.86e-05 3.67e-05 
36 1 1.6e-06 8.06e-05 7.46e-05 4.26e-05 
6 1 1.68e-06 6.17e-05 9.53e-05 4.42e-05 
ITEM: TIMESTEP
100
ITEM: NUMBER OF ATOMS
50
ITEM: BOX BOUNDS ff ff ff
0.0000000000000000e+00 1.0000000000000000e-04
0.0000000000000000e+00 1.0000000000000000e-04
0.0000000000000000e+00 5.0000000000000002e-05
ITEM: ATOMS id type diameter x y z 
49 1 1.50828e-06 4.29e-05 3.6e-05 1.83e-06 
46 1 1.80994e-06 3.44e-05 1.87e-05 2.16e-06 
27 1 1.92054e-06 2.34e-05 3.6e-05 8.81e-06 
37 1 1.81999e-06 1.98e-05 2.61e-05 9.47e-06 
50 1 1.56861e-06 3.13e-05 1.75e-05 9.74e-06 
32 1 1.76971e-06 1.79e-05 4.72e-05 1.38e-05 
4 1 1.64905e-06 1.96e-05 4.27e-05 1.85e-05 
23 1 1.38762e-06 1.23e-05 1.93e-05 2.25e-05 
30 1 1.48817e-06 1.04e-05 1.61e-05 2.48e-05 
40 1 1.41778e-06 1.02e-05 6.28e-06 2.69e-05 
47 1 1.57867e-06 2.5e-05 4.6e-05 2.93e-05 
13 1 1.40773e-06 1.17e-05 3.1e-05 3.67e-05 
12 1 1.71944e-06 3.14e-06 2.4e-05 3.78e-05 
17 1 1.67922e-06 2.97e-05 2.78e-05 3.79e-05 
38 1 1.51833e-06 4.84e-05 2.79e-05 4.68e-05 
48 1 1.42784e-06 4.83e-05 3.96e-05 4.66e-05 
25 1 1.41778e-06 1.88e-05 2.72e-05 4.81e-05 
42 1 1.94065e-06 3.24e-05 8.39e-05 4.44e-06 
31 1 1.48817e-06 4.2e-05 9.48e-05 8.95e-06 
2 1 1.73955e-06 4.43e-05 6.82e-05 1.57e-05 
43 1 1.90043e-06 2.36e-05 9.37e-05 2.09e-05 
39 1 1.47811e-06 4.93e-05 6.95e-05 2.24e-05 
28 1 1.43789e-06 3.57e-05 8.36e-05 3.48e-05 
44 1 1.46806e-06 4.49e-05 8.6e-05 3.92e-05 
34 1 1.76971e-06 7.21e-06 7.31e-05 4.01e-05 
21 1 1.86021e-06 3.94e-05 7.1e-05 4.12e-05 
41 1 1.92054e-06 8.19e-05 3.89e-05 1.11e-05 
45 1 1.42784e-06 7.09e-05 4.38e-05 1.2e-05 
14 1 1.8401e-06 6.4e-05 1.2e-05 1.46e-05 
35 1 1.42784e-06 8.3e-05 1.17e-05 2.16e-05 
29 1 1.46806e-06 9.82e-05 2.81e-05 2.68e-05 
22 1 1.59878e-06 5.52e-05 3.2e-05 3.39e-05 
24 1 1.86021e-06 8.17e-05 4.48e-05 3.53e-05 
5 1 1.83005e-06 9.47e-05 2.79e-05 3.88e-05 
3 1 1.69933e-06 5.31e-05 4.08e-05 4.57e-05 
1 1 1.88032e-06 7.49e-05 5.23e-06 4.8e-05 
16 1 1.78982e-06 9.52e-05 2.9e-05 4.82e-05 
33 1 1.58872e-06 6.73e-05 6.62e-05 2e-06 
20 1 1.62894e-06 8.41e-05 8.1e-05 4.75e-06 
7 1 1.79988e-06 9.05e-05 6.28e-05 2.08e-05 
11 1 1.7496e-06 7.82e-05 6.75e-05 2.14e-05 
18 1 1.79988e-06 8.74e-05 7.66e-05 2.24e-05 
15 1 1.75966e-06 7.84e-05 8.21e-05 2.71e-05 
10 1 1.92054e-06 7.64e-05 6.52e-05 2.9e-05 
26 1 1.64905e-06 7.63e-05 6.7e-05 3.03e-05 
9 1 1.85016e-06 9.64e-05 6.51e-05 3.06e-05 
8 1 1.60883e-06 5.14e-05 6.81e-05 3.59e-05 
19 1 1.56861e-06 5.44e-05 6.86e-05 3.67e-05 
36 1 1.60883e-06 8.06e-05 7.46e-05 4.26e-05 
6 1 1.68927e-06 6.17e-05 9.53e-05 4.42e-05 
ITEM: TIMESTEP
200
ITEM: NUMBER OF ATOMS
50
ITEM: BOX BOUNDS ff ff ff
0.0000000000000000e+00 1.0000000000000000e-04
0.0000000000000000e+00 1.0000000000000000e-04
0.0000000000000000e+00 5.0000000000000002e-05
ITEM: ATOMS id type diameter x y z 
49 1 1.5166e-06 4.29e-05 3.6e-05 1.83e-06 
46 1 1.81992e-06 3.44e-05 1.87e-05 2.16e-06 
27 1 1.93114e-06 2.34e-05 3.6e-05 8.81e-06 
37 1 1.83004e-06 1.98e-05 2.61e-05 9.47e-06 
50 1 1.57727e-06 3.13e-05 1.75e-05 9.74e-06 
32 1 1.77948e-06 1.79e-05 4.72e-05 1.38e-05 
4 1 1.65815e-06 1.96e-05 4.27e-05 1.85e-05 
23 1 1.39528e-06 1.23e-05 1.93e-05 2.25e-05 
30 1 1.49638e-06 1.04e-05 1.61e-05 2.48e-05 
40 1 1.42561e-06 1.02e-05 6.28e-06 2.69e-05 
47 1 1.58738e-06 2.5e-05 4.6e-05 2.93e-05 
13 1 1.4155e-06 1.17e-05 3.1e-05 3.67e-05 
12 1 1.72893e-06 3.14e-06 2.4e-05 3.78e-05 
17 1 1.68849e-06 2.97e-05 2.78e-05 3.79e-05 
38 1 1.52671e-06 4.84e-05 2.79e-05 4.68e-05 
48 1 1.43572e-06 4.83e-05 3.96e-05 4.66e-05 
25 1 1.42561e-06 1.88e-05 2.72e-05 4.81e-05 
42 1 1.95136e-06 3.24e-05 8.39e-05 4.44e-06 
31 1 1.49638e-06 4.2e-05 9.48e-05 8.95e-06 
2 1 1.74915e-06 4.43e-05 6.82e-05 1.57e-05 
43 1 1.91092e-06 2.36e-05 9.37e-05 2.09e-05 
39 1 1.48627e-06 4.93e-05 6.95e-05 2.24e-05 
28 1 1.44583e-06 3.57e-05 8.36e-05 3.48e-05 
44 1 1.47616e-06 4.49e-05 8.6e-05 3.92e-05 
34 1 1.77948e-06 7.21e-06 7.31e-05 4.01e-05 
21 1 1.87048e-06 3.94e-05 7.1e-05 4.12e-05 
41 1 1.93114e-06 8.19e-05 3.89e-05 1.11e-05 
45 1 1.43572e-06 7.09e-05 4.38e-05 1.2e-05 
14 1 1.85026e-06 6.4e-05 1.2e-05 1.46e-05 
35 1 1.43572e-06 8.3e-05 1.17e-05 2.16e-05 
29 1 1.47616e-06 9.82e-05 2.81e-05 2.68e-05 
22 1 1.6076e-06 5.52e-05 3.2e-05 3.39e-05 
24 1 1.87048e-06 8.17e-05 4.48e-05 3.53e-05 
5 1 1.84015e-06 9.47e-05 2.79e-05 3.88e-05 
3 1 1.70871e-06 5.31e-05 4.08e-05 4.57e-05 
1 1 1.8907e-06 7.49e-05 5.23e-06 4.8e-05 
16 1 1.7997e-06 9.52e-05 2.9e-05 4.82e-05 
33 1 1.59749e-06 6.73e-05 6.62e-05 2e-06 
20 1 1.63793e-06 8.41e-05 8.1e-05 4.75e-06 
7 1 1.80981e-06 9.05e-05 6.28e-05 2.08e-05 
11 1 1.75926e-06 7.82e-05 6.75e-05 2.14e-05 
18 1 1.80981e-06 8.74e-05 7.66e-05 2.24e-05 
15 1 1.76937e-06 7.84e-05 8.21e-05 2.71e-05 
10 1 1.93114e-06 7.64e-05 6.52e-05 2.9e-05 
26 1 1.65815e-06 7.63e-05 6.7e-05 3.03e-05 
9 1 1.86037e-06 9.64e-05 6.51e-05 3.06e-05 
8 1 1.61771e-06 5.14e-05 6.81e-05 3.59e-05 
19 1 1.57727e-06 5.44e-05 6.86e-05 3.67e-05 
36 1 1.61771e-06 8.06e-05 7.46e-05 4.26e-05 
6 1 1.6986e-06 6.17e-05 9.53e-05 4.42e-05 
ITEM: TIMESTEP
300
ITEM: NUMBER OF ATOMS
50
ITEM: BOX BOUNDS ff ff ff
0.0000000000000000e+00 1.0000000000000000e-04
0.0000000000000000e+00 1.0000000000000000e-04
0.0000000000000000e+00 5.0000000000000002e-05
ITEM: ATOMS id type diameter x y z 
49 1 1.52497e-06 4.29e-05 3.6e-05 1.83e-06 
46 1 1.82997e-06 3.44e-05 1.87e-05 2.16e-06 
27 1 1.9418e-06 2.34e-05 3.6e-05 8.81e-06 
37 1 1.84014e-06 1.98e-05 2.61e-05 9.47e-06 
50 1 1.58597e-06 3.13e-05 1.75e-05 9.74e-06 
32 1 1.7893e-06 1.79e-05 4.72e-05 1.38e-05 
4 1 1.66731e-06 1.96e-05 4.27e-05 1.85e-05 
23 1 1.40298e-06 1.23e-05 1.93e-05 2.25e-05 
30 1 1.50464e-06 1.04e-05 1.61e-05 2.48e-05 
40 1 1.43348e-06 1.02e-05 6.28e-06 2.69e-05 
47 1 1.59614e-06 2.5e-05 4.6e-05 2.93e-05 
13 1 1.42331e-06 1.17e-05 3.1e-05 3.67e-05 
12 1 1.73847e-06 3.14e-06 2.4e-05 3.78e-05 
17 1 1.69781e-06 2.97e-05 2.78e-05 3.79e-05 
38 1 1.53514e-06 4.84e-05 2.79e-05 4.68e-05 
48 1 1.44364e-06 4.83e-05 3.96e-05 4.66e-05 
25 1 1.43348e-06 1.88e-05 2.72e-05 4.81e-05 
42 1 1.96213e-06 3.24e-05 8.39e-05 4.44e-06 
31 1 1.50464e-06 4.2e-05 9.48e-05 8.95e-06 
2 1 1.7588e-06 4.43e-05 6.82e-05 1.57e-05 
43 1 1.92147e-06 2.36e-05 9.37e-05 2.09e-05 
39 1 1.49448e-06 4.93e-05 6.95e-05 2.24e-05 
28 1 1.45381e-06 3.57e-05 8.36e-05 3.48e-05 
44 1 1.48431e-06 4.49e-05 8.6e-05 3.92e-05 
34 1 1.7893e-06 7.21e-06 7.31e-05 4.01e-05 
21 1 1.8808e-06 3.94e-05 7.1e-05 4.12e-05 
41 1 1.9418e-06 8.19e-05 3.89e-05 1.11e-05 
45 1 1.44364e-06 7.09e-05 4.38e-05 1.2e-05 
14 1 1.86047e-06 6.4e-05 1.2e-05 1.46e-05 
35 1 1.44364e-06 8.3e-05 1.17e-05 2.16e-05 
29 1 1.48431e-06 9.82e-05 2.81e-05 2.68e-05 
22 1 1.61647e-06 5.52e-05 3.2e-05 3.39e-05 
24 1 1.8808e-06 8.17e-05 4.48e-05 3.53e-05 
5 1 1.8503e-06 9.47e-05 2.79e-05 3.88e-05 
3 1 1.71814e-06 5.31e-05 4.08e-05 4.57e-05 
1 1 1.90114e-06 7.49e-05 5.23e-06 4.8e-05 
16 1 1.80964e-06 9.52e-05 2.9e-05 4.82e-05 
33 1 1.60631e-06 6.73e-05 6.62e-05 2e-06 
20 1 1.64697e-06 8.41e-05 8.1e-05 4.75e-06 
7 1 1.8198e-06 9.05e-05 6.28e-05 2.08e-05 
11 1 1.76897e-06 7.82e-05 6.75e-05 2.14e-05 
18 1 1.8198e-06 8.74e-05 7.66e-05 2.24e-05 
15 1 1.77914e-06 7.84e-05 8.21e-05 2.71e-05 
10 1 1.9418e-06 7.64e-05 6.52e-05 2.9e-05 
26 1 1.66731e-06 7.63e-05 6.7e-05 3.03e-05 
9 1 1.87064e-06 9.64e-05 6.51e-05 3.06e-05 
8 1 1.62664e-06 5.14e-05 6.81e-05 3.59e-05 
19 1 1.58597e-06 5.44e-05 6.86e-05 3.67e-05 
36 1 1.62664e-06 8.06e-05 7.46e-05 4.26e-05 
6 1 1.70797e-06 6.17e-05 9.53e-05 4.42e-05 
ITEM: TIMESTEP
400
ITEM: NUMBER OF ATOMS
51
ITEM: BOX BOUNDS ff ff ff
0.0000000000000000e+00 1.0000000000000000e-04
0.0000000000000000e+00 1.0000000000000000e-04
0.0000000000000000e+00 5.0000000000000002e-05
ITEM: ATOMS id type diameter x y z 
49 1 1.53339e-06 4.29e-05 3.6e-05 1.83e-06 
46 1 1.84007e-06 3.44e-05 1.87e-05 2.16e-06 
27 1 1.95252e-06 2.34e-05 3.6e-05 8.81e-06 
37 1 1.85029e-06 1.98e-05 2.61e-05 9.47e-06 
50 1 1.59473e-06 3.13e-05 1.75e-05 9.74e-06 
32 1 1.79918e-06 1.79e-05 4.72e-05 1.38e-05 
4 1 1.67651e-06 1.96e-05 4.27e-05 1.85e-05 
23 1 1.41072e-06 1.23e-05 1.93e-05 2.25e-05 
30 1 1.51295e-06 1.04e-05 1.61e-05 2.48e-05 
40 1 1.44139e-06 1.02e-05 6.28e-06 2.69e-05 
47 1 1.60495e-06 2.5e-05 4.6e-05 2.93e-05 
13 1 1.43117e-06 1.17e-05 3.1e-05 3.67e-05 
12 1 1.74807e-06 3.14e-06 2.4e-05 3.78e-05 
17 1 1.70718e-06 2.97e-05 2.78e-05 3.79e-05 
38 1 1.54361e-06 4.84e-05 2.79e-05 4.68e-05 
48 1 1.45161e-06 4.83e-05 3.96e-05 4.66e-05 
25 1 1.44139e-06 1.88e-05 2.72e-05 4.81e-05 
42 1 1.59267e-06 3.29535e-05 8.43072e-05 4.03842e-06 
31 1 1.51295e-06 4.2e-05 9.48e-05 8.95e-06 
2 1 1.76851e-06 4.43e-05 6.82e-05 1.57e-05 
51 1 1.53827e-06 3.18654e-05 8.35067e-05 4.82786e-06 
43 1 1.93207e-06 2.36e-05 9.37e-05 2.09e-05 
39 1 1.50272e-06 4.93e-05 6.95e-05 2.24e-05 
28 1 1.46183e-06 3.57e-05 8.36e-05 3.48e-05 
44 1 1.4925e-06 4.49e-05 8.6e-05 3.92e-05 
34 1 1.79918e-06 7.21e-06 7.31e-05 4.01e-05 
21 1 1.89118e-06 3.94e-05 7.1e-05 4.12e-05 
41 1 1.95252e-06 8.19e-05 3.89e-05 1.11e-05 
45 1 1.45161e-06 7.09e-05 4.38e-05 1.2e-05 
14 1 1.87074e-06 6.4e-05 1.2e-05 1.46e-05 
35 1 1.45161e-06 8.3e-05 1.17e-05 2.16e-05 
29 1 1.4925e-06 9.82e-05 2.81e-05 2.68e-05 
22 1 1.6254e-06 5.52e-05 3.2e-05 3.39e-05 
24 1 1.89118e-06 8.17e-05 4.48e-05 3.53e-05 
5 1 1.86052e-06 9.47e-05 2.79e-05 3.88e-05 
3 1 1.72762e-06 5.31e-05 4.08e-05 4.57e-05 
1 1 1.91163e-06 7.49e-05 5.23e-06 4.8e-05 
16 1 1.81963e-06 9.52e-05 2.9e-05 4.82e-05 
33 1 1.61517e-06 6.73e-05 6.62e-05 2e-06 
20 1 1.65606e-06 8.41e-05 8.1e-05 4.75e-06 
7 1 1.82985e-06 9.05e-05 6.28e-05 2.08e-05 
11 1 1.77873e-06 7.82e-05 6.75e-05 2.14e-05 
18 1 1.82985e-06 8.74e-05 7.66e-05 2.24e-05 
15 1 1.78896e-06 7.84e-05 8.21e-05 2.71e-05 
10 1 1.95252e-06 7.64e-05 6.52e-05 2.9e-05 
26 1 1.67651e-06 7.63e-05 6.7e-05 3.03e-05 
9 1 1.88096e-06 9.64e-05 6.51e-05 3.06e-05 
8 1 1.63562e-06 5.14e-05 6.81e-05 3.59e-05 
19 1 1.59473e-06 5.44e-05 6.86e-05 3.67e-05 
36 1 1.63562e-06 8.06e-05 7.46e-05 4.26e-05 
6 1 1.7174e-06 6.17e-05 9.53e-05 4.42e-05 
ITEM: TIMESTEP
500
ITEM: NUMBER OF ATOMS
51
ITEM: BOX BOUNDS ff ff ff
0.0000000000000000e+00 1.0000000000000000e-04
0.0000000000000000e+00 1.0000000000000000e-04
0.0000000000000000e+00 5.0000000000000002e-05
ITEM: ATOMS id type diameter x y z 
49 1 1.54186e-06 4.29e-05 3.6e-05 1.83e-06 
46 1 1.85023e-06 3.44e-05 1.87e-05 2.16e-06 
27 1 1.9633e-06 2.34e-05 3.6e-05 8.81e-06 
37 1 1.86051e-06 1.98e-05 2.61e-05 9.47e-06 
50 1 1.60353e-06 3.13e-05 1.75e-05 9.74e-06 
32 1 1.80911e-06 1.79e-05 4.72e-05 1.38e-05 
4 1 1.68576e-06 1.96e-05 4.27e-05 1.85e-05 
23 1 1.41851e-06 1.23e-05 1.93e-05 2.25e-05 
30 1 1.5213e-06 1.04e-05 1.61e-05 2.48e-05 
40 1 1.44934e-06 1.02e-05 6.28e-06 2.69e-05 
47 1 1.61381e-06 2.5e-05 4.6e-05 2.93e-05 
13 1 1.43907e-06 1.17e-05 3.1e-05 3.67e-05 
12 1 1.75772e-06 3.14e-06 2.4e-05 3.78e-05 
17 1 1.7166e-06 2.97e-05 2.78e-05 3.79e-05 
38 1 1.55213e-06 4.84e-05 2.79e-05 4.68e-05 
48 1 1.45962e-06 4.83e-05 3.96e-05 4.66e-05 
25 1 1.44934e-06 1.88e-05 2.72e-05 4.81e-05 
42 1 1.60146e-06 3.29535e-05 8.43072e-05 4.03842e-06 
31 1 1.5213e-06 4.2e-05 9.48e-05 8.95e-06 
2 1 1.77827e-06 4.43e-05 6.82e-05 1.57e-05 
51 1 1.54676e-06 3.18654e-05 8.35067e-05 4.82786e-06 
43 1 1.94274e-06 2.36e-05 9.37e-05 2.09e-05 
39 1 1.51102e-06 4.93e-05 6.95e-05 2.24e-05 
28 1 1.4699e-06 3.57e-05 8.36e-05 3.48e-05 
44 1 1.50074e-06 4.49e-05 8.6e-05 3.92e-05 
34 1 1.80911e-06 7.21e-06 7.31e-05 4.01e-05 
21 1 1.90162e-06 3.94e-05 7.1e-05 4.12e-05 
41 1 1.9633e-06 8.19e-05 3.89e-05 1.11e-05 
45 1 1.45962e-06 7.09e-05 4.38e-05 1.2e-05 
14 1 1.88106e-06 6.4e-05 1.2e-05 1.46e-05 
35 1 1.45962e-06 8.3e-05 1.17e-05 2.16e-05 
29 1 1.50074e-06 9.82e-05 2.81e-05 2.68e-05 
22 1 1.63437e-06 5.52e-05 3.2e-05 3.39e-05 
24 1 1.90162e-06 8.17e-05 4.48e-05 3.53e-05 
5 1 1.87078e-06 9.47e-05 2.79e-05 3.88e-05 
3 1 1.73716e-06 5.31e-05 4.08e-05 4.57e-05 
1 1 1.92218e-06 7.49e-05 5.23e-06 4.8e-05 
16 1 1.82967e-06 9.52e-05 2.9e-05 4.82e-05 
33 1 1.62409e-06 6.73e-05 6.62e-05 2e-06 
20 1 1.6652e-06 8.41e-05 8.1e-05 4.75e-06 
7 1 1.83995e-06 9.05e-05 6.28e-05 2.08e-05 
11 1 1.78855e-06 7.82e-05 6.75e-05 2.14e-05 
18 1 1.83995e-06 8.74e-05 7.66e-05 2.24e-05 
15 1 1.79883e-06 7.84e-05 8.21e-05 2.71e-05 
10 1 1.9633e-06 7.64e-05 6.52e-05 2.9e-05 
26 1 1.68576e-06 7.63e-05 6.7e-05 3.03e-05 
9 1 1.89134e-06 9.64e-05 6.51e-05 3.06e-05 
8 1 1.64465e-06 5.14e-05 6.81e-05 3.59e-05 
19 1 1.60353e-06 5.44e-05 6.86e-05 3.67e-05 
36 1 1.64465e-06 8.06e-05 7.46e-05 4.26e-05 
6 1 1.72688e-06 6.17e-05 9.53e-05 4.42e-05 
ITEM: TIMESTEP
600
ITEM: NUMBER OF ATOMS
54
ITEM: BOX BOUNDS ff ff ff
0.0000000000000000e+00 1.0000000000000000e-04
0.0000000000000000e+00 1.0000000000000000e-04
0.0000000000000000e+00 5.0000000000000002e-05
ITEM: ATOMS id type diameter x y z 
49 1 1.55037e-06 4.29e-05 3.6e-05 1.83e-06 
46 1 1.86044e-06 3.44e-05 1.87e-05 2.16e-06 
27 1 1.59362e-06 2.39539e-05 3.64075e-05 8.40818e-06 
37 1 1.87077e-06 1.98e-05 2.61e-05 9.47e-06 
50 1 1.61238e-06 3.13e-05 1.75e-05 9.74e-06 
32 1 1.8191e-06 1.79e-05 4.72e-05 1.38e-05 
4 1 1.69507e-06 1.96e-05 4.27e-05 1.85e-05 
52 1 1.53918e-06 2.28651e-05 3.56064e-05 9.19809e-06 
23 1 1.42634e-06 1.23e-05 1.93e-05 2.25e-05 
30 1 1.52969e-06 1.04e-05 1.61e-05 2.48e-05 
40 1 1.45734e-06 1.02e-05 6.28e-06 2.69e-05 
47 1 1.62272e-06 2.5e-05 4.6e-05 2.93e-05 
13 1 1.44701e-06 1.17e-05 3.1e-05 3.67e-05 
12 1 1.76742e-06 3.14e-06 2.4e-05 3.78e-05 
17 1 1.72607e-06 2.97e-05 2.78e-05 3.79e-05 
38 1 1.5607e-06 4.84e-05 2.79e-05 4.68e-05 
48 1 1.46768e-06 4.83e-05 3.96e-05 4.66e-05 
25 1 1.45734e-06 1.88e-05 2.72e-05 4.81e-05 
42 1 1.6103e-06 3.29535e-05 8.43072e-05 4.03842e-06 
31 1 1.52969e-06 4.2e-05 9.48e-05 8.95e-06 
2 1 1.78809e-06 4.43e-05 6.82e-05 1.57e-05 
51 1 1.5553e-06 3.18654e-05 8.35067e-05 4.82786e-06 
43 1 1.95346e-06 2.36e-05 9.37e-05 2.09e-05 
39 1 1.51936e-06 4.93e-05 6.95e-05 2.24e-05 
28 1 1.47802e-06 3.57e-05 8.36e-05 3.48e-05 
44 1 1.50902e-06 4.49e-05 8.6e-05 3.92e-05 
34 1 1.8191e-06 7.21e-06 7.31e-05 4.01e-05 
21 1 1.91212e-06 3.94e-05 7.1e-05 4.12e-05 
41 1 1.59362e-06 8.24539e-05 3.93075e-05 1.06982e-05 
45 1 1.46768e-06 7.09e-05 4.38e-05 1.2e-05 
14 1 1.89145e-06 6.4e-05 1.2e-05 1.46e-05 
53 1 1.53918e-06 8.13651e-05 3.85064e-05 1.14881e-05 
35 1 1.46768e-06 8.3e-05 1.17e-05 2.16e-05 
29 1 1.50902e-06 9.82e-05 2.81e-05 2.68e-05 
22 1 1.64339e-06 5.52e-05 3.2e-05 3.39e-05 
24 1 1.91212e-06 8.17e-05 4.48e-05 3.53e-05 
5 1 1.88111e-06 9.47e-05 2.79e-05 3.88e-05 
3 1 1.74675e-06 5.31e-05 4.08e-05 4.57e-05 
1 1 1.93279e-06 7.49e-05 5.23e-06 4.8e-05 
16 1 1.83977e-06 9.52e-05 2.9e-05 4.82e-05 
33 1 1.63305e-06 6.73e-05 6.62e-05 2e-06 
20 1 1.6744e-06 8.41e-05 8.1e-05 4.75e-06 
7 1 1.8501e-06 9.05e-05 6.28e-05 2.08e-05 
11 1 1.79842e-06 7.82e-05 6.75e-05 2.14e-05 
18 1 1.8501e-06 8.74e-05 7.66e-05 2.24e-05 
15 1 1.80876e-06 7.84e-05 8.21e-05 2.71e-05 
10 1 1.59362e-06 7.69539e-05 6.56075e-05 2.85982e-05 
26 1 1.69507e-06 7.63e-05 6.7e-05 3.03e-05 
9 1 1.90178e-06 9.64e-05 6.51e-05 3.06e-05 
8 1 1.65372e-06 5.14e-05 6.81e-05 3.59e-05 
19 1 1.61238e-06 5.44e-05 6.86e-05 3.67e-05 
36 1 1.65372e-06 8.06e-05 7.46e-05 4.26e-05 
6 1 1.73641e-06 6.17e-05 9.53e-05 4.42e-05 
54 1 1.53918e-06 7.58651e-05 6.48064e-05 2.93881e-05 
ITEM: TIMESTEP
700
ITEM: NUMBER OF ATOMS
54
ITEM: BOX BOUNDS ff ff ff
0.0000000000000000e+00 1.0000000000000000e-04
0.0000000000000000e+00 1.0000000000000000e-04
0.0000000000000000e+00 5.0000000000000002e-05
ITEM: ATOMS id type diameter x y z 
49 1 1.55892e-06 4.29e-05 3.6e-05 1.83e-06 
46 1 1.87071e-06 3.44e-05 1.87e-05 2.16e-06 
27 1 1.60241e-06 2.39539e-05 3.64075e-05 8.40818e-06 
37 1 1.8811e-06 1.98e-05 2.61e-05 9.47e-06 
50 1 1.62128e-06 3.13e-05 1.75e-05 9.74e-06 
32 1 1.82914e-06 1.79e-05 4.72e-05 1.38e-05 
4 1 1.70442e-06 1.96e-05 4.27e-05 1.85e-05 
52 1 1.54767e-06 2.28651e-05 3.56064e-05 9.19809e-06 
23 1 1.43421e-06 1.23e-05 1.93e-05 2.25e-05 
30 1 1.53814e-06 1.04e-05 1.61e-05 2.48e-05 
40 1 1.46539e-06 1.02e-05 6.28e-06 2.69e-05 
47 1 1.63167e-06 2.5e-05 4.6e-05 2.93e-05 
13 1 1.45499e-06 1.17e-05 3.1e-05 3.67e-05 
12 1 1.77717e-06 3.14e-06 2.4e-05 3.78e-05 
17 1 1.7356e-06 2.97e-05 2.78e-05 3.79e-05 
38 1 1.56932e-06 4.84e-05 2.79e-05 4.68e-05 
48 1 1.47578e-06 4.83e-05 3.96e-05 4.66e-05 
25 1 1.46539e-06 1.88e-05 2.72e-05 4.81e-05 
42 1 1.61919e-06 3.29535e-05 8.43072e-05 4.03842e-06 
31 1 1.53814e-06 4.2e-05 9.48e-05 8.95e-06 
2 1 1.79796e-06 4.43e-05 6.82e-05 1.57e-05 
51 1 1.56388e-06 3.18654e-05 8.35067e-05 4.82786e-06 
43 1 1.96424e-06 2.36e-05 9.37e-05 2.09e-05 
39 1 1.52774e-06 4.93e-05 6.95e-05 2.24e-05 
28 1 1.48617e-06 3.57e-05 8.36e-05 3.48e-05 
44 1 1.51735e-06 4.49e-05 8.6e-05 3.92e-05 
34 1 1.82914e-06 7.21e-06 7.31e-05 4.01e-05 
21 1 1.92267e-06 3.94e-05 7.1e-05 4.12e-05 
41 1 1.60241e-06 8.24539e-05 3.93075e-05 1.06982e-05 
45 1 1.47578e-06 7.09e-05 4.38e-05 1.2e-05 
14 1 1.90189e-06 6.4e-05 1.2e-05 1.46e-05 
53 1 1.54767e-06 8.13651e-05 3.85064e-05 1.14881e-05 
35 1 1.47578e-06 8.3e-05 1.17e-05 2.16e-05 
29 1 1.51735e-06 9.82e-05 2.81e-05 2.68e-05 
22 1 1.65246e-06 5.52e-05 3.2e-05 3.39e-05 
24 1 1.92267e-06 8.17e-05 4.48e-05 3.53e-05 
5 1 1.89149e-06 9.47e-05 2.79e-05 3.88e-05 
3 1 1.75639e-06 5.31e-05 4.08e-05 4.57e-05 
1 1 1.94346e-06 7.49e-05 5.23e-06 4.8e-05 
16 1 1.84992e-06 9.52e-05 2.9e-05 4.82e-05 
33 1 1.64207e-06 6.73e-05 6.62e-05 2e-06 
20 1 1.68364e-06 8.41e-05 8.1e-05 4.75e-06 
7 1 1.86031e-06 9.05e-05 6.28e-05 2.08e-05 
11 1 1.80835e-06 7.82e-05 6.75e-05 2.14e-05 
18 1 1.86031e-06 8.74e-05 7.66e-05 2.24e-05 
15 1 1.81874e-06 7.84e-05 8.21e-05 2.71e-05 
10 1 1.60241e-06 7.69539e-05 6.56075e-05 2.85982e-05 
26 1 1.70442e-06 7.63e-05 6.7e-05 3.03e-05 
9 1 1.91228e-06 9.64e-05 6.51e-05 3.06e-05 
8 1 1.66285e-06 5.14e-05 6.81e-05 3.59e-05 
19 1 1.62128e-06 5.44e-05 6.86e-05 3.67e-05 
36 1 1.66285e-06 8.06e-05 7.46e-05 4.26e-05 
6 1 1.74599e-06 6.17e-05 9.53e-05 4.42e-05 
54 1 1.54767e-06 7.58651e-05 6.48064e-05 2.93881e-05 
ITEM: TIMESTEP
800
ITEM: NUMBER OF ATOMS
55
ITEM: BOX BOUNDS ff ff ff
0.0000000000000000e+00 1.0000000000000000e-04
0.0000000000000000e+00 1.0000000000000000e-04
0.0000000000000000e+00 5.0000000000000002e-05
ITEM: ATOMS id type diameter x y z 
49 1 1.56753e-06 4.29e-05 3.6e-05 1.83e-06 
46 1 1.88103e-06 3.44e-05 1.87e-05 2.16e-06 
27 1 1.61126e-06 2.39539e-05 3.64075e-05 8.40818e-06 
37 1 1.89148e-06 1.98e-05 2.61e-05 9.47e-06 
50 1 1.63023e-06 3.13e-05 1.75e-05 9.74e-06 
32 1 1.83923e-06 1.79e-05 4.72e-05 1.38e-05 
4 1 1.71383e-06 1.96e-05 4.27e-05 1.85e-05 
52 1 1.55622e-06 2.28651e-05 3.56064e-05 9.19809e-06 
23 1 1.44213e-06 1.23e-05 1.93e-05 2.25e-05 
30 1 1.54663e-06 1.04e-05 1.61e-05 2.48e-05 
40 1 1.47348e-06 1.02e-05 6.28e-06 2.69e-05 
47 1 1.64068e-06 2.5e-05 4.6e-05 2.93e-05 
13 1 1.46303e-06 1.17e-05 3.1e-05 3.67e-05 
12 1 1.78698e-06 3.14e-06 2.4e-05 3.78e-05 
17 1 1.74518e-06 2.97e-05 2.78e-05 3.79e-05 
38 1 1.57798e-06 4.84e-05 2.79e-05 4.68e-05 
48 1 1.48393e-06 4.83e-05 3.96e-05 4.66e-05 
25 1 1.47348e-06 1.88e-05 2.72e-05 4.81e-05 
42 1 1.62813e-06 3.29674e-05 8.43175e-05 4.02833e-06 
31 1 1.54663e-06 4.2e-05 9.48e-05 8.95e-06 
2 1 1.80788e-06 4.43e-05 6.82e-05 1.57e-05 
51 1 1.57251e-06 3.18515e-05 8.34964e-05 4.83795e-06 
43 1 1.59438e-06 2.41541e-05 9.41077e-05 2.0498e-05 
39 1 1.53618e-06 4.93e-05 6.95e-05 2.24e-05 
28 1 1.49438e-06 3.57e-05 8.36e-05 3.48e-05 
44 1 1.52573e-06 4.49e-05 8.6e-05 3.92e-05 
34 1 1.83923e-06 7.21e-06 7.31e-05 4.01e-05 
21 1 1.93328e-06 3.94e-05 7.1e-05 4.12e-05 
55 1 1.53992e-06 2.30648e-05 9.33063e-05 2.12883e-05 
41 1 1.61126e-06 8.24539e-05 3.93075e-05 1.06982e-05 
45 1 1.48393e-06 7.09e-05 4.38e-05 1.2e-05 
14 1 1.91238e-06 6.4e-05 1.2e-05 1.46e-05 
53 1 1.55622e-06 8.13651e-05 3.85064e-05 1.14881e-05 
35 1 1.48393e-06 8.3e-05 1.17e-05 2.16e-05 
29 1 1.52573e-06 9.82e-05 2.81e-05 2.68e-05 
22 1 1.66158e-06 5.52e-05 3.2e-05 3.39e-05 
24 1 1.93328e-06 8.17e-05 4.48e-05 3.53e-05 
5 1 1.90193e-06 9.47e-05 2.79e-05 3.88e-05 
3 1 1.76608e-06 5.31e-05 4.08e-05 4.57e-05 
1 1 1.95418e-06 7.49e-05 5.23e-06 4.8e-05 
16 1 1.86013e-06 9.52e-05 2.9e-05 4.82e-05 
33 1 1.65113e-06 6.73e-05 6.62e-05 2e-06 
20 1 1.69293e-06 8.41e-05 8.1e-05 4.75e-06 
7 1 1.87058e-06 9.05e-05 6.28e-05 2.08e-05 
11 1 1.81833e-06 7.82e-05 6.75e-05 2.14e-05 
18 1 1.87058e-06 8.74e-05 7.66e-05 2.24e-05 
15 1 1.82878e-06 7.84e-05 8.21e-05 2.71e-05 
10 1 1.61126e-06 7.69539e-05 6.56075e-05 2.85982e-05 
26 1 1.71383e-06 7.63e-05 6.7e-05 3.03e-05 
9 1 1.92283e-06 9.64e-05 6.51e-05 3.06e-05 
8 1 1.67203e-06 5.14e-05 6.81e-05 3.59e-05 
19 1 1.63023e-06 5.44e-05 6.86e-05 3.67e-05 
36 1 1.67203e-06 8.06e-05 7.46e-05 4.26e-05 
6 1 1.75563e-06 6.17e-05 9.53e-05 4.42e-05 
54 1 1.55622e-06 7.58651e-05 6.48064e-05 2.93881e-05 
ITEM: TIMESTEP
900
ITEM: NUMBER OF ATOMS
55
ITEM: BOX BOUNDS ff ff ff
0.0000000000000000e+00 1.0000000000000000e-04
0.0000000000000000e+00 1.0000000000000000e-04
0.0000000000000000e+00 5.0000000000000002e-05
ITEM: ATOMS id type diameter x y z 
49 1 1.57618e-06 4.29e-05 3.6e-05 1.83e-06 
46 1 1.89142e-06 3.44e-05 1.87e-05 2.16e-06 
27 1 1.62015e-06 2.39539e-05 3.64075e-05 8.40818e-06 
37 1 1.90192e-06 1.98e-05 2.61e-05 9.47e-06 
50 1 1.63923e-06 3.13e-05 1.75e-05 9.74e-06 
32 1 1.84938e-06 1.79e-05 4.72e-05 1.38e-05 
4 1 1.72329e-06 1.96e-05 4.27e-05 1.85e-05 
52 1 1.56481e-06 2.28651e-05 3.56064e-05 9.19809e-06 
23 1 1.45008e-06 1.23e-05 1.93e-05 2.25e-05 
30 1 1.55516e-06 1.04e-05 1.61e-05 2.48e-05 
40 1 1.48161e-06 1.02e-05 6.28e-06 2.69e-05 
47 1 1.64973e-06 2.5e-05 4.6e-05 2.93e-05 
13 1 1.4711e-06 1.17e-05 3.1e-05 3.67e-05 
12 1 1.79684e-06 3.14e-06 2.4e-05 3.78e-05 
17 1 1.75481e-06 2.97e-05 2.78e-05 3.79e-05 
38 1 1.58669e-06 4.84e-05 2.79e-05 4.68e-05 
48 1 1.49212e-06 4.83e-05 3.96e-05 4.66e-05 
25 1 1.48161e-06 1.88e-05 2.72e-05 4.81e-05 
42 1 1.63711e-06 3.29674e-05 8.43175e-05 4.02833e-06 
31 1 1.55516e-06 4.2e-05 9.48e-05 8.95e-06 
2 1 1.81786e-06 4.43e-05 6.82e-05 1.57e-05 
51 1 1.58119e-06 3.18515e-05 8.34964e-05 4.83795e-06 
43 1 1.60318e-06 2.41541e-05 9.41077e-05 2.0498e-05 
39 1 1.54466e-06 4.93e-05 6.95e-05 2.24e-05 
28 1 1.50262e-06 3.57e-05 8.36e-05 3.48e-05 
44 1 1.53415e-06 4.49e-05 8.6e-05 3.92e-05 
34 1 1.84938e-06 7.21e-06 7.31e-05 4.01e-05 
21 1 1.94395e-06 3.94e-05 7.1e-05 4.12e-05 
55 1 1.54842e-06 2.30648e-05 9.33063e-05 2.12883e-05 
41 1 1.62015e-06 8.24539e-05 3.93075e-05 1.06982e-05 
45 1 1.49212e-06 7.09e-05 4.38e-05 1.2e-05 
14 1 1.92294e-06 6.4e-05 1.2e-05 1.46e-05 
53 1 1.56481e-06 8.13651e-05 3.85064e-05 1.14881e-05 
35 1 1.49212e-06 8.3e-05 1.17e-05 2.16e-05 
29 1 1.53415e-06 9.82e-05 2.81e-05 2.68e-05 
22 1 1.67075e-06 5.52e-05 3.2e-05 3.39e-05 
24 1 1.94395e-06 8.17e-05 4.48e-05 3.53e-05 
5 1 1.91243e-06 9.47e-05 2.79e-05 3.88e-05 
3 1 1.77583e-06 5.31e-05 4.08e-05 4.57e-05 
1 1 1.96497e-06 7.49e-05 5.23e-06 4.8e-05 
16 1 1.8704e-06 9.52e-05 2.9e-05 4.82e-05 
33 1 1.66024e-06 6.73e-05 6.62e-05 2e-06 
20 1 1.70227e-06 8.41e-05 8.1e-05 4.75e-06 
7 1 1.88091e-06 9.05e-05 6.28e-05 2.08e-05 
11 1 1.82837e-06 7.82e-05 6.75e-05 2.14e-05 
18 1 1.88091e-06 8.74e-05 7.66e-05 2.24e-05 
15 1 1.83888e-06 7.84e-05 8.21e-05 2.71e-05 
10 1 1.62015e-06 7.69539e-05 6.56075e-05 2.85982e-05 
26 1 1.72329e-06 7.63e-05 6.7e-05 3.03e-05 
9 1 1.93345e-06 9.64e-05 6.51e-05 3.06e-05 
8 1 1.68126e-06 5.14e-05 6.81e-05 3.59e-05 
19 1 1.63923e-06 5.44e-05 6.86e-05 3.67e-05 
36 1 1.68126e-06 8.06e-05 7.46e-05 4.26e-05 
6 1 1.76532e-06 6.17e-05 9.53e-05 4.42e-05 
54 1 1.56481e-06 7.58651e-05 6.48064e-05 2.93881e-05 
ITEM: TIMESTEP
1000
ITEM: NUMBER OF ATOMS
56
ITEM: BOX BOUNDS ff ff ff
0.0000000000000000e+00 1.0000000000000000e-04
0.0000000000000000e+00 1.0000000000000000e-04
0.0000000000000000e+00 5.0000000000000002e-05
ITEM: ATOMS id type diameter x y z 
49 1 1.58488e-06 4.29e-05 3.6e-05 1.83e-06 
46 1 1.90185e-06 3.44e-05 1.87e-05 2.16e-06 
27 1 1.62909e-06 2.39678e-05 3.64177e-05 8.39809e-06 
37 1 1.91242e-06 1.98e-05 2.61e-05 9.47e-06 
52 1 1.57344e-06 2.28512e-05 3.55962e-05 9.20818e-06 
50 1 1.64827e-06 3.13e-05 1.75e-05 9.74e-06 
32 1 1.85959e-06 1.79e-05 4.72e-05 1.38e-05 
4 1 1.7328e-06 1.96e-05 4.27e-05 1.85e-05 
23 1 1.45809e-06 1.23e-05 1.93e-05 2.25e-05 
30 1 1.56375e-06 1.04e-05 1.61e-05 2.48e-05 
40 1 1.48979e-06 1.02e-05 6.28e-06 2.69e-05 
47 1 1.65884e-06 2.5e-05 4.6e-05 2.93e-05 
13 1 1.47922e-06 1.17e-05 3.1e-05 3.67e-05 
12 1 1.80676e-06 3.14e-06 2.4e-05 3.78e-05 
17 1 1.7645e-06 2.97e-05 2.78e-05 3.79e-05 
38 1 1.59544e-06 4.84e-05 2.79e-05 4.68e-05 
48 1 1.50035e-06 4.83e-05 3.96e-05 4.66e-05 
25 1 1.48979e-06 1.88e-05 2.72e-05 4.81e-05 
42 1 1.64615e-06 3.29674e-05 8.43175e-05 4.02833e-06 
51 1 1.58992e-06 3.18515e-05 8.34964e-05 4.83795e-06 
31 1 1.56375e-06 4.2e-05 9.48e-05 8.95e-06 
2 1 1.82789e-06 4.43e-05 6.82e-05 1.57e-05 
43 1 1.61203e-06 2.41541e-05 9.41077e-05 2.0498e-05 
55 1 1.55697e-06 2.30648e-05 9.33063e-05 2.12883e-05 
39 1 1.55318e-06 4.93e-05 6.95e-05 2.24e-05 
28 1 1.51092e-06 3.57e-05 8.36e-05 3.48e-05 
44 1 1.54262e-06 4.49e-05 8.6e-05 3.92e-05 
34 1 1.85959e-06 7.21e-06 7.31e-05 4.01e-05 
21 1 1.95468e-06 3.94e-05 7.1e-05 4.12e-05 
41 1 1.62909e-06 8.24678e-05 3.93177e-05 1.06881e-05 
53 1 1.57344e-06 8.13512e-05 3.84962e-05 1.14982e-05 
45 1 1.50035e-06 7.09e-05 4.38e-05 1.2e-05 
14 1 1.93355e-06 6.4e-05 1.2e-05 1.46e-05 
35 1 1.50035e-06 8.3e-05 1.17e-05 2.16e-05 
29 1 1.54262e-06 9.82e-05 2.81e-05 2.68e-05 
22 1 1.67997e-06 5.52e-05 3.2e-05 3.39e-05 
24 1 1.95468e-06 8.17e-05 4.48e-05 3.53e-05 
5 1 1.92299e-06 9.47e-05 2.79e-05 3.88e-05 
3 1 1.78563e-06 5.31e-05 4.08e-05 4.57e-05 
1 1 1.59497e-06 7.54543e-05 5.63782e-06 4.75978e-05 
56 1 1.54049e-06 7.43646e-05 4.83611e-06 4.83884e-05 
16 1 1.88072e-06 9.52e-05 2.9e-05 4.82e-05 
33 1 1.66941e-06 6.73e-05 6.62e-05 2e-06 
20 1 1.71167e-06 8.41e-05 8.1e-05 4.75e-06 
7 1 1.89129e-06 9.05e-05 6.28e-05 2.08e-05 
11 1 1.83846e-06 7.82e-05 6.75e-05 2.14e-05 
18 1 1.89129e-06 8.74e-05 7.66e-05 2.24e-05 
15 1 1.84903e-06 7.84e-05 8.21e-05 2.71e-05 
10 1 1.62909e-06 7.69678e-05 6.56177e-05 2.85881e-05 
54 1 1.57344e-06 7.58512e-05 6.47962e-05 2.93982e-05 
26 1 1.7328e-06 7.63e-05 6.7e-05 3.03e-05 
9 1 1.94412e-06 9.64e-05 6.51e-05 3.06e-05 
8 1 1.69054e-06 5.14e-05 6.81e-05 3.59e-05 
19 1 1.64827e-06 5.44e-05 6.86e-05 3.67e-05 
36 1 1.69054e-06 8.06e-05 7.46e-05 4.26e-05 
6 1 1.77506e-06 6.17e-05 9.53e-05 4.42e-05 
ITEM: TIMESTEP
1100
ITEM: NUMBER OF ATOMS
56
ITEM: BOX BOUNDS ff ff ff
0.0000000000000000e+00 1.0000000000000000e-04
0.0000000000000000e+00 1.0000000000000000e-04
0.0000000000000000e+00 5.0000000000000002e-05
ITEM: ATOMS id type diameter x y z 
49 1 1.59363e-06 4.29e-05 3.6e-05 1.83e-06 
46 1 1.91235e-06 3.44e-05 1.87e-05 2.16e-06 
27 1 1.63808e-06 2.39678e-05 3.64177e-05 8.39809e-06 
37 1 1.92298e-06 1.98e-05 2.61e-05 9.47e-06 
52 1 1.58213e-06 2.28512e-05 3.55962e-05 9.20818e-06 
50 1 1.65737e-06 3.13e-05 1.75e-05 9.74e-06 
32 1 1.86986e-06 1.79e-05 4.72e-05 1.38e-05 
4 1 1.74237e-06 1.96e-05 4.27e-05 1.85e-05 
23 1 1.46614e-06 1.23e-05 1.93e-05 2.25e-05 
30 1 1.57238e-06 1.04e-05 1.61e-05 2.48e-05 
40 1 1.49801e-06 1.02e-05 6.28e-06 2.69e-05 
47 1 1.668e-06 2.5e-05 4.6e-05 2.93e-05 
13 1 1.48738e-06 1.17e-05 3.1e-05 3.67e-05 
12 1 1.81673e-06 3.14e-06 2.4e-05 3.78e-05 
17 1 1.77424e-06 2.97e-05 2.78e-05 3.79e-05 
38 1 1.60425e-06 4.84e-05 2.79e-05 4.68e-05 
48 1 1.50863e-06 4.83e-05 3.96e-05 4.66e-05 
25 1 1.49801e-06 1.88e-05 2.72e-05 4.81e-05 
42 1 1.65524e-06 3.29674e-05 8.43175e-05 4.02833e-06 
51 1 1.59869e-06 3.18515e-05 8.34964e-05 4.83795e-06 
31 1 1.57238e-06 4.2e-05 9.48e-05 8.95e-06 
2 1 1.83798e-06 4.43e-05 6.82e-05 1.57e-05 
43 1 1.62093e-06 2.41541e-05 9.41077e-05 2.0498e-05 
55 1 1.56556e-06 2.30648e-05 9.33063e-05 2.12883e-05 
39 1 1.56175e-06 4.93e-05 6.95e-05 2.24e-05 
28 1 1.51926e-06 3.57e-05 8.36e-05 3.48e-05 