LAMMPS (20 Nov 2019)
Reading data file ...
  orthogonal box = (0 0 0) to (0.0001 0.0001 1e-05)
  8 by 4 by 1 MPI processor grid
  reading atoms ...
  100 atoms
  4 nutrients
Lattice spacing in x,y,z = 100 100 100
50 atoms in group CYANO
50 atoms in group ECW
Model is defined as a closed system. 
Neighbor list info ...
  update every 1 steps, delay 0 steps, check yes
  max neighbors/atom: 5000, page size: 100000
  master list distance cutoff = 2.44e-06
  ghost atom cutoff = 2.44e-06
  binsize = 1.22e-06, bins = 82 82 9
  1 neighbor lists, perpetual/occasional/extra = 1 0 0
  (1) pair gran/hooke/history, perpetual
      attributes: half, newton off, size, history
      pair build: half/size/bin/newtoff
      stencil: half/bin/3d/newtoff
      bin: standard
Setting up Verlet run ...
  Unit style    : lj
  Current step  : 0
  Time step     : 10
Per MPI rank memory allocation (min/avg/max) = 5.792 | 10.86 | 12.11 Mbytes
Step CPU Atoms c_myNtypes[1] c_myNtypes[2] c_myMass[1] c_myMass[2] c_myCon[1] c_myCon[2] c_myCon[3] c_myCon[4] 
       0            0      100           50           50 4.4892535e-14 9.4476816e-15          0.1        0.009     3.42e-20       0.0299 
number of iterations: 327367 
     100    15.869969      137           50           87 4.5487461e-14 9.4410381e-15          0.1 0.0090007719  0.036079328  0.029898714 
number of iterations: 4446 
     200    16.227407      150           50          100 4.609027e-14 9.4357776e-15          0.1  0.009000782  0.071462454  0.029898697 
number of iterations: 3111 
     300    16.533278      150           50          100 4.6701069e-14 9.4318887e-15          0.1 0.0090007923   0.10727875   0.02989868 
number of iterations: 2315 
     400    16.803901      152           52          100 4.7319961e-14 9.4293599e-15          0.1  0.009000806   0.14353658  0.029898657 
number of iterations: 1539 
     500    17.020732      154           54          100 4.7947056e-14 9.4281775e-15          0.1 0.0090008118   0.18024317  0.029898647 
number of iterations: 1399 
     600    17.225935      154           54          100 4.8582461e-14 9.4283308e-15          0.1 0.0090008225   0.21740663  0.029898629 
number of iterations: 1402 
     700    17.430539      154           54          100 4.9226286e-14 9.4298093e-15          0.1 0.0090008333   0.25503378  0.029898611 
number of iterations: 1405 
     800     17.62394      154           54          100 4.9878643e-14 9.432603e-15          0.1 0.0090008443   0.29313151  0.029898593 
number of iterations: 1392 
     900    17.836244      155           55          100 5.0539646e-14 9.4367028e-15          0.1  0.009000853   0.33170657  0.029898578 
number of iterations: 1632 
    1000    18.085624      156           56          100 5.1209408e-14 9.4421084e-15          0.1 0.0090008675   0.37076588  0.029898554 
number of iterations: 1452 
    1100    18.302285      157           57          100 5.1888046e-14 9.448804e-15          0.1 0.0090008789   0.41031636  0.029898535 
number of iterations: 1416 
    1200    18.494059      158           58          100 5.2575678e-14 9.4567853e-15          0.1 0.0090008905   0.45036518  0.029898516 
number of iterations: 1419 
    1300    18.670131      159           59          100 5.3272422e-14 9.466047e-15          0.1 0.0090009022    0.4909193  0.029898496 
number of iterations: 1424 
    1400    18.840215      159           59          100  5.39784e-14 9.4765823e-15          0.1 0.0090009141   0.53198609  0.029898476 
number of iterations: 1421 
    1500    19.019467      161           61          100 5.4693733e-14 9.4883844e-15          0.1 0.0090009238   0.57357285   0.02989846 
number of iterations: 1429 
    1600     19.18931      161           61          100 5.5418546e-14 9.5014501e-15          0.1  0.009000936   0.61568695   0.02989844 
number of iterations: 1453 
    1700    19.449586      163           63          100 5.6152965e-14 9.5157724e-15          0.1 0.0090009483   0.65833575  0.029898419 
number of iterations: 1449 
    1800    19.653262      163           63          100 5.6897116e-14 9.5313513e-15          0.1 0.0090009608   0.70152696  0.029898398 
number of iterations: 1438 
    1900    19.845863      163           63          100 5.7651129e-14 9.548182e-15          0.1 0.0090009735   0.74526816  0.029898377 
number of iterations: 1441 
    2000     20.08495      164           64          100 5.8415134e-14 9.5662615e-15          0.1 0.0090009864   0.78956688  0.029898355 
number of iterations: 1443 
    2100     20.26528      165           65          100 5.9189264e-14 9.5855878e-15          0.1 0.0090009994   0.83443112  0.029898334 
number of iterations: 1446 
    2200    20.444855      165           65          100 5.9973653e-14 9.6061589e-15          0.1 0.0090010126    0.8798688  0.029898312 
number of iterations: 1449 
    2300    20.644167      165           65          100 6.0768437e-14 9.6279733e-15          0.1 0.0090010259   0.92588789  0.029898289 
number of iterations: 1452 
    2400    20.837741      165           65          100 6.1573753e-14 9.6510301e-15          0.1 0.0090010395    0.9724965  0.029898267 
number of iterations: 1458 
    2500    21.016697      167           66          101 6.2389742e-14 9.6753288e-15          0.1 0.0090010532    1.0197028  0.029898244 
number of iterations: 1470 
    2600    21.180506      168           67          101 6.3216544e-14 9.7008677e-15          0.1 0.0090010671    1.0675152   0.02989822 
number of iterations: 1460 
    2700    21.362242      168           67          101 6.4054303e-14 9.7276483e-15          0.1 0.0090010812    1.1159419  0.029898197 
number of iterations: 1463 
    2800    21.532206      168           67          101 6.4903164e-14 9.7556709e-15          0.1 0.0090010955    1.1649915  0.029898173 
number of iterations: 1466 
    2900    21.723506      169           67          102 6.5763275e-14 9.7849368e-15          0.1   0.00900111    1.2146726  0.029898149 
number of iterations: 1469 
    3000     21.93499      169           67          102 6.6634784e-14 9.815447e-15          0.1 0.0090011246    1.2649939  0.029898124 
number of iterations: 1534 
    3100    22.105453      171           69          102 6.7517842e-14 9.8472031e-15          0.1 0.0090011396    1.3159643  0.029898099 
number of iterations: 1475 
    3200    22.279277      171           69          102 6.8412603e-14 9.8802076e-15          0.1 0.0090011546    1.3675926  0.029898074 
number of iterations: 1645 
    3300    22.525168      172           70          102 6.9319221e-14 9.9144617e-15          0.1 0.0090011762    1.4198877  0.029898038 
number of iterations: 1480 
    3400    22.736504      174           70          104 7.0237854e-14 9.9499697e-15          0.1 0.0090011918     1.472859  0.029898012 
number of iterations: 1483 
    3500    22.916083      174           70          104 7.1168661e-14 9.9867347e-15          0.1 0.0090012075    1.5265156  0.029897986 
number of iterations: 1486 
    3600    23.164458      174           70          104 7.2111803e-14 1.002476e-14          0.1 0.0090012235    1.5808669  0.029897959 
number of iterations: 1493 
    3700    23.371077      177           71          106 7.3067444e-14 1.0064054e-14          0.1 0.0090012396    1.6359222  0.029897932 
number of iterations: 1525 
    3800    23.545941      179           72          107 7.4035749e-14 1.0104615e-14          0.1  0.009001256    1.6916912  0.029897905 
number of iterations: 1495 
    3900    23.716333      181           72          109 7.5016887e-14 1.014645e-14          0.1 0.0090012726    1.7481837  0.029897877 
number of iterations: 1498 
    4000    23.924183      182           72          110 7.6011026e-14 1.018956e-14          0.1 0.0090012895    1.8054097  0.029897849 
number of iterations: 1501 
    4100    24.097695      182           72          110 7.701834e-14 1.0233955e-14          0.1 0.0090013065    1.8633791   0.02989782 
number of iterations: 1539 
    4200    24.291321      184           73          111 7.8039003e-14 1.0279643e-14          0.1 0.0090013238    1.9221015  0.029897792 
number of iterations: 1507 
    4300    24.461104      184           73          111 7.9073193e-14 1.0326627e-14          0.1 0.0090013413    1.9815877  0.029897762 
number of iterations: 1514 
    4400     24.64624      185           74          111 8.0121087e-14 1.0374913e-14          0.1 0.0090013602     2.041848  0.029897731 
number of iterations: 1512 
    4500    24.839953      185           74          111 8.1182868e-14 1.0424509e-14          0.1 0.0090013781    2.1028927  0.029897701 
number of iterations: 1535 
    4600    25.008888      187           76          111 8.2258721e-14 1.0475423e-14          0.1 0.0090013964    2.1647328   0.02989767 
number of iterations: 1528 
    4700    25.180283      190           78          112 8.334883e-14 1.0527661e-14          0.1 0.0090014149    2.2273789  0.029897639 
number of iterations: 1520 
    4800    25.362117      191           79          112 8.4453386e-14 1.0581234e-14          0.1 0.0090014336    2.2908418  0.029897608 
number of iterations: 1481 
    4900    25.536202      195           82          113 8.557258e-14 1.0636146e-14          0.1 0.0090014437    2.3551325  0.029897591 
number of iterations: 1522 
    5000    25.737452      195           82          113 8.6706606e-14 1.0692407e-14          0.1 0.0090014628    2.4202623  0.029897559 
number of iterations: 1654 
    5100    25.926975      201           87          114 8.785566e-14 1.0750027e-14          0.1 0.0090014887    2.4862424  0.029897516 
number of iterations: 1584 
    5200    26.117678      204           89          115 8.9019941e-14 1.0809013e-14          0.1 0.0090015132    2.5530844  0.029897475 
number of iterations: 1530 
    5300    26.306703      205           90          115 9.0199652e-14 1.0869377e-14          0.1 0.0090015333       2.6208  0.029897442 
number of iterations: 1540 
    5400    26.484203      207           92          115 9.1394996e-14 1.093113e-14          0.1 0.0090015453     2.689401  0.029897422 
number of iterations: 1571 
    5500    26.676945      208           93          115 9.2606182e-14 1.0994282e-14          0.1 0.0090015611    2.7588988  0.029897395 
number of iterations: 1541 
    5600    26.862242      209           93          116 9.3833418e-14 1.1058839e-14          0.1 0.0090015818    2.8293057  0.029897361 
number of iterations: 1571 
    5700    27.036909      211           95          116 9.5076918e-14 1.1124816e-14          0.1 0.0090016027     2.900634  0.029897326 
number of iterations: 1547 
    5800    27.216886      212           95          117 9.6336897e-14 1.1192222e-14          0.1 0.0090016239     2.972896   0.02989729 
number of iterations: 1554 
    5900    27.387063      215           96          119 9.7613573e-14 1.1261068e-14          0.1 0.0090016454    3.0461042  0.029897254 
number of iterations: 1552 
    6000    27.566723      216           96          120 9.8907169e-14 1.1331367e-14          0.1 0.0090016672    3.1202714  0.029897218 
number of iterations: 1554 
    6100    27.764122      219           97          122 1.0021791e-13 1.1403133e-14          0.1 0.0090016876    3.1954103  0.029897184 
number of iterations: 1635 
    6200    27.943603      221           98          123 1.0154602e-13 1.1476378e-14          0.1 0.0090017123    3.2715341  0.029897143 
number of iterations: 1573 
    6300    28.127334      223           99          124 1.0289172e-13 1.1551115e-14          0.1 0.0090017349    3.3486559  0.029897105 
number of iterations: 1564 
    6400    28.293981      224          100          124 1.0425527e-13 1.1627357e-14          0.1 0.0090017579    3.4267888  0.029897067 
number of iterations: 1567 
    6500    28.475426      226          100          126 1.0563688e-13 1.1705117e-14          0.1 0.0090017812    3.5059467  0.029897028 
number of iterations: 1570 
    6600    28.657502      230          103          127 1.070368e-13 1.1784411e-14          0.1 0.0090018059    3.5861429  0.029896986 
number of iterations: 1586 
    6700    28.860162      234          103          131 1.0845527e-13 1.1865255e-14          0.1 0.0090018298    3.6673916  0.029896946 
number of iterations: 1575 
    6800    29.043637      234          103          131 1.0989254e-13 1.1947661e-14          0.1 0.0090018541    3.7497069  0.029896906 
number of iterations: 1593 
    6900    29.226167      237          106          131 1.1134886e-13 1.203164e-14          0.1 0.0090018786    3.8331032  0.029896865 
number of iterations: 1785 
    7000    29.450188      246          114          132 1.1282448e-13 1.2117212e-14          0.1 0.0090019192    3.9175951  0.029896797 
number of iterations: 1583 
    7100    29.645207      246          114          132 1.1431965e-13 1.2204394e-14          0.1 0.0090019446    4.0031975  0.029896755 
number of iterations: 1598 
    7200    29.822238      247          115          132 1.1583464e-13 1.2293203e-14          0.1 0.0090019704    4.0899247  0.029896712 
number of iterations: 1751 
    7300    30.004711      251          118          133 1.1736971e-13 1.2383652e-14          0.1 0.0090020001    4.1777914  0.029896662 
number of iterations: 1618 
    7400    30.187312      255          120          135 1.1892511e-13 1.2475758e-14          0.1 0.0090020266     4.266813  0.029896618 
number of iterations: 1727 
    7500     30.38614      259          123          136 1.2050113e-13 1.2569536e-14          0.1 0.0090020522     4.357005  0.029896575 
number of iterations: 1577 
    7600    30.566473      260          124          136 1.2209804e-13 1.2665008e-14          0.1 0.0090020759    4.4483828  0.029896536 
number of iterations: 1668 
    7700    30.753209      265          128          137 1.2371611e-13 1.2762194e-14          0.1 0.0090021023    4.5409624  0.029896492 
number of iterations: 1606 
    7800    30.925598      266          128          138 1.2535562e-13 1.2861107e-14          0.1 0.0090021301    4.6347597  0.029896445 
number of iterations: 1630 
    7900    31.092144      267          129          138 1.2701685e-13 1.2961773e-14          0.1 0.0090021595    4.7297915  0.029896396 
number of iterations: 1715 
    8000    31.279054      270          132          138 1.2870011e-13 1.3064207e-14          0.1 0.0090021897    4.8260742  0.029896346 
number of iterations: 1675 
    8100    31.467108      275          134          141 1.3040567e-13 1.3168429e-14          0.1 0.0090022271    4.9236242  0.029896283 
number of iterations: 1640 
    8200    31.659986      280          138          142 1.3213383e-13 1.3274457e-14          0.1 0.0090022543    5.0224581  0.029896238 
number of iterations: 1627 
    8300    31.855854      284          139          145 1.3388489e-13 1.3382312e-14          0.1 0.0090022865    5.1225931  0.029896184 
number of iterations: 1630 
    8400     32.03313      286          140          146 1.3565916e-13 1.3492016e-14          0.1 0.0090023168    5.2240466  0.029896133 
number of iterations: 1615 
    8500    32.227932      287          141          146 1.3745695e-13 1.3603591e-14          0.1 0.0090023456    5.3268356  0.029896085 
number of iterations: 1608 
    8600    32.416762      288          142          146 1.3927855e-13 1.3717054e-14          0.1 0.0090023735     5.430978  0.029896039 
number of iterations: 1631 
    8700    32.617986      290          142          148 1.411243e-13 1.3832431e-14          0.1 0.0090024049    5.5364921  0.029895986 
number of iterations: 1633 
    8800    32.816367      293          142          151 1.4299451e-13 1.3949743e-14          0.1 0.0090024368    5.6433962  0.029895933 
number of iterations: 1641 
    8900    33.002159      294          143          151 1.448895e-13 1.4069014e-14          0.1  0.009002469    5.7517087  0.029895879 
number of iterations: 1698 
    9000    33.221153      296          143          153 1.468096e-13 1.4190267e-14          0.1 0.0090025045    5.8614483   0.02989582 
number of iterations: 1775 
    9100    33.406658      299          146          153 1.4875515e-13 1.4313524e-14          0.1 0.0090025455    5.9726339  0.029895752 
number of iterations: 1660 
    9200    33.583125      302          148          154 1.5072649e-13 1.4438815e-14          0.1 0.0090025816    6.0852848  0.029895691 
number of iterations: 1610 
    9300    33.774545      305          151          154 1.5272394e-13 1.4566159e-14          0.1 0.0090026116    6.1994206  0.029895641 
number of iterations: 1726 
    9400    33.957038      309          153          156 1.5474787e-13 1.4695582e-14          0.1 0.0090026505    6.3150612  0.029895576 
number of iterations: 1647 
    9500    34.135128      312          155          157 1.5679862e-13 1.4827108e-14          0.1 0.0090026824    6.4322262  0.029895523 
number of iterations: 1695 
    9600    34.322637      317          160          157 1.5887655e-13 1.4960764e-14          0.1  0.009002719    6.5509363  0.029895462 
number of iterations: 1703 
    9700    34.527148      318          161          157 1.6098201e-13 1.5096574e-14          0.1 0.0090027638    6.6712117  0.029895387 
number of iterations: 1664 
    9800    34.696439      323          163          160 1.6311538e-13 1.5234568e-14          0.1 0.0090028004    6.7930728  0.029895326 
number of iterations: 1667 
    9900    34.906356      325          163          162 1.6527701e-13 1.5374771e-14          0.1 0.0090028375    6.9165411  0.029895264 
number of iterations: 1757 
   10000    35.086907      329          166          163 1.674673e-13 1.5517212e-14          0.1 0.0090028815    7.0416376  0.029895191 
number of iterations: 1679 
   10100    35.285044      331          167          164 1.6968661e-13 1.566192e-14          0.1 0.0090029197    7.1683841  0.029895127 
number of iterations: 1670 
   10200    35.464371      334          170          164 1.7193533e-13 1.5808922e-14          0.1 0.0090029558    7.2968022  0.029895067 
number of iterations: 1709 
   10300    35.649702      339          173          166 1.7421385e-13 1.5958246e-14          0.1 0.0090029977     7.426914  0.029894997 
number of iterations: 1688 
   10400    35.844381      343          175          168 1.7652256e-13 1.6109922e-14          0.1 0.0090030402    7.5587425  0.029894926 
number of iterations: 1687 
   10500    36.031951      346          175          171 1.7886187e-13 1.6263984e-14          0.1 0.0090030805      7.69231  0.029894858 
number of iterations: 1687 
   10600    36.209906      348          175          173 1.8123219e-13 1.6420459e-14          0.1 0.0090031213    7.8276399   0.02989479 
number of iterations: 1694 
   10700    36.397093      354          179          175 1.8363391e-13 1.6579376e-14          0.1 0.0090031627    7.9647555  0.029894721 
number of iterations: 1699 
   10800    36.599626      359          182          177 1.8606746e-13 1.6740768e-14          0.1 0.0090032014    8.1036804  0.029894657 
number of iterations: 1728 
   10900    36.827079      362          183          179 1.8853326e-13 1.6904668e-14          0.1  0.009003248    8.2444382  0.029894579 
number of iterations: 1691 
   11000    37.034274      365          184          181 1.9103174e-13 1.7071108e-14          0.1 0.0090032879    8.3870539  0.029894512 
number of iterations: 1702 
   11100    37.245718      366          184          182 1.9356333e-13 1.7240122e-14          0.1 0.0090033314    8.5315519  0.029894439 
number of iterations: 1674 
   11200    37.411115      369          187          182 1.9612847e-13 1.7411743e-14          0.1 0.0090033708    8.6779572  0.029894374 
number of iterations: 1697 
   11300    37.607218      376          191          185 1.987276e-13 1.7586007e-14          0.1 0.0090034071    8.8262953  0.029894313 
number of iterations: 1703 
   11400    37.790833      380          194          186 2.0136118e-13 1.7762947e-14          0.1 0.0090034451    8.9765917   0.02989425 
number of iterations: 1753 
   11500    37.981921      386          196          190 2.0402966e-13 1.7942596e-14          0.1  0.009003492    9.1288726  0.029894171 
number of iterations: 1713 
   11600    38.264059      393          201          192 2.067335e-13 1.8124991e-14          0.1  0.009003543    9.2831644  0.029894086 
number of iterations: 1712 
   11700    38.447412      401          205          196 2.0947317e-13 1.8310172e-14          0.1 0.0090035836    9.4394928  0.029894018 
number of iterations: 1710 
   11800     38.64317      408          208          200 2.1224914e-13 1.8498173e-14          0.1 0.0090036268    9.5978851  0.029893946 
number of iterations: 1837 
   11900      38.8384      411          209          202 2.1506191e-13 1.8689035e-14          0.1 0.0090036801    9.7583686  0.029893857 
number of iterations: 1722 
   12000    39.032312      416          211          205 2.1791195e-13 1.8882793e-14          0.1 0.0090037233    9.9209714  0.029893785 
number of iterations: 1722 
   12100     39.25568      419          213          206 2.2079976e-13 1.9079486e-14          0.1 0.0090037727    10.085721  0.029893703 
number of iterations: 1801 
   12200     39.50941      429          220          209 2.2372584e-13 1.9279154e-14          0.1  0.009003818    10.252648  0.029893627 
number of iterations: 1741 
   12300    39.715935      435          225          210 2.266907e-13 1.9481841e-14          0.1 0.0090038659    10.421777  0.029893547 
number of iterations: 1734 
   12400    39.901674      439          228          211 2.2969485e-13 1.9687584e-14          0.1 0.0090039116     10.59314  0.029893471 
number of iterations: 1739 
   12500    40.131925      446          231          215 2.327388e-13 1.9896423e-14          0.1 0.0090039623    10.766767  0.029893386 
number of iterations: 1735 
   12600    40.306466      452          236          216 2.358231e-13 2.0108397e-14          0.1 0.0090040058    10.942688  0.029893313 
number of iterations: 1729 
   12700    40.492772      459          239          220 2.3894827e-13 2.0323554e-14          0.1 0.0090040504    11.120932  0.029893239 
number of iterations: 1756 
   12800    40.697404      461          240          221 2.4211486e-13 2.0541932e-14          0.1 0.0090041065    11.301531  0.029893145 
number of iterations: 1752 
   12900    40.891241      465          243          222 2.4532341e-13 2.0763579e-14          0.1 0.0090041554    11.484516  0.029893063 
number of iterations: 1837 
   13000    41.086865      473          250          223 2.4857448e-13 2.098854e-14          0.1 0.0090042074    11.669917  0.029892977 
number of iterations: 1760 
   13100    41.286442      476          251          225 2.5186864e-13 2.1216862e-14          0.1 0.0090042617    11.857768  0.029892886 
number of iterations: 1754 
   13200    41.472136      484          255          229 2.5520645e-13 2.1448588e-14          0.1 0.0090043151    12.048101  0.029892797 
number of iterations: 1772 
   13300    41.682627      491          260          231 2.5858849e-13 2.1683767e-14          0.1 0.0090043749    12.240947  0.029892697 
number of iterations: 1755 
   13400    41.885873      494          261          233 2.6201535e-13 2.1922445e-14          0.1   0.00900443    12.436341  0.029892605 
number of iterations: 1772 
   13500    42.090945      499          265          234 2.6548763e-13 2.2164669e-14          0.1 0.0090044874    12.634316  0.029892509 
number of iterations: 1759 
   13600    42.268781      506          270          236 2.6900592e-13 2.2410488e-14          0.1 0.0090045439    12.834906  0.029892415 
number of iterations: 1771 
   13700    42.468917      511          273          238 2.7257083e-13 2.2659952e-14          0.1 0.0090046071    13.038146  0.029892309 
number of iterations: 1739 
   13800    42.690339      515          274          241 2.7618299e-13 2.2913112e-14          0.1 0.0090046631     13.24407  0.029892216 
number of iterations: 1796 
   13900    42.887867      523          276          247 2.7984302e-13 2.3170019e-14          0.1 0.0090047264    13.452716   0.02989211 
number of iterations: 1894 
   14000    43.110958      530          281          249 2.8355155e-13 2.3430724e-14          0.1 0.0090047989    13.664118  0.029891989 
number of iterations: 1764 
   14100    43.319968      536          286          250 2.8730922e-13 2.3695277e-14          0.1 0.0090048525    13.878314  0.029891899 
number of iterations: 1764 
   14200    43.516656      545          292          253 2.911167e-13 2.3963734e-14          0.1 0.0090049056    14.095339  0.029891811 
number of iterations: 1778 
   14300    43.697105      555          297          258 2.9497463e-13 2.4236147e-14          0.1 0.0090049666    14.315232  0.029891709 
number of iterations: 1829 
   14400    43.880654      562          302          260 2.9888369e-13 2.4512574e-14          0.1 0.0090050315    14.538029  0.029891601 
number of iterations: 1776 
   14500    44.080495      571          307          264 3.0284455e-13 2.479307e-14          0.1 0.0090050953    14.763771  0.029891494 
number of iterations: 1805 
   14600    44.262917      578          311          267 3.068579e-13 2.5077691e-14          0.1  0.009005159    14.992494  0.029891388 
number of iterations: 1811 
   14700    44.459356      582          312          270 3.1092443e-13 2.5366496e-14          0.1 0.0090052199     15.22424  0.029891286 
number of iterations: 1774 
   14800    44.660216      591          316          275 3.1504486e-13 2.5659541e-14          0.1 0.0090052838    15.459049  0.029891179 
number of iterations: 1795 
   14900    44.843252      600          321          279 3.1921989e-13 2.5956885e-14          0.1 0.0090053404    15.696961  0.029891084 
number of iterations: 1797 
   15000    45.058299      605          323          282 3.2345024e-13 2.625859e-14          0.1 0.0090054071    15.938016  0.029890973 
number of iterations: 1869 
   15100    45.269659      611          324          287 3.2773666e-13 2.6564715e-14          0.1 0.0090054885    16.182256  0.029890837 
number of iterations: 1810 
   15200    45.478447      614          324          290 3.3207989e-13 2.6875325e-14          0.1 0.0090055584    16.429723  0.029890721 
number of iterations: 1861 
   15300    45.701245      617          326          291 3.3648067e-13 2.7190482e-14          0.1 0.0090056343    16.680461  0.029890594 
number of iterations: 1965 
   15400    45.901613      623          328          295 3.4093977e-13 2.7510247e-14          0.1 0.0090057154    16.934513  0.029890458 
number of iterations: 1822 
   15500    46.083891      629          333          296 3.4545796e-13 2.7834689e-14          0.1 0.0090057927    17.191922  0.029890329 
number of iterations: 1816 
   15600    46.288942      636          339          297 3.5003603e-13 2.816387e-14          0.1 0.0090058623    17.452733  0.029890213 
number of iterations: 1861 
   15700    46.501085      643          343          300 3.5467477e-13 2.849786e-14          0.1 0.0090059406    17.716991  0.029890082 
number of iterations: 1883 
   15800    46.718521      649          346          303 3.5937498e-13 2.8836725e-14          0.1 0.0090060272    17.984741  0.029889938 
number of iterations: 1880 
   15900    46.913449      652          349          303 3.6413747e-13 2.9180535e-14          0.1 0.0090061128     18.25603  0.029889795 
number of iterations: 1828 
   16000    47.131797      661          356          305 3.6896309e-13 2.9529358e-14          0.1 0.0090061836    18.530904  0.029889677 
number of iterations: 1841 
   16100    47.324323      675          367          308 3.7385265e-13 2.9883267e-14          0.1 0.0090062644     18.80941  0.029889542 
number of iterations: 1872 
   16200    47.515447      686          372          314  3.78807e-13 3.0242334e-14          0.1 0.0090063503    19.091597  0.029889398 
number of iterations: 1861 
   16300    47.718234      690          372          318 3.8382702e-13 3.0606628e-14          0.1 0.0090064393    19.377513   0.02988925 
number of iterations: 1841 
   16400    47.916076      696          375          321 3.8891356e-13 3.0976228e-14          0.1 0.0090065194    19.667208  0.029889116 
number of iterations: 1864 
   16500    48.116318      705          381          324 3.9406751e-13 3.1351207e-14          0.1 0.0090066065    19.960732  0.029888971 
number of iterations: 1850 
   16600    48.318792      713          384          329 3.9928975e-13 3.173164e-14          0.1 0.0090066886    20.258135  0.029888833 
number of iterations: 1862 
   16700    48.514342      725          390          335 4.0458121e-13 3.2117603e-14          0.1 0.0090067793    20.559468  0.029888682 
number of iterations: 1863 
   16800    48.712391      733          393          340 4.0994278e-13 3.2509176e-14          0.1 0.0090068586    20.864784  0.029888549 
number of iterations: 1912 
   16900    48.921496      742          397          345 4.1537541e-13 3.2906439e-14          0.1 0.0090069526    21.174133  0.029888393 
number of iterations: 1876 
   17000    49.137937      752          403          349 4.2088003e-13 3.3309469e-14          0.1 0.0090070402    21.487572  0.029888246 
number of iterations: 1921 
   17100    49.385998      766          410          356 4.264576e-13 3.3718352e-14          0.1 0.0090071454    21.805155  0.029888071 
number of iterations: 1931 
   17200    49.601889      780          420          360 4.3210909e-13 3.413317e-14          0.1 0.0090072396    22.126936  0.029887913 
number of iterations: 1887 
   17300    49.800618      795          430          365 4.3783547e-13 3.4554005e-14          0.1 0.0090073319     22.45297  0.029887759 
number of iterations: 1900 
   17400    50.010744      807          436          371 4.4363773e-13 3.4980946e-14          0.1 0.0090074342    22.783313  0.029887588 
number of iterations: 1896 
   17500     50.21648      817          441          376 4.4951689e-13 3.5414078e-14          0.1 0.0090075307    23.118022  0.029887427 
number of iterations: 1875 
   17600    50.431625      829          448          381 4.5547396e-13 3.5853491e-14          0.1 0.0090076238    23.457154  0.029887272 
number of iterations: 1921 
   17700    50.628878      848          461          387 4.6150997e-13 3.6299274e-14          0.1 0.0090077439    23.800769  0.029887071 
number of iterations: 1846 
   17800    50.832199      863          470          393 4.6762598e-13 3.6751514e-14          0.1 0.0090078406    24.148925   0.02988691 
number of iterations: 1907 
   17900    51.057138      876          475          401 4.7382303e-13 3.7210306e-14          0.1 0.0090079481    24.501683   0.02988673 
number of iterations: 1901 
   18000    51.282186      887          482          405 4.801022e-13 3.7675741e-14          0.1 0.0090080563    24.859103   0.02988655 
number of iterations: 1898 
   18100    51.492732      899          489          410 4.8646459e-13 3.8147915e-14          0.1 0.0090081558    25.221246  0.029886383 
number of iterations: 1907 
   18200    51.724068      912          493          419 4.929113e-13 3.8626923e-14          0.1 0.0090082567    25.588176  0.029886215 
number of iterations: 1897 
   18300    51.910996      926          501          425 4.9944343e-13 3.9112864e-14          0.1 0.0090083434    25.959955   0.02988607 
number of iterations: 1923 
   18400    52.130049      937          507          430 5.0606214e-13 3.9605837e-14          0.1 0.0090084616    26.336648  0.029885873 
number of iterations: 1898 
   18500    52.329891      952          516          436 5.1276855e-13 4.0105942e-14          0.1 0.0090085888    26.718319   0.02988566 
number of iterations: 1952 
   18600    52.548942      963          522          441 5.1956383e-13 4.0613281e-14          0.1 0.0090087032    27.105034  0.029885469 
number of iterations: 1870 
   18700    52.791141      973          527          446 5.2644917e-13 4.1127958e-14          0.1 0.0090088043    27.496861    0.0298853 
number of iterations: 1946 
   18800    53.037307      988          539          449 5.3342576e-13 4.1650078e-14          0.1 0.0090089372    27.893865  0.029885079 
number of iterations: 1997 
   18900    53.271631      999          546          453 5.4049479e-13 4.2179747e-14          0.1 0.0090090583    28.296117  0.029884876 
number of iterations: 1930 
   19000    53.500641     1013          553          460 5.4765751e-13 4.2717072e-14          0.1 0.0090091814    28.703686  0.029884671 
number of iterations: 1945 
   19100    53.727849     1026          556          470 5.5491515e-13 4.3262166e-14          0.1  0.009009308    29.116639  0.029884459 
number of iterations: 1997 
   19200    53.938506     1035          562          473 5.6226897e-13 4.3815138e-14          0.1 0.0090094392    29.535051   0.02988424 
number of iterations: 1916 
   19300     54.14068     1047          569          478 5.6972024e-13 4.4376101e-14          0.1 0.0090095564    29.958992  0.029884045 
number of iterations: 1919 
   19400    54.377628     1053          572          481 5.7727025e-13 4.4945169e-14          0.1 0.0090096758    30.388536  0.029883845 
number of iterations: 1951 
   19500    54.601933     1063          575          488 5.8492032e-13 4.5522457e-14          0.1 0.0090097975    30.823758  0.029883642 
number of iterations: 1899 
   19600    54.811521     1077          584          493 5.9267177e-13 4.6108082e-14          0.1 0.0090099113    31.264733  0.029883452 
number of iterations: 1977 
   19700    55.019946     1090          590          500 6.0052594e-13 4.6702166e-14          0.1 0.0090100303    31.711535  0.029883253 
number of iterations: 1956 
   19800    55.246883     1106          599          507 6.0848419e-13 4.7304829e-14          0.1 0.0090101855    32.164241  0.029882994 
number of iterations: 1985 
   19900    55.446375     1115          606          509 6.1654791e-13 4.7916192e-14          0.1 0.0090103299     32.62293  0.029882753 
number of iterations: 1986 
   20000    55.663836     1123          608          515 6.2471848e-13 4.8536383e-14          0.1 0.0090104685     33.08768  0.029882521 
number of iterations: 1991 
   20100    55.892668     1136          612          524 6.3299734e-13 4.9165526e-14          0.1 0.0090106142    33.558572  0.029882278 
number of iterations: 1939 
   20200    56.103464     1151          619          532 6.4138591e-13 4.9803749e-14          0.1 0.0090107444    34.035687  0.029882061 
number of iterations: 1960 
   20300    56.312387     1167          628          539 6.4988564e-13 5.0451184e-14          0.1 0.0090108978    34.519107  0.029881805 
number of iterations: 2032 
   20400    56.521446     1180          637          543 6.5849801e-13 5.1107963e-14          0.1 0.0090110561    35.008916   0.02988154 
number of iterations: 1948 
   20500    56.751002     1204          657          547 6.6722451e-13 5.1774219e-14          0.1 0.0090111945    35.505197  0.029881309 
number of iterations: 2005 
   20600    56.964405     1223          668          555 6.7606666e-13 5.2450092e-14          0.1 0.0090113659    36.008036  0.029881023 
number of iterations: 1976 
   20700    57.211624     1236          676          560 6.8502598e-13 5.3135717e-14          0.1 0.0090115124     36.51752  0.029880778 
number of iterations: 1989 
   20800    57.436093     1254          690          564 6.9410404e-13 5.3831236e-14          0.1 0.0090116711    37.033737  0.029880513 
number of iterations: 1982 
   20900    57.648989     1273          700          573 7.0330239e-13 5.4536787e-14          0.1 0.0090118239    37.556775  0.029880258 
number of iterations: 1998 
   21000    57.862034     1290          709          581 7.1262265e-13 5.5252515e-14          0.1 0.0090119832    38.086726  0.029879992 
number of iterations: 2000 
   21100     58.08246     1308          717          591 7.2206641e-13 5.5978567e-14          0.1 0.0090121467    38.623681  0.029879719 
number of iterations: 2013 
   21200    58.310143     1317          719          598 7.3163533e-13 5.6715092e-14          0.1 0.0090123133    39.167733  0.029879441 
number of iterations: 1991 
   21300    58.524465     1331          726          605 7.4133105e-13 5.7462238e-14          0.1 0.0090124831    39.718973  0.029879157 
number of iterations: 2010 
   21400    58.753255     1351          739          612 7.5115526e-13 5.8220159e-14          0.1 0.0090126432    40.277499   0.02987889 
number of iterations: 2007 
   21500    58.961801     1360          745          615 7.6110966e-13 5.898901e-14          0.1 0.0090128161    40.843407  0.029878601 
number of iterations: 2004 
   21600    59.171549     1378          749          629 7.7119598e-13 5.9768948e-14          0.1 0.0090129847    41.416793  0.029878319 
number of iterations: 1991 
   21700    59.437129     1396          759          637 7.8141596e-13 6.0560132e-14          0.1 0.0090131481    41.997758  0.029878046 
number of iterations: 2011 
   21800     59.68469     1414          766          648 7.9177138e-13 6.1362724e-14          0.1 0.0090133207      42.5864  0.029877758 
number of iterations: 2020 
   21900    59.893686     1436          778          658 8.0226402e-13 6.2176887e-14          0.1  0.009013503    43.182821  0.029877454 
number of iterations: 1977 
   22000    60.110688     1446          786          660 8.1289572e-13 6.3002788e-14          0.1 0.0090136654    43.787122  0.029877183 
number of iterations: 2049 
   22100    60.324064     1470          801          669 8.2366831e-13 6.3840598e-14          0.1 0.0090138499     44.39941  0.029876874 
number of iterations: 2027 
   22200    60.535334     1492          812          680 8.3458365e-13 6.4690488e-14          0.1 0.0090140303     45.01979  0.029876573 
number of iterations: 2002 
   22300    60.763022     1510          822          688 8.4564365e-13 6.5552629e-14          0.1 0.0090142108    45.648368  0.029876272 
number of iterations: 2024 
   22400    60.991894     1534          834          700 8.5685021e-13 6.6427199e-14          0.1 0.0090143979    46.285252  0.029875959 
number of iterations: 2078 
   22500    61.204242     1554          843          711 8.6820529e-13 6.7314376e-14          0.1 0.0090145981    46.930552  0.029875625 
number of iterations: 2033 
   22600    61.445628     1575          855          720 8.7971084e-13 6.821434e-14          0.1 0.0090147909    47.584377  0.029875303 
number of iterations: 2026 
   22700    61.650746     1597          866          731 8.9136886e-13 6.9127278e-14          0.1 0.0090149811    48.246842  0.029874985 
number of iterations: 2038 
   22800    61.929628     1615          877          738 9.0318137e-13 7.0053377e-14          0.1 0.0090151733    48.918059  0.029874664 
number of iterations: 2051 
   22900    62.148883     1637          890          747 9.1515043e-13 7.0992824e-14          0.1 0.0090153856    49.598147   0.02987431 
number of iterations: 2016 
   23000    62.357312     1655          901          754 9.272781e-13 7.1945813e-14          0.1 0.0090155756    50.287221  0.029873992 
number of iterations: 2028 
   23100    62.652624     1676          914          762 9.3956648e-13 7.2912542e-14          0.1 0.0090157774    50.985401  0.029873655 
number of iterations: 2051 
   23200    62.865727     1713          935          778 9.5201771e-13 7.3893206e-14          0.1 0.0090159761    51.692806  0.029873323 
number of iterations: 2064 
   23300    63.089359     1744          954          790 9.6463394e-13 7.4888006e-14          0.1 0.0090161893    52.409561  0.029872967 
number of iterations: 2027 
   23400    63.378835     1776          966          810 9.7741737e-13 7.5897144e-14          0.1  0.009016405    53.135788  0.029872607 
number of iterations: 2080 
   23500    63.601933     1802          983          819 9.903702e-13 7.6920827e-14          0.1 0.0090166409    53.871611  0.029872213 
number of iterations: 2012 
   23600    63.810184     1822          995          827 1.0034947e-12 7.7959262e-14          0.1 0.0090168293    54.617158  0.029871898 
number of iterations: 2057 
   23700    64.024981     1841         1007          834 1.0167931e-12 7.9012665e-14          0.1  0.009017036    55.372555  0.029871553 
number of iterations: 2081 
   23800       64.264     1874         1026          848 1.0302677e-12 8.0081252e-14          0.1 0.0090172597    56.137931  0.029871179 
number of iterations: 2094 
   23900      64.4908     1911         1044          867 1.0439209e-12 8.1165238e-14          0.1 0.0090174829    56.913423  0.029870807 
number of iterations: 2065 
   24000    64.733175     1942         1059          883 1.0577551e-12 8.2264847e-14          0.1 0.0090177051    57.699161  0.029870435 
number of iterations: 2097 
   24100    64.949204     1969         1072          897 1.0717725e-12 8.3380304e-14          0.1 0.0090179376     58.49528  0.029870047 
number of iterations: 2056 
   24200    65.173677     1994         1086          908 1.0859758e-12 8.4511838e-14          0.1 0.0090181556    59.301919  0.029869683 
number of iterations: 2056 
   24300    65.427905     2018         1098          920 1.1003672e-12 8.5659682e-14          0.1 0.0090183739    60.119217  0.029869318 
number of iterations: 2121 
   24400    65.644853     2046         1110          936 1.1149494e-12 8.682407e-14          0.1 0.0090186296    60.947314  0.029868891 
number of iterations: 2074 
   24500    65.874487     2075         1126          949 1.1297248e-12 8.800524e-14          0.1 0.0090188522    61.786355  0.029868519 
number of iterations: 2133 
   24600    66.114142     2100         1135          965 1.144696e-12 8.9203437e-14          0.1 0.0090190996    62.636481  0.029868106 
number of iterations: 2061 
   24700    66.335665     2115         1142          973 1.1598656e-12 9.0418904e-14          0.1 0.0090193179    63.497841  0.029867741 
number of iterations: 2090 
   24800    66.583197     2148         1161          987 1.1752362e-12 9.165189e-14          0.1 0.0090195598    64.370582  0.029867337 
number of iterations: 2136 
   24900    66.849779     2187         1184         1003 1.1908105e-12 9.2902648e-14          0.1 0.0090198347    65.254857  0.029866878 
number of iterations: 2080 
   25000    67.080236     2211         1197         1014 1.2065912e-12 9.4171435e-14          0.1 0.0090200973    66.150814  0.029866439 
number of iterations: 2093 
   25100    67.315952     2242         1219         1023 1.2225811e-12 9.5458509e-14          0.1 0.0090203664     67.05861   0.02986599 
number of iterations: 2084 
   25200    67.592907     2267         1234         1033 1.2387828e-12 9.6764135e-14          0.1 0.0090206272    67.978398  0.029865554 
number of iterations: 2106 
   25300    67.831104     2293         1251         1042 1.2551993e-12 9.8088581e-14          0.1 0.0090209169    68.910339   0.02986507 
number of iterations: 2099 
   25400    68.065135     2317         1263         1054 1.2718332e-12 9.9432117e-14          0.1 0.0090211735    69.854596  0.029864642 
number of iterations: 2101 
   25500    68.373625     2342         1278         1064 1.2886877e-12 1.0079502e-13          0.1 0.0090214534     70.81133  0.029864174 
number of iterations: 2107 
   25600    68.613391     2373         1290         1083 1.3057654e-12 1.0217757e-13          0.1 0.0090217404    71.780704  0.029863695 
number of iterations: 2113 
   25700    68.838247     2393         1301         1092 1.3230695e-12 1.0358005e-13          0.1 0.0090220179    72.762884  0.029863231 
number of iterations: 2126 
   25800    69.064095     2419         1312         1107 1.3406029e-12 1.0500274e-13          0.1 0.0090223316    73.758041  0.029862707 
number of iterations: 2128 
   25900    69.348153     2450         1331         1119 1.3583687e-12 1.0644595e-13          0.1 0.0090226364    74.766347  0.029862198 
number of iterations: 2150 
   26000    69.617365     2477         1346         1131 1.3763699e-12 1.0790996e-13          0.1 0.0090229393    75.787976  0.029861693 
number of iterations: 2101 
   26100    69.839848     2512         1362         1150 1.3946096e-12 1.0939508e-13          0.1 0.0090232186      76.8231  0.029861226 
number of iterations: 2132 
   26200    70.079088     2551         1386         1165 1.413091e-12 1.1090161e-13          0.1 0.0090235133    77.871904  0.029860733 
number of iterations: 2144 
   26300    70.312188     2585         1400         1185 1.4318174e-12 1.1242986e-13          0.1 0.0090238324    78.934564    0.0298602 
number of iterations: 2165 
   26400    70.558621     2621         1416         1205 1.4507919e-12 1.1398014e-13          0.1  0.009024158    80.011264  0.029859657 
number of iterations: 2143 
   26500    70.788831     2655         1435         1220 1.4700179e-12 1.1555277e-13          0.1 0.0090244413    81.102189  0.029859183 
number of iterations: 2143 
   26600    71.029601     2689         1452         1237 1.4894986e-12 1.1714807e-13          0.1 0.0090247387     82.20753  0.029858687 
number of iterations: 2162 
   26700    71.281936     2718         1469         1249 1.5092376e-12 1.1876638e-13          0.1 0.0090250653    83.327478  0.029858141 
number of iterations: 2127 
   26800    71.526116     2751         1483         1268 1.529238e-12 1.2040801e-13          0.1 0.0090253912    84.462222  0.029857597 
number of iterations: 2151 
   26900    71.779305     2792         1501         1291 1.5495036e-12 1.2207332e-13          0.1 0.0090257406    85.611957  0.029857013 
number of iterations: 2135 
   27000     72.02217     2828         1514         1314 1.5700377e-12 1.2376263e-13          0.1 0.0090260678    86.776881  0.029856466 
number of iterations: 2153 
   27100    72.261423     2868         1535         1333 1.5908439e-12 1.2547631e-13          0.1 0.0090263945    87.957195  0.029855921 
number of iterations: 2147 
   27200     72.52076     2903         1557         1346 1.6119258e-12 1.2721469e-13          0.1 0.0090267402    89.153102  0.029855343 
number of iterations: 2151 
   27300    72.765919     2946         1579         1367 1.6332871e-12 1.2897814e-13          0.1 0.0090270833     90.36481   0.02985477 
number of iterations: 2164 
   27400    73.015428     2990         1611         1379 1.6549315e-12 1.3076703e-13          0.1 0.0090274235     91.59253  0.029854201 
number of iterations: 2152 
   27500    73.311602     3047         1642         1405 1.6768627e-12 1.325817e-13          0.1 0.0090277827    92.836469  0.029853601 
number of iterations: 2166 
   27600    73.585339     3084         1662         1422 1.6990845e-12 1.3442255e-13          0.1  0.009028139    94.096842  0.029853006 
number of iterations: 2173 
   27700    73.846314     3136         1689         1447 1.7216008e-12 1.3628994e-13          0.1 0.0090285007     95.37387  0.029852402 
number of iterations: 2193 
   27800    74.078672     3194         1712         1482 1.7444155e-12 1.3818426e-13          0.1 0.0090288881    96.667769  0.029851755 
number of iterations: 2196 
   27900    74.314209     3238         1737         1501 1.7675325e-12 1.401059e-13          0.1 0.0090292876    97.978763  0.029851087 
number of iterations: 2167 
   28000     74.54902     3295         1772         1523 1.7909559e-12 1.4205525e-13          0.1 0.0090296514    99.307078   0.02985048 
number of iterations: 2212 
   28100    74.796036     3340         1797         1543 1.8146897e-12 1.4403271e-13          0.1 0.0090300619    100.65294  0.029849794 
number of iterations: 2184 
   28200    75.031697     3381         1814         1567 1.838738e-12 1.4603869e-13          0.1 0.0090304605    102.01658  0.029849128 
number of iterations: 2188 
   28300     75.29222     3425         1842         1583 1.863105e-12 1.480736e-13          0.1 0.0090308716    103.39824  0.029848441 
number of iterations: 2195 
   28400    75.572202     3466         1873         1593 1.8877949e-12 1.5013787e-13          0.1 0.0090312837    104.79816  0.029847753 
number of iterations: 2204 
   28500    75.836223     3508         1897         1611 1.912812e-12 1.522319e-13          0.1 0.0090317169    106.21656  0.029847029 
number of iterations: 2216 
   28600    76.092802     3559         1928         1631 1.9381606e-12 1.5435614e-13          0.1 0.0090321295     107.6537   0.02984634 
number of iterations: 2196 
   28700    76.345431     3612         1953         1659 1.9638451e-12 1.5651102e-13          0.1 0.0090325492    109.10982  0.029845639 
number of iterations: 2187 
   28800    76.577115     3668         1978         1690  1.98987e-12 1.5869698e-13          0.1 0.0090329526    110.58518  0.029844965 
number of iterations: 2225 
   28900    76.840961     3711         2008         1703 2.0162397e-12 1.6091448e-13          0.1 0.0090333448    112.08003  0.029844309 
number of iterations: 2204 
   29000    77.093618     3754         2029         1725 2.0429589e-12 1.6316396e-13          0.1 0.0090338059    113.59463  0.029843539 
number of iterations: 2197 
   29100    77.333837     3803         2054         1749 2.0700322e-12 1.6544588e-13          0.1 0.0090342252    115.12924  0.029842838 
number of iterations: 2226 
   29200    77.607254     3852         2077         1775 2.0974643e-12 1.6776073e-13          0.1 0.0090346949    116.68412  0.029842054 
number of iterations: 2209 
   29300    77.869287     3901         2105         1796 2.1252599e-12 1.7010897e-13          0.1 0.0090351309    118.25954  0.029841325 
number of iterations: 2257 
   29400    78.122506     3952         2129         1823 2.1534238e-12 1.7249109e-13          0.1  0.009035618    119.85577  0.029840512 
number of iterations: 2240 
   29500    78.564904     4015         2157         1858 2.1819609e-12 1.7490758e-13          0.1 0.0090360935    121.47309  0.029839717 
number of iterations: 2226 
   29600    78.805923     4077         2195         1882 2.2108762e-12 1.7735893e-13          0.1 0.0090365662    123.11178  0.029838927 
number of iterations: 2229 
   29700    79.061073     4139         2226         1913 2.2401747e-12 1.7984565e-13          0.1 0.0090370584    124.77212  0.029838105 
number of iterations: 2240 
   29800     79.34241     4195         2247         1948 2.2698615e-12 1.8236824e-13          0.1 0.0090375685    126.45439  0.029837253 
number of iterations: 2222 
   29900    79.627293     4249         2275         1974 2.2999416e-12 1.8492724e-13          0.1 0.0090380703    128.15887  0.029836415 
number of iterations: 2234 
   30000    79.901465     4312         2312         2000 2.3304204e-12 1.8752316e-13          0.1 0.0090385674    129.88588  0.029835584 
number of iterations: 2257 
   30100    80.173917     4368         2340         2028 2.361303e-12 1.9015653e-13          0.1 0.0090391145    131.63569  0.029834671 
number of iterations: 2246 
   30200    80.442982     4423         2368         2055 2.392595e-12 1.9282791e-13          0.1 0.0090396388    133.40862  0.029833795 
number of iterations: 2231 
   30300    80.702894     4478         2397         2081 2.4243015e-12 1.9553783e-13          0.1 0.0090401462    135.20497  0.029832947 
number of iterations: 2262 
   30400    80.949603     4538         2428         2110 2.4564283e-12 1.9828686e-13          0.1 0.0090406987    137.02506  0.029832024 
number of iterations: 2249 
   30500    81.209455     4605         2454         2151 2.4889808e-12 2.0107556e-13          0.1 0.0090412052    138.86918  0.029831178 
number of iterations: 2306 
   30600    81.524363     4664         2482         2182 2.5219646e-12 2.039045e-13          0.1 0.0090418386    140.73767   0.02983012 
number of iterations: 2266 
   30700    81.781448     4725         2516         2209 2.5553856e-12 2.0677428e-13          0.1 0.0090423626    142.63083  0.029829245 
number of iterations: 2244 
   30800    82.079978     4786         2541         2245 2.5892494e-12 2.0968547e-13          0.1 0.0090429174      144.549  0.029828317 
number of iterations: 2255 
   30900    82.327378     4847         2569         2278 2.623562e-12 2.1263868e-13          0.1 0.0090434763    146.49251  0.029827384 
number of iterations: 2269 
   31000    82.638136     4894         2594         2300 2.6583293e-12 2.1563451e-13          0.1 0.0090440862     148.4617  0.029826365 
number of iterations: 2279 
   31100    82.911203     4950         2627         2323 2.6935574e-12 2.1867358e-13          0.1 0.0090446654    150.45689  0.029825397 
number of iterations: 2268 
   31200    83.188521     5017         2664         2353 2.7292522e-12 2.2175652e-13          0.1 0.0090452594    152.47844  0.029824405 
number of iterations: 2292 
   31300    83.528933     5086         2703         2383 2.7654201e-12 2.2488396e-13          0.1   0.00904588    154.52668  0.029823368 
number of iterations: 2283 
   31400    83.808682     5135         2731         2404 2.8020673e-12 2.2805654e-13          0.1 0.0090464631    156.60198  0.029822394 
number of iterations: 2267 
   31500    84.088265     5209         2773         2436 2.8392001e-12 2.3127491e-13          0.1 0.0090470229     158.7047  0.029821458 
number of iterations: 2290 
   31600    84.355042     5278         2814         2464 2.8768249e-12 2.3453974e-13          0.1 0.0090476093    160.83519  0.029820478 
number of iterations: 2260 
   31700    84.622651     5353         2855         2498 2.9149484e-12 2.378517e-13          0.1  0.009048188    162.99383  0.029819511 
number of iterations: 2288 
   31800    84.883864     5432         2895         2537 2.9535771e-12 2.4121147e-13          0.1 0.0090487989    165.18098   0.02981849 
number of iterations: 2288 
   31900    85.163124     5520         2936         2584 2.9927176e-12 2.4461974e-13          0.1 0.0090494431    167.39701  0.029817414 
number of iterations: 2291 
   32000    85.450619     5597         2979         2618 3.0323769e-12 2.4807722e-13          0.1 0.0090500609    169.64233  0.029816381 
number of iterations: 2317 
   32100    85.721899     5684         3027         2657 3.0725617e-12 2.5158462e-13          0.1 0.0090507407     171.9173  0.029815245 
number of iterations: 2295 
   32200    85.995803     5768         3070         2698 3.113279e-12 2.5514265e-13          0.1 0.0090513788    174.22232  0.029814179 
number of iterations: 2298 
   32300    86.265426     5841         3107         2734 3.1545358e-12 2.5875205e-13          0.1 0.0090520383     176.5578  0.029813077 
number of iterations: 2309 
   32400    86.543334     5924         3150         2774 3.1963395e-12 2.6241356e-13          0.1 0.0090527412    178.92413  0.029811903 
number of iterations: 2311 
   32500    86.832512     5995         3181         2814 3.238697e-12 2.6612795e-13          0.1 0.0090534562     181.3217  0.029810709 
number of iterations: 2327 
   32600    87.109917     6087         3227         2860 3.2816159e-12 2.6976165e-13          0.1 0.0090541347    183.75099  0.029809575 
number of iterations: 2307 
   32700    87.399588     6168         3269         2899 3.3251035e-12 2.7347777e-13          0.1 0.0090548705     186.2124  0.029808346 
number of iterations: 2322 
   32800    87.696018     6240         3304         2936 3.3691674e-12 2.7725805e-13          0.1 0.0090556064    188.70636  0.029807116 
number of iterations: 2317 
   32900     87.97037     6333         3349         2984 3.4138152e-12 2.811869e-13          0.1 0.0090563918    191.23325  0.029805804 
number of iterations: 2361 
   33000    88.263844     6434         3391         3043 3.4590547e-12 2.8517247e-13          0.1 0.0090571587    193.79351  0.029804523 
number of iterations: 2294 
   33100    88.603093     6522         3437         3085 3.5048937e-12 2.892156e-13          0.1 0.0090578717    196.38761  0.029803331 
number of iterations: 2326 
   33200    88.885148     6608         3485         3123 3.5513401e-12 2.9331712e-13          0.1 0.0090585844    199.01597   0.02980214 
number of iterations: 2341 
   33300    89.197991     6687         3526         3161 3.598402e-12 2.9747786e-13          0.1  0.009059376    201.67906  0.029800818 
number of iterations: 2340 
   33400    89.547875     6786         3575         3211 3.6460875e-12 3.016987e-13          0.1 0.0090601248    204.37732  0.029799566 
number of iterations: 2322 
   33500    89.835067     6879         3632         3247 3.694405e-12 3.059805e-13          0.1  0.009060885    207.11123  0.029798296 
number of iterations: 2363 
   33600    90.125102     6988         3692         3296 3.7433627e-12 3.1032414e-13          0.1 0.0090616898    209.88127  0.029796951 
number of iterations: 2389 
   33700    90.418668     7082         3750         3332 3.7929692e-12 3.1473052e-13          0.1 0.0090625037     212.6879  0.029795591 
number of iterations: 2354 
   33800    90.707266     7187         3804         3383 3.8432331e-12 3.1920054e-13          0.1 0.0090633479    215.53159  0.029794181 
number of iterations: 2343 
   33900    91.040417     7281         3851         3430 3.894163e-12 3.2373514e-13          0.1 0.0090641469    218.41284  0.029792846 
number of iterations: 2350 
   34000    91.331759     7378         3901         3477 3.9457679e-12 3.2833523e-13          0.1 0.0090650015    221.33214  0.029791418 
number of iterations: 2330 
   34100    91.625429     7476         3960         3516 3.9980565e-12 3.3300178e-13          0.1 0.0090658399    224.28999  0.029790017 
number of iterations: 2347 
   34200    91.921652     7594         4022         3572 4.0510381e-12 3.3773574e-13          0.1  0.009066651    227.28693  0.029788661 
number of iterations: 2351 
   34300    92.229656     7705         4077         3628 4.1047218e-12 3.4253808e-13          0.1 0.0090675532    230.32348  0.029787153 
number of iterations: 2333 
   34400    92.553342     7814         4131         3683 4.1591169e-12 3.474098e-13          0.1 0.0090683717    233.40015  0.029785785 
number of iterations: 2370 
   34500    92.887814     7937         4193         3744 4.2142328e-12 3.523519e-13          0.1 0.0090692686    236.51745  0.029784287 
number of iterations: 2347 
   34600    93.192299     8040         4245         3795 4.2700791e-12 3.573654e-13          0.1 0.0090701585    239.67591    0.0297828 
number of iterations: 2382 
   34700    93.599933     8141         4302         3839 4.3266654e-12 3.6245134e-13          0.1 0.0090710716    242.87609  0.029781274 
number of iterations: 2410 
   34800    93.912488     8259         4359         3900 4.3840016e-12 3.6761076e-13          0.1 0.0090720918    246.11856  0.029779569 
number of iterations: 2363 
   34900     94.21832     8350         4392         3958 4.4408372e-12 3.7284471e-13          0.1 0.0090729981     249.4029  0.029778055 
number of iterations: 2367 
   35000    94.539986     8470         4452         4018 4.4996863e-12 3.781543e-13          0.1  0.009073944    252.73059  0.029776474 
Loop time of 94.54 on 32 procs for 35000 steps with 8470 atoms

Performance: 319864509.589 tau/day, 370.214 timesteps/s
92.2% CPU use with 32 MPI tasks x no OpenMP threads

MPI task timing breakdown:
Section |  min time  |  avg time  |  max time  |%varavg| %total
---------------------------------------------------------------
Pair    | 0.0060925  | 0.11284    | 0.27576    |  17.7 |  0.12
Neigh   | 0.0040595  | 0.040158   | 0.11133    |  11.1 |  0.04
Comm    | 0.029825   | 0.23921    | 0.35584    |  15.0 |  0.25
Output  | 23.1       | 23.101     | 23.107     |   0.0 | 24.44
Modify  | 70.391     | 70.469     | 70.556     |   0.5 | 74.54
Other   |            | 0.5781     |            |       |  0.61

Nlocal:    264.688 ave 578 max 21 min
Histogram: 2 3 3 6 5 6 4 1 0 2
Nghost:    176.062 ave 385 max 0 min
Histogram: 2 0 4 5 9 6 3 1 1 1
Neighs:    1168 ave 2989 max 121 min
Histogram: 3 4 6 7 4 4 2 1 0 1

Total # of neighbors = 37376
Ave neighs/atom = 4.41275
Neighbor list builds = 668
Dangerous builds = 0
Total wall time: 0:01:34
