LAMMPS (20 Nov 2019)
Reading data file ...
  orthogonal box = (0 0 0) to (0.001 0.001 0.0001)
  2 by 3 by 1 MPI processor grid
  reading atoms ...
  2 atoms
  4 nutrients
Lattice spacing in x,y,z = 100 100 100
1 atoms in group CYANO
1 atoms in group ECW
Model is defined as a closed system. 
Neighbor list info ...
  update every 1 steps, delay 0 steps, check yes
  max neighbors/atom: 5000, page size: 100000
  master list distance cutoff = 1.89e-06
  ghost atom cutoff = 1.89e-06
  binsize = 9.45e-07, bins = 1059 1059 106
  1 neighbor lists, perpetual/occasional/extra = 1 0 0
  (1) pair gran/hooke/history, perpetual
      attributes: half, newton off, size, history
      pair build: half/size/bin/newtoff
      stencil: half/bin/3d/newtoff
      bin: standard
Setting up Verlet run ...
  Unit style    : lj
  Current step  : 0
  Time step     : 10
Per MPI rank memory allocation (min/avg/max) = 84.25 | 92.35 | 108.5 Mbytes
Step CPU Atoms c_myNtypes[1] c_myNtypes[2] c_myMass[1] c_myMass[2] c_myCon[1] c_myCon[2] c_myCon[3] c_myCon[4] 
       0            0        2            1            1 5.2028912e-16 1.3941014e-16          0.1        0.009     3.42e-20       0.0299 
number of iterations: 578271 
     100    3.2859414        3            1            2 5.2906623e-16 1.3929094e-16          0.1 0.0090000007 2.9740839e-08  0.029899999 
number of iterations: 265338 
     200    4.7883886        3            1            2 5.379914e-16 1.3917185e-16          0.1 0.0090000007 1.2274215e-07  0.029899999 
number of iterations: 172173 
     300    5.8119638        3            1            2 5.4706713e-16 1.3905286e-16          0.1 0.0090000007 2.6792625e-07  0.029899999 
number of iterations: 147090 
     400    6.7104399        3            1            2 5.5629597e-16 1.3893397e-16          0.1 0.0090000007 4.3529399e-07  0.029899999 
number of iterations: 128084 
     500    7.5068142        3            1            2 5.656805e-16 1.3881518e-16          0.1 0.0090000007 6.2302776e-07  0.029899999 
number of iterations: 113083 
     600    8.2324708        3            1            2 5.7522334e-16 1.3869649e-16          0.1 0.0090000008 8.2967432e-07  0.029899999 
number of iterations: 100862 
     700    8.8600695        3            1            2 5.8492716e-16 1.3857791e-16          0.1 0.0090000008 1.0540779e-06  0.029899999 
number of iterations: 90654 
     800    9.4615121        3            1            2 5.9479469e-16 1.3845943e-16          0.1 0.0090000008 1.295317e-06  0.029899999 
number of iterations: 81956 
     900    9.9887879        3            1            2 6.0482867e-16 1.3834105e-16          0.1 0.0090000008 1.5526514e-06  0.029899999 
number of iterations: 74424 
    1000    10.907727        3            1            2 6.1503193e-16 1.3822277e-16          0.1 0.0090000008 1.8254833e-06  0.029899999 
number of iterations: 67813 
    1100    11.379935        3            1            2 6.2540731e-16 1.3810459e-16          0.1 0.0090000008 2.1133299e-06  0.029899999 
number of iterations: 61945 
    1200    11.799613        3            1            2 6.3595772e-16 1.3798652e-16          0.1 0.0090000008 2.4157993e-06  0.029899999 
number of iterations: 56688 
    1300    12.196701        3            1            2 6.4668612e-16 1.3786855e-16          0.1 0.0090000009 2.7325722e-06  0.029899999 
number of iterations: 51940 
    1400    12.591484        3            1            2 6.5759549e-16 1.3775068e-16          0.1 0.0090000009 3.0633905e-06  0.029899999 
number of iterations: 47623 
    1500    12.951953        3            1            2 6.6868891e-16 1.3763291e-16          0.1 0.0090000009 3.4080448e-06  0.029899999 
number of iterations: 43673 
    1600    13.301533        3            1            2 6.7996947e-16 1.3751524e-16          0.1 0.0090000009 3.7663704e-06  0.029899999 
number of iterations: 40040 
    1700    13.616767        3            1            2 6.9144032e-16 1.3739767e-16          0.1 0.0090000009 4.1382382e-06  0.029899999 
number of iterations: 36682 
    1800    13.912218        3            1            2 7.0310469e-16 1.3728021e-16          0.1 0.0090000009 4.5235527e-06  0.029899998 
number of iterations: 33568 
    1900    14.201293        3            1            2 7.1496583e-16 1.3716284e-16          0.1  0.009000001 4.9222391e-06  0.029899998 
number of iterations: 30667 
    2000    14.878066        3            1            2 7.2702706e-16 1.3704558e-16          0.1  0.009000001 5.3342528e-06  0.029899998 
number of iterations: 27956 
    2100    15.112759        3            1            2 7.3929177e-16 1.3692842e-16          0.1  0.009000001 5.7595686e-06  0.029899998 
number of iterations: 25415 
    2200    15.353321        3            1            2 7.5176337e-16 1.3681136e-16          0.1  0.009000001  6.19818e-06  0.029899998 
number of iterations: 23027 
    2300    15.599771        3            1            2 7.6444536e-16 1.366944e-16          0.1  0.009000001 6.6500971e-06  0.029899998 
number of iterations: 20778 
    2400    15.814626        3            1            2 7.773413e-16 1.3657754e-16          0.1  0.009000001 7.1153433e-06  0.029899998 
number of iterations: 18654 
    2500    16.023509        3            1            2 7.9045479e-16 1.3646078e-16          0.1 0.0090000011 7.5939588e-06  0.029899998 
number of iterations: 16643 
    2600    16.222303        3            1            2 8.037895e-16 1.3634412e-16          0.1 0.0090000011 8.0859989e-06  0.029899998 
number of iterations: 14738 
    2700    16.409122        3            1            2 8.1734915e-16 1.3622757e-16          0.1 0.0090000011 8.5915235e-06  0.029899998 
number of iterations: 12927 
    2800    16.590515        3            1            2 8.3113756e-16 1.3611111e-16          0.1 0.0090000011 9.1106123e-06  0.029899998 
number of iterations: 11206 
    2900    16.769808        3            1            2 8.4515857e-16 1.3599476e-16          0.1 0.0090000011 9.6433456e-06  0.029899998 
number of iterations: 9565 
    3000    17.340952        3            1            2 8.5941611e-16 1.3587851e-16          0.1 0.0090000012 1.0189822e-05  0.029899998 
number of iterations: 8000 
    3100    17.507776        3            1            2 8.7391417e-16 1.3576235e-16          0.1 0.0090000012 1.0750144e-05  0.029899998 
number of iterations: 7627 
    3200    17.678224        3            1            2 8.8865681e-16 1.356463e-16          0.1 0.0090000012 1.1324423e-05  0.029899998 
number of iterations: 7710 
    3300    17.854292        3            1            2 9.0364816e-16 1.3553035e-16          0.1 0.0090000012 1.191278e-05  0.029899998 
number of iterations: 7795 
    3400    18.014245        3            1            2 9.188924e-16 1.354145e-16          0.1 0.0090000012 1.2515346e-05  0.029899998 
number of iterations: 7880 
    3500     18.15523        3            1            2 9.343938e-16 1.3529875e-16          0.1 0.0090000013 1.3132259e-05  0.029899998 
number of iterations: 7966 
    3600    18.286052        3            1            2 9.5015671e-16 1.351831e-16          0.1 0.0090000013 1.3763659e-05  0.029899998 
number of iterations: 8052 
    3700    18.414365        3            1            2 9.6618554e-16 1.3506755e-16          0.1 0.0090000013 1.4409425e-05  0.029899998 
number of iterations: 8139 
    3800     18.54165        3            1            2 9.8248476e-16 1.349521e-16          0.1 0.0090000013 1.5066086e-05  0.029899998 
number of iterations: 8226 
    3900    18.677987        3            1            2 9.9905895e-16 1.3483675e-16          0.1 0.0090000013 1.5733823e-05  0.029899998 
number of iterations: 8314 
    4000    19.231997        3            1            2 1.0159127e-15 1.347215e-16          0.1 0.0090000014 1.6412826e-05  0.029899998 
number of iterations: 8403 
    4100    19.360889        3            1            2 1.0330508e-15 1.3460635e-16          0.1 0.0090000014 1.7103282e-05  0.029899998 
number of iterations: 8492 
    4200    19.494287        3            1            2 1.0504781e-15 1.344913e-16          0.1 0.0090000014 1.7805387e-05  0.029899998 
number of iterations: 8581 
    4300    19.632928        3            1            2 1.0681993e-15 1.3437635e-16          0.1 0.0090000014 1.8519336e-05  0.029899998 
number of iterations: 8672 
    4400    19.765966        3            1            2 1.0862194e-15 1.342615e-16          0.1 0.0090000015 1.9245329e-05  0.029899998 
number of iterations: 8762 
    4500    19.901639        3            1            2 1.1045436e-15 1.3414675e-16          0.1 0.0090000015 1.9983569e-05  0.029899998 
number of iterations: 8854 
    4600    20.035013        3            1            2 1.1231769e-15 1.340321e-16          0.1 0.0090000015 2.0734263e-05  0.029899998 
number of iterations: 8946 
    4700    20.176531        3            1            2 1.1421245e-15 1.3391754e-16          0.1 0.0090000015 2.1497621e-05  0.029899997 
number of iterations: 9038 
    4800    20.308216        3            1            2 1.1613918e-15 1.3380309e-16          0.1 0.0090000016 2.2273856e-05  0.029899997 
number of iterations: 9131 
    4900    20.450121        3            1            2 1.180984e-15 1.3368874e-16          0.1 0.0090000016 2.3063186e-05  0.029899997 
number of iterations: 9225 
    5000    21.002797        3            1            2 1.2009068e-15 1.3357449e-16          0.1 0.0090000016 2.3865832e-05  0.029899997 
number of iterations: 9319 
    5100    21.152365        3            1            2 1.2211657e-15 1.3346034e-16          0.1 0.0090000016 2.4682019e-05  0.029899997 
number of iterations: 9414 
    5200    21.300277        3            1            2 1.2417664e-15 1.3334628e-16          0.1 0.0090000017 2.5511974e-05  0.029899997 
number of iterations: 9509 
    5300    21.443416        3            1            2 1.2627146e-15 1.3323233e-16          0.1 0.0090000017 2.635593e-05  0.029899997 
number of iterations: 9605 
    5400    21.592773        3            1            2 1.2840162e-15 1.3311847e-16          0.1 0.0090000017 2.7214123e-05  0.029899997 
number of iterations: 9701 
    5500    21.735814        3            1            2 1.3056771e-15 1.3300472e-16          0.1 0.0090000018 2.8086794e-05  0.029899997 
number of iterations: 9798 
    5600    21.879392        3            1            2 1.3277034e-15 1.3289106e-16          0.1 0.0090000018 2.8974191e-05  0.029899997 
number of iterations: 9896 
    5700    22.023864        3            1            2 1.3501013e-15 1.3277751e-16          0.1 0.0090000018 2.9876558e-05  0.029899997 
number of iterations: 9993 
    5800    22.170744        3            1            2 1.3728771e-15 1.3266405e-16          0.1 0.0090000019 3.0794148e-05  0.029899997 
number of iterations: 10092 
    5900    22.315912        3            1            2 1.396037e-15 1.3255069e-16          0.1 0.0090000019 3.1727217e-05  0.029899997 
number of iterations: 10191 
    6000    22.905262        3            1            2 1.4195877e-15 1.3243743e-16          0.1 0.0090000019 3.2676026e-05  0.029899997 
number of iterations: 10291 
    6100    23.060821        3            1            2 1.4435357e-15 1.3232427e-16          0.1  0.009000002 3.3640842e-05  0.029899997 
number of iterations: 10391 
    6200    23.213082        3            1            2 1.4678877e-15 1.322112e-16          0.1  0.009000002 3.4621934e-05  0.029899997 
number of iterations: 29402 
    6300    23.542384        4            2            2 1.4926504e-15 1.3209824e-16          0.1 0.0090000019 3.5619574e-05  0.029899997 
number of iterations: 5813 
    6400    23.662091        4            2            2 1.5178309e-15 1.3198538e-16          0.1 0.0090000019 3.6634044e-05  0.029899997 
number of iterations: 7128 
    6500    23.786754        4            2            2 1.5434362e-15 1.3187261e-16          0.1  0.009000002 3.7665627e-05  0.029899997 
number of iterations: 7518 
    6600    23.910338        4            2            2 1.5694735e-15 1.3175994e-16          0.1  0.009000002 3.8714613e-05  0.029899997 
number of iterations: 8398 
    6700    24.045586        4            2            2  1.59595e-15 1.3164737e-16          0.1  0.009000002 3.9781296e-05  0.029899997 
number of iterations: 8608 
    6800    24.183926        4            2            2 1.6228731e-15 1.315349e-16          0.1  0.009000002 4.0865972e-05  0.029899997 
number of iterations: 8733 
    6900    24.316933        4            2            2 1.6502504e-15 1.3142253e-16          0.1 0.0090000021 4.1968947e-05  0.029899997 
number of iterations: 8843 
    7000    24.914858        4            2            2 1.6780896e-15 1.3131026e-16          0.1 0.0090000021 4.3090528e-05  0.029899997 
number of iterations: 8946 
    7100    25.056914        4            2            2 1.7063984e-15 1.3119808e-16          0.1 0.0090000021 4.4231031e-05  0.029899997 
number of iterations: 9047 
    7200    25.193767        4            2            2 1.7351848e-15  1.31086e-16          0.1 0.0090000022 4.5390773e-05  0.029899996 
number of iterations: 9147 
    7300    25.333659        4            2            2 1.7644568e-15 1.3097402e-16          0.1 0.0090000022 4.6570079e-05  0.029899996 
number of iterations: 9247 
    7400    25.476935        4            2            2 1.7942226e-15 1.3086214e-16          0.1 0.0090000023 4.776928e-05  0.029899996 
number of iterations: 9347 
    7500     25.62214        4            2            2 1.8244905e-15 1.3075036e-16          0.1 0.0090000023 4.8988711e-05  0.029899996 
number of iterations: 9447 
    7600    25.768185        4            2            2 1.855269e-15 1.3063868e-16          0.1 0.0090000023 5.0228714e-05  0.029899996 
number of iterations: 9548 
    7700     25.91551        4            2            2 1.8865668e-15 1.3052709e-16          0.1 0.0090000024 5.1489635e-05  0.029899996 
number of iterations: 9650 
    7800    26.071384        4            2            2 1.9183926e-15 1.304156e-16          0.1 0.0090000024 5.2771827e-05  0.029899996 
number of iterations: 9752 
    7900    26.222665        4            2            2 1.9507552e-15 1.3030421e-16          0.1 0.0090000025 5.4075649e-05  0.029899996 
number of iterations: 9855 
    8000    26.771995        4            2            2 1.9836638e-15 1.3019292e-16          0.1 0.0090000025 5.5401467e-05  0.029899996 
number of iterations: 9958 
    8100    26.918192        4            2            2 2.0171275e-15 1.3008173e-16          0.1 0.0090000025 5.674965e-05  0.029899996 
number of iterations: 10062 
    8200    27.069427        4            2            2 2.0511558e-15 1.2997063e-16          0.1 0.0090000026 5.8120577e-05  0.029899996 
number of iterations: 10167 
    8300    27.223176        4            2            2 2.0857581e-15 1.2985963e-16          0.1 0.0090000026 5.9514631e-05  0.029899996 
number of iterations: 10272 
    8400    27.369696        4            2            2 2.1209441e-15 1.2974873e-16          0.1 0.0090000027 6.0932202e-05  0.029899996 
number of iterations: 10379 
    8500    27.522198        4            2            2 2.1567237e-15 1.2963793e-16          0.1 0.0090000027 6.2373687e-05  0.029899996 
number of iterations: 10485 
    8600    27.676854        4            2            2 2.193107e-15 1.2952723e-16          0.1 0.0090000028 6.3839489e-05  0.029899995 
number of iterations: 10592 
    8700    27.836649        4            2            2 2.2301039e-15 1.2941662e-16          0.1 0.0090000028 6.5330019e-05  0.029899995 
number of iterations: 10700 
    8800    27.992512        4            2            2 2.267725e-15 1.2930611e-16          0.1 0.0090000029 6.6845694e-05  0.029899995 
number of iterations: 10809 
    8900     28.14391        4            2            2 2.3059808e-15 1.291957e-16          0.1 0.0090000029 6.8386937e-05  0.029899995 
number of iterations: 10918 
    9000    28.721354        4            2            2 2.3448819e-15 1.2908538e-16          0.1  0.009000003 6.9954181e-05  0.029899995 
number of iterations: 11028 
    9100    28.865522        4            2            2 2.3844393e-15 1.2897517e-16          0.1  0.009000003 7.1547864e-05  0.029899995 
number of iterations: 11138 
    9200    29.021045        4            2            2 2.424664e-15 1.2886505e-16          0.1 0.0090000031 7.3168431e-05  0.029899995 
number of iterations: 11249 
    9300    29.174701        4            2            2 2.4655672e-15 1.2875503e-16          0.1 0.0090000031 7.4816337e-05  0.029899995 
number of iterations: 11361 
    9400    29.335546        4            2            2 2.5071605e-15 1.286451e-16          0.1 0.0090000032 7.6492043e-05  0.029899995 
number of iterations: 11473 
    9500    29.484304        4            2            2 2.5494555e-15 1.2853528e-16          0.1 0.0090000032 7.8196017e-05  0.029899995 
number of iterations: 11586 
    9600    29.641377        4            2            2 2.592464e-15 1.2842555e-16          0.1 0.0090000033 7.9928736e-05  0.029899995 
number of iterations: 11699 
    9700    29.812076        4            2            2 2.6361979e-15 1.2831592e-16          0.1 0.0090000033 8.1690686e-05  0.029899995 
number of iterations: 11814 
    9800    29.988568        4            2            2 2.6806697e-15 1.2820638e-16          0.1 0.0090000034 8.348236e-05  0.029899994 
number of iterations: 11928 
    9900    30.172166        4            2            2 2.7258917e-15 1.2809694e-16          0.1 0.0090000034 8.5304258e-05  0.029899994 
number of iterations: 31091 
   10000    30.930825        5            3            2 2.7718766e-15 1.279876e-16          0.1 0.0090000034 8.7156888e-05  0.029899994 
number of iterations: 12007 
   10100     31.10186        5            3            2 2.8186372e-15 1.2787836e-16          0.1 0.0090000034 8.9040771e-05  0.029899994 
number of iterations: 12929 
   10200     31.28825        5            3            2 2.8661867e-15 1.2776922e-16          0.1 0.0090000035 9.0956435e-05  0.029899994 
number of iterations: 13230 
   10300    31.461814        5            3            2 2.9145383e-15 1.2766017e-16          0.1 0.0090000035 9.2904416e-05  0.029899994 
number of iterations: 13405 
   10400    31.638569        5            3            2 2.9637056e-15 1.2755122e-16          0.1 0.0090000036 9.4885258e-05  0.029899994 
number of iterations: 13540 
   10500    31.805128        5            3            2 3.0137023e-15 1.2744237e-16          0.1 0.0090000036 9.6899516e-05  0.029899994 
number of iterations: 13661 
   10600    32.002049        5            3            2 3.0645424e-15 1.2733361e-16          0.1 0.0090000037 9.8947754e-05  0.029899994 
number of iterations: 13779 
   10700    32.173463        5            3            2 3.1162402e-15 1.2722495e-16          0.1 0.0090000037 0.00010103055  0.029899994 
number of iterations: 13896 
   10800    32.358047        5            3            2 3.1688102e-15 1.2711639e-16          0.1 0.0090000038 0.00010314847  0.029899994 
number of iterations: 14012 
   10900    32.555863        6            4            2 3.2222669e-15 1.2700792e-16          0.1 0.0090000039 0.00010530213  0.029899994 
number of iterations: 14128 
   11000    33.191438        6            4            2 3.2766255e-15 1.2689956e-16          0.1 0.0090000039 0.00010749212  0.029899994 
number of iterations: 14245 
   11100    33.374544        6            4            2 3.3319011e-15 1.2679129e-16          0.1  0.009000004 0.00010971905  0.029899993 
number of iterations: 14362 
   11200    33.552995        6            4            2 3.3881091e-15 1.2668311e-16          0.1 0.0090000041 0.00011198355  0.029899993 
number of iterations: 14480 
   11300     33.73131        6            4            2 3.4452654e-15 1.2657504e-16          0.1 0.0090000041 0.00011428625  0.029899993 
number of iterations: 14598 
   11400    33.914108        6            4            2 3.5033858e-15 1.2646706e-16          0.1 0.0090000042 0.00011662779  0.029899993 
number of iterations: 14717 
   11500    34.101522        6            4            2 3.5624868e-15 1.2635918e-16          0.1 0.0090000043 0.00011900884  0.029899993 
number of iterations: 14836 
   11600    34.291175        6            4            2 3.6225847e-15 1.2625139e-16          0.1 0.0090000044 0.00012143005  0.029899993 
number of iterations: 14955 
   11700    34.474879        6            4            2 3.6836965e-15 1.261437e-16          0.1 0.0090000044 0.00012389211  0.029899993 
number of iterations: 15075 
   11800    34.653412        6            4            2 3.7458392e-15 1.2603611e-16          0.1 0.0090000045 0.00012639571  0.029899993 
number of iterations: 15195 
   11900    34.832497        6            4            2 3.8090303e-15 1.2592862e-16          0.1 0.0090000046 0.00012894154  0.029899992 
number of iterations: 15316 
   12000    35.452774        6            4            2 3.8732873e-15 1.2582122e-16          0.1 0.0090000047 0.00013153031  0.029899992 
number of iterations: 15437 
   12100    35.634416        6            4            2 3.9386284e-15 1.2571392e-16          0.1 0.0090000047 0.00013416276  0.029899992 
number of iterations: 15558 
   12200     35.81874        6            4            2 4.0050717e-15 1.2560672e-16          0.1 0.0090000048 0.00013683962  0.029899992 
number of iterations: 15680 
   12300    36.008986        6            4            2 4.0726359e-15 1.2549962e-16          0.1 0.0090000049 0.00013956163  0.029899992 
number of iterations: 15802 
   12400    36.215016        6            4            2 4.1413399e-15 1.2539261e-16          0.1  0.009000005 0.00014232956  0.029899992 
number of iterations: 15925 
   12500     36.40425        6            4            2 4.211203e-15 1.252857e-16          0.1 0.0090000051 0.00014514419  0.029899992 
number of iterations: 16048 
   12600    36.606196        6            4            2 4.2822445e-15 1.2517888e-16          0.1 0.0090000052 0.0001480063  0.029899991 
number of iterations: 16171 
   12700    36.798191        6            4            2 4.3544846e-15 1.2507216e-16          0.1 0.0090000052 0.00015091669  0.029899991 
number of iterations: 34070 
   12800     37.16216        6            4            2 4.4279433e-15 1.2496554e-16          0.1 0.0090000055 0.00015387619  0.029899991 
number of iterations: 14516 
   12900    37.354784        6            4            2 4.5026412e-15 1.2485902e-16          0.1 0.0090000056 0.0001568856  0.029899991 
number of iterations: 15289 
   13000    37.968705        6            4            2 4.5785992e-15 1.247526e-16          0.1 0.0090000057 0.00015994579  0.029899991 
number of iterations: 15595 
   13100     38.16843        6            4            2 4.6558386e-15 1.2464627e-16          0.1 0.0090000058 0.0001630576   0.02989999 
number of iterations: 15716 
   13200    38.361525        6            4            2 4.7343811e-15 1.2454003e-16          0.1 0.0090000059 0.00016622191   0.02989999 
number of iterations: 15841 
   13300    38.560109        7            5            2 4.8142485e-15 1.244339e-16          0.1  0.009000006 0.00016943959   0.02989999 
number of iterations: 15968 
   13400    38.753886        7            5            2 4.8954632e-15 1.2432786e-16          0.1 0.0090000061 0.00017271156   0.02989999 
number of iterations: 16096 
   13500    38.979999        7            5            2 4.9780481e-15 1.2422192e-16          0.1 0.0090000062 0.00017603872   0.02989999 
number of iterations: 16224 
   13600    39.184983        7            5            2 5.0620261e-15 1.2411608e-16          0.1 0.0090000063 0.00017942202   0.02989999 
number of iterations: 16353 
   13700    39.398965        7            5            2 5.1474207e-15 1.2401033e-16          0.1 0.0090000064 0.00018286238  0.029899989 
number of iterations: 16483 
   13800    39.599068        7            5            2 5.234256e-15 1.2390469e-16          0.1 0.0090000065 0.00018636079  0.029899989 
number of iterations: 16612 
   13900    39.800381        7            5            2 5.3225561e-15 1.2379913e-16          0.1 0.0090000066 0.00018991821  0.029899989 
number of iterations: 16743 
   14000    40.420543        7            5            2 5.4123459e-15 1.2369368e-16          0.1 0.0090000067 0.00019353565  0.029899989 
number of iterations: 16873 
   14100    40.636839        7            5            2 5.5036503e-15 1.2358832e-16          0.1 0.0090000069 0.00019721411  0.029899989 
number of iterations: 17005 
   14200    40.836087        7            5            2 5.596495e-15 1.2348307e-16          0.1  0.009000007 0.00020095462  0.029899988 
number of iterations: 17136 
   14300    41.037864        8            6            2 5.690906e-15 1.233779e-16          0.1 0.0090000071 0.00020475823  0.029899988 
number of iterations: 17268 
   14400    41.240291        8            6            2 5.7869097e-15 1.2327284e-16          0.1 0.0090000072 0.00020862602  0.029899988 
number of iterations: 17400 
   14500    41.455992        8            6            2 5.8845329e-15 1.2316787e-16          0.1 0.0090000073 0.00021255904  0.029899988 
number of iterations: 17533 
   14600    41.668869        8            6            2 5.983803e-15  1.23063e-16          0.1 0.0090000075 0.00021655842  0.029899988 
number of iterations: 17666 
   14700    41.867501        8            6            2 6.0847477e-15 1.2295823e-16          0.1 0.0090000076 0.00022062527  0.029899987 
number of iterations: 17800 
   14800    42.080961        8            6            2 6.1873954e-15 1.2285356e-16          0.1 0.0090000077 0.00022476072  0.029899987 
number of iterations: 17934 
   14900    42.284453        8            6            2 6.2917747e-15 1.2274898e-16          0.1 0.0090000078 0.00022896594  0.029899987 
number of iterations: 18068 
   15000    42.956431        8            6            2 6.3979148e-15 1.226445e-16          0.1  0.009000008 0.00023324209  0.029899987 
number of iterations: 18203 
   15100    43.176264        8            6            2 6.5058455e-15 1.2254012e-16          0.1 0.0090000081 0.00023759039  0.029899987 
number of iterations: 18338 
   15200    43.399204        8            6            2 6.6155969e-15 1.2243584e-16          0.1 0.0090000083 0.00024201204  0.029899986 
number of iterations: 18474 
   15300    43.626965        9            7            2 6.7271998e-15 1.2233165e-16          0.1 0.0090000084 0.00024650828  0.029899986 
number of iterations: 18610 
   15400    43.868415        9            7            2 6.8406854e-15 1.2222756e-16          0.1 0.0090000085 0.00025108037  0.029899986 
number of iterations: 18746 
   15500    44.116702        9            7            2 6.9560854e-15 1.2212357e-16          0.1 0.0090000087 0.00025572959  0.029899986 
number of iterations: 18883 
   15600    44.365803        9            7            2 7.0734322e-15 1.2201968e-16          0.1 0.0090000088 0.00026045724  0.029899985 
number of iterations: 19020 
   15700    44.672324        9            7            2 7.1927587e-15 1.2191589e-16          0.1  0.009000009 0.00026526464  0.029899985 
number of iterations: 19158 
   15800    44.955147       10            8            2 7.3140981e-15 1.2181219e-16          0.1 0.0090000091 0.00027015314  0.029899985 
number of iterations: 19295 
   15900    45.235898       10            8            2 7.4374844e-15 1.2170859e-16          0.1 0.0090000093 0.00027512411  0.029899985 
number of iterations: 19434 
   16000    45.940799       10            8            2 7.5629523e-15 1.216051e-16          0.1 0.0090000094 0.00028017894  0.029899984 
number of iterations: 19572 
   16100    46.223443       10            8            2 7.6905368e-15 1.2150169e-16          0.1 0.0090000096 0.00028531905  0.029899984 
number of iterations: 19711 
   16200    46.491869       10            8            2 7.8202735e-15 1.2139839e-16          0.1 0.0090000098 0.00029054586  0.029899984 
number of iterations: 19851 
   16300    46.751899       10            8            2 7.9521989e-15 1.2129519e-16          0.1 0.0090000099 0.00029586085  0.029899984 
number of iterations: 38535 
   16400    47.183389       10            8            2 8.0863498e-15 1.2119214e-16          0.1 0.0090000101 0.0003012655  0.029899983 
number of iterations: 15764 
   16500    47.397849       10            8            2 8.2227638e-15 1.210892e-16          0.1 0.0090000103 0.00030676133  0.029899983 
number of iterations: 19186 
   16600    47.674391       10            8            2 8.3614791e-15 1.2098636e-16          0.1 0.0090000104 0.00031234986  0.029899983 
number of iterations: 19515 
   16700    47.968707       10            8            2 8.5025344e-15 1.2088361e-16          0.1 0.0090000106 0.00031803268  0.029899982 
number of iterations: 19695 
   16800    48.240974       10            8            2 8.6459693e-15 1.2078097e-16          0.1 0.0090000108 0.00032381136  0.029899982 
number of iterations: 19850 
   16900    48.564691       10            8            2 8.7918239e-15 1.2067842e-16          0.1  0.009000011 0.00032968753  0.029899982 
number of iterations: 19999 
   17000    49.328491       11            9            2 8.940139e-15 1.2057598e-16          0.1 0.0090000112 0.00033566282  0.029899982 
number of iterations: 20148 
   17100    49.589214       11            9            2 9.0909561e-15 1.2047363e-16          0.1 0.0090000114 0.00034173892  0.029899981 
number of iterations: 20297 
   17200    49.846103       11            9            2 9.2443175e-15 1.2037139e-16          0.1 0.0090000115 0.00034791752  0.029899981 
number of iterations: 20446 
   17300     50.10405       11            9            2 9.400266e-15 1.2026924e-16          0.1 0.0090000117 0.00035420035  0.029899981 
number of iterations: 20596 
   17400     50.35029       11            9            2 9.5588453e-15 1.201672e-16          0.1 0.0090000119 0.00036058917   0.02989998 
number of iterations: 20746 
   17500    50.593035       11            9            2 9.7200998e-15 1.2006526e-16          0.1 0.0090000121 0.00036708576   0.02989998 
number of iterations: 20897 
   17600    50.848934       11            9            2 9.8840747e-15 1.1996342e-16          0.1 0.0090000123 0.00037369196   0.02989998 
number of iterations: 21048 
   17700    51.111185       12           10            2 1.0050816e-14 1.1986168e-16          0.1 0.0090000126 0.00038040959  0.029899979 
number of iterations: 21199 
   17800    51.367818       12           10            2 1.022037e-14 1.1976004e-16          0.1 0.0090000128 0.00038724055  0.029899979 
number of iterations: 35044 
   17900    51.774121       13           11            2 1.0392784e-14 1.196585e-16          0.1 0.0090000132 0.00039418675  0.029899978 
number of iterations: 21980 
   18000    52.429583       13           11            2 1.0568106e-14 1.1955706e-16          0.1 0.0090000134 0.00040125013  0.029899978 
number of iterations: 22255 
   18100    52.709834       13           11            2 1.0746387e-14 1.1945573e-16          0.1 0.0090000136 0.00040843266  0.029899977 
number of iterations: 22411 
   18200    53.014237       13           11            2 1.0927675e-14 1.1935449e-16          0.1 0.0090000138 0.00041573637  0.029899977 
number of iterations: 22564 
   18300    53.290302       13           11            2 1.1112021e-14 1.1925336e-16          0.1 0.0090000141 0.00042316328  0.029899977 
number of iterations: 22716 
   18400    53.561726       13           11            2 1.1299477e-14 1.1915233e-16          0.1 0.0090000143 0.00043071548  0.029899976 
number of iterations: 22870 
   18500     53.83698       13           11            2 1.1490095e-14 1.190514e-16          0.1 0.0090000146 0.00043839509  0.029899976 
number of iterations: 23023 
   18600    54.106375       13           11            2 1.1683929e-14 1.1895057e-16          0.1 0.0090000148 0.00044620425  0.029899975 
number of iterations: 23177 
   18700    54.366002       13           11            2 1.1881033e-14 1.1884985e-16          0.1  0.009000015 0.00045414514  0.029899975 
number of iterations: 23331 
   18800     54.63273       13           11            2 1.2081462e-14 1.1874923e-16          0.1 0.0090000153   0.00046222  0.029899975 
number of iterations: 23486 
   18900    54.896049       13           11            2 1.2285273e-14 1.1864871e-16          0.1 0.0090000156 0.00047043108  0.029899974 
number of iterations: 23641 
   19000    55.579194       13           11            2 1.2492521e-14 1.185483e-16          0.1 0.0090000158 0.00047878067  0.029899974 
number of iterations: 23797 
   19100    55.852366       14           12            2 1.2703266e-14 1.1844799e-16          0.1 0.0090000161 0.00048727112  0.029899973 
number of iterations: 23952 
   19200    56.128922       14           12            2 1.2917565e-14 1.1834778e-16          0.1 0.0090000164 0.0004959048  0.029899973 
number of iterations: 24109 
   19300     56.39894       14           12            2 1.313548e-14 1.1824767e-16          0.1 0.0090000166 0.00050468413  0.029899972 
number of iterations: 39517 
   19400     56.82722       15           13            2 1.3357072e-14 1.1814762e-16          0.1  0.009000017 0.00051361156  0.029899972 
number of iterations: 24894 
   19500    57.091476       15           13            2 1.3582401e-14 1.1804767e-16          0.1 0.0090000172 0.00052268959  0.029899971 
number of iterations: 24990 
   19600    57.366831       15           13            2 1.3811531e-14 1.1794782e-16          0.1 0.0090000175 0.00053192077  0.029899971 
number of iterations: 31058 
   19700    57.762892       16           14            2 1.4044527e-14 1.1784807e-16          0.1 0.0090000177 0.00054130767  0.029899971 
number of iterations: 41365 
   19800    58.292247       17           15            2 1.4281454e-14 1.1774849e-16          0.1  0.009000018 0.00055085293   0.02989997 
number of iterations: 46915 
   19900    58.941162       17           15            2 1.4522377e-14 1.1764911e-16          0.1 0.0090000183 0.00056055921   0.02989997 
number of iterations: 21358 
   20000    59.755721       17           15            2 1.4767365e-14 1.1754983e-16          0.1 0.0090000186 0.00057042924  0.029899969 
number of iterations: 23337 
   20100    60.068984       17           15            2 1.5016485e-14 1.1745066e-16          0.1 0.0090000189 0.00058046576  0.029899969 
number of iterations: 41305 
   20200    60.546954       18           16            2 1.5269808e-14 1.1735155e-16          0.1 0.0090000191 0.0005906716  0.029899968 
number of iterations: 23957 
   20300    60.846782       19           17            2 1.5527405e-14 1.1725255e-16          0.1 0.0090000194 0.00060104961  0.029899968 
number of iterations: 24219 
   20400    61.147241       19           17            2 1.5789347e-14 1.1715366e-16          0.1 0.0090000197 0.00061160269  0.029899967 
number of iterations: 24365 
   20500    61.447539       19           17            2 1.6055708e-14 1.1705488e-16          0.1   0.00900002 0.00062233379  0.029899967 
number of iterations: 38647 
   20600    61.851336       19           17            2 1.6326562e-14 1.1695624e-16          0.1 0.0090000204 0.00063324593  0.029899966 
number of iterations: 22848 
   20700    62.103317       19           17            2 1.6601985e-14 1.1685772e-16          0.1 0.0090000207 0.00064434215  0.029899966 
number of iterations: 24416 
   20800    62.381848       19           17            2 1.6882055e-14 1.167593e-16          0.1  0.009000021 0.00065562556  0.029899965 
number of iterations: 24641 
   20900    62.667169       19           17            2 1.716685e-14 1.1666099e-16          0.1 0.0090000214 0.00066709932  0.029899964 
number of iterations: 24801 
   21000    63.405582       19           17            2 1.7456449e-14 1.1656279e-16          0.1 0.0090000218 0.00067876664  0.029899964 
number of iterations: 24952 
   21100    63.690323       19           17            2 1.7750933e-14 1.1646471e-16          0.1 0.0090000221 0.00069063078  0.029899963 
number of iterations: 25102 
   21200    63.949417       19           17            2 1.8050386e-14 1.1636673e-16          0.1 0.0090000225 0.00070269506  0.029899963 
number of iterations: 25252 
   21300    64.232253       20           18            2 1.8354889e-14 1.1626886e-16          0.1 0.0090000229 0.00071496286  0.029899962 
number of iterations: 25403 
   21400    64.571297       20           18            2 1.866453e-14 1.161711e-16          0.1 0.0090000233 0.00072743762  0.029899961 
number of iterations: 25554 
   21500    64.853701       20           18            2 1.8979395e-14 1.1607345e-16          0.1 0.0090000237 0.00074012283  0.029899961 
number of iterations: 35144 
   21600    65.208776       21           19            2 1.9299571e-14 1.1597591e-16          0.1 0.0090000242 0.00075302203   0.02989996 
number of iterations: 43406 
   21700     65.67927       21           19            2 1.9625148e-14 1.1587858e-16          0.1 0.0090000247 0.00076613883  0.029899959 
number of iterations: 23246 
   21800    65.949405       21           19            2 1.9956217e-14 1.1578136e-16          0.1  0.009000025 0.00077947691  0.029899958 
number of iterations: 25486 
   21900    66.252755       21           19            2 2.0292872e-14 1.1568425e-16          0.1 0.0090000255   0.00079304  0.029899958 
number of iterations: 25737 
   22000    66.990244       22           20            2 2.0635206e-14 1.1558726e-16          0.1 0.0090000259 0.0008068319  0.029899957 
number of iterations: 25911 
   22100    67.300001       23           21            2 2.0983315e-14 1.1549038e-16          0.1 0.0090000263 0.00082085646  0.029899956 
number of iterations: 38749 
   22200     67.76585       23           21            2 2.1337296e-14 1.1539358e-16          0.1 0.0090000268 0.00083511761  0.029899955 
number of iterations: 26566 
   22300    68.088638       23           21            2 2.1697249e-14 1.1529689e-16          0.1 0.0090000272 0.00084961934  0.029899955 
number of iterations: 26706 
   22400    68.384606       23           21            2 2.2063275e-14 1.1520031e-16          0.1 0.0090000277 0.00086436571  0.029899954 
number of iterations: 26863 
   22500    68.686223       23           21            2 2.2435475e-14 1.1510385e-16          0.1 0.0090000281 0.00087936084  0.029899953 
number of iterations: 27028 
   22600    68.977021       23           21            2 2.2813953e-14 1.150075e-16          0.1 0.0090000286 0.00089460894  0.029899952 
number of iterations: 27194 
   22700    69.305421       23           21            2 2.3198817e-14 1.1491127e-16          0.1 0.0090000291 0.00091011427  0.029899952 
number of iterations: 27360 
   22800    69.616405       24           22            2 2.3590173e-14 1.1481516e-16          0.1 0.0090000296 0.00092588117  0.029899951 
number of iterations: 27527 
   22900    69.977009       25           23            2 2.3988132e-14 1.1471916e-16          0.1 0.0090000301 0.00094191405   0.02989995 
number of iterations: 27694 
   23000    70.720007       25           23            2 2.4392803e-14 1.1462328e-16          0.1 0.0090000306 0.0009582174  0.029899949 
number of iterations: 27862 
   23100    71.020738       26           24            2 2.4804302e-14 1.1452752e-16          0.1 0.0090000311 0.00097479578  0.029899948 
number of iterations: 38109 
   23200    71.434902       27           25            2 2.5222742e-14 1.1443188e-16          0.1 0.0090000319 0.00099165384  0.029899947 
number of iterations: 27648 
   23300     71.74782       27           25            2 2.5648241e-14 1.1433636e-16          0.1 0.0090000325 0.0010087963  0.029899946 
number of iterations: 28351 
   23400    72.042459       28           26            2 2.6080918e-14 1.1424096e-16          0.1  0.009000033 0.0010262279  0.029899945 
number of iterations: 29118 
   23500    72.364725       29           27            2 2.6520894e-14 1.1414567e-16          0.1 0.0090000335 0.0010439536  0.029899944 
number of iterations: 28660 
   23600    72.735871       30           28            2 2.6968293e-14 1.1405051e-16          0.1  0.009000034 0.0010619783  0.029899943 
number of iterations: 28872 
   23700     73.06117       30           28            2 2.7423239e-14 1.1395547e-16          0.1 0.0090000346 0.0010803071  0.029899943 
number of iterations: 29043 
   23800    73.397924       30           28            2 2.7885859e-14 1.1386055e-16          0.1 0.0090000352 0.0010989451  0.029899942 
number of iterations: 29213 
   23900    73.724162       30           28            2 2.8356284e-14 1.1376575e-16          0.1 0.0090000358 0.0011178976  0.029899941 
number of iterations: 29383 
   24000    74.453452       31           29            2 2.8834645e-14 1.1367108e-16          0.1 0.0090000364 0.0011371697   0.02989994 
number of iterations: 29554 
   24100    74.827196       31           29            2 2.9321076e-14 1.1357653e-16          0.1  0.009000037 0.0011567669  0.029899939 
number of iterations: 29725 
   24200    75.170051       31           29            2 2.9815713e-14 1.134821e-16          0.1 0.0090000376 0.0011766948  0.029899937 
number of iterations: 29896 
   24300    75.535576       32           30            2 3.0318694e-14 1.133878e-16          0.1 0.0090000383 0.0011969588  0.029899936 
number of iterations: 39084 
   24400    76.153293       33           31            2 3.083016e-14 1.1329362e-16          0.1  0.009000039 0.0012175647  0.029899935 
number of iterations: 35453 
   24500    76.571044       34           32            2 3.1350254e-14 1.1319957e-16          0.1 0.0090000398 0.0012385182  0.029899934 
number of iterations: 31928 
   24600    76.940706       35           33            2 3.1879122e-14 1.1310564e-16          0.1 0.0090000403 0.0012598251  0.029899933 
number of iterations: 35680 
   24700     77.38203       35           33            2 3.2416912e-14 1.1301184e-16          0.1 0.0090000411 0.0012814915  0.029899932 
number of iterations: 30762 
   24800    77.735485       35           33            2 3.2963774e-14 1.1291817e-16          0.1 0.0090000418 0.0013035235   0.02989993 
number of iterations: 37770 
   24900    78.217816       36           34            2 3.3519862e-14 1.1282463e-16          0.1 0.0090000427  0.001325927  0.029899929 
number of iterations: 31484 
   25000    79.118373       36           34            2 3.4085331e-14 1.1273121e-16          0.1 0.0090000434 0.0013487086  0.029899928 
number of iterations: 40159 
   25100    79.552983       36           34            2 3.4660339e-14 1.1263793e-16          0.1 0.0090000444 0.0013718744  0.029899926 
number of iterations: 32078 
   25200    79.899771       36           34            2 3.5245047e-14 1.1254477e-16          0.1 0.0090000451 0.0013954311  0.029899925 
number of iterations: 32291 
   25300     80.23921       36           34            2 3.5839619e-14 1.1245175e-16          0.1 0.0090000459 0.0014193851  0.029899924 
number of iterations: 32464 
   25400     80.61544       37           35            2 3.6444221e-14 1.1235885e-16          0.1 0.0090000467 0.0014437432  0.029899922 
number of iterations: 47458 
   25500    81.141304       40           38            2 3.7059023e-14 1.1226604e-16          0.1 0.0090000476 0.0014685123  0.029899921 
number of iterations: 39973 
   25600    81.642264       40           38            2 3.7684196e-14 1.1217341e-16          0.1 0.0090000482 0.0014936992   0.02989992 
number of iterations: 32087 
   25700    82.005606       40           38            2 3.8319915e-14 1.1208092e-16          0.1  0.009000049  0.001519311  0.029899919 
number of iterations: 35317 
   25800     82.41088       40           38            2 3.8966359e-14 1.1198856e-16          0.1 0.0090000497 0.0015453548  0.029899917 
number of iterations: 32903 
   25900    82.802707       40           38            2 3.9623708e-14 1.1189634e-16          0.1 0.0090000505  0.001571838  0.029899916 
number of iterations: 33492 
   26000    83.637662       40           38            2 4.0292147e-14 1.1180425e-16          0.1 0.0090000513  0.001598768  0.029899915 
number of iterations: 33676 
   26100    84.029921       40           38            2 4.0971862e-14 1.117123e-16          0.1 0.0090000522 0.0016261522  0.029899913 
number of iterations: 33852 
   26200    84.464524       41           39            2 4.1663043e-14 1.1162049e-16          0.1 0.0090000531 0.0016539985  0.029899912 
number of iterations: 35984 
   26300     84.96058       41           39            2 4.2365884e-14 1.1152882e-16          0.1 0.0090000538 0.0016823144   0.02989991 
number of iterations: 33655 
   26400    85.612602       41           39            2 4.3080583e-14 1.1143729e-16          0.1 0.0090000547 0.0017111081  0.029899909 
number of iterations: 34220 
   26500    86.069727       41           39            2 4.3807337e-14 1.1134589e-16          0.1 0.0090000556 0.0017403875  0.029899908 
number of iterations: 45213 
   26600    86.650668       44           42            2 4.4546352e-14 1.1125459e-16          0.1 0.0090000566 0.0017701608  0.029899906 
number of iterations: 41457 
   26700     87.19653       45           43            2 4.5297834e-14 1.1116348e-16          0.1 0.0090000575 0.0018004364  0.029899904 
number of iterations: 37629 
   26800    87.716883       48           46            2 4.6061993e-14 1.1107252e-16          0.1 0.0090000584 0.0018312227  0.029899903 
number of iterations: 34097 
   26900    88.200254       49           47            2 4.6839043e-14 1.1098169e-16          0.1 0.0090000593 0.0018625284  0.029899901 
number of iterations: 39430 
   27000    89.120562       50           48            2 4.7629202e-14 1.1089106e-16          0.1 0.0090000605 0.0018943622  0.029899899 
number of iterations: 36287 
   27100    89.576978       52           50            2 4.843269e-14 1.1080058e-16          0.1 0.0090000614  0.001926733  0.029899898 
number of iterations: 34682 
   27200    89.982782       52           50            2 4.9249733e-14 1.1071025e-16          0.1 0.0090000624   0.00195965  0.029899896 
number of iterations: 35208 
   27300    90.396413       52           50            2 5.0080559e-14 1.1062006e-16          0.1 0.0090000634 0.0019931222  0.029899895 
number of iterations: 35394 
   27400     90.82461       52           50            2 5.0925401e-14 1.1053002e-16          0.1 0.0090000645  0.002027159  0.029899893 
number of iterations: 48072 
   27500    91.351838       54           52            2 5.1784495e-14 1.1044009e-16          0.1 0.0090000658 0.0020617701  0.029899891 
number of iterations: 36184 
   27600    91.770879       55           53            2 5.2658082e-14 1.1035031e-16          0.1 0.0090000669  0.002096965  0.029899889 
number of iterations: 37202 
   27700    92.204636       56           54            2 5.3546406e-14 1.1026068e-16          0.1 0.0090000679 0.0021327537  0.029899887 
number of iterations: 36154 
   27800     92.64128       57           55            2 5.4449715e-14 1.101712e-16          0.1  0.009000069 0.0021691461  0.029899885 
number of iterations: 36574 
   27900     93.12293       57           55            2 5.5368263e-14 1.1008188e-16          0.1 0.0090000702 0.0022061525  0.029899883 
number of iterations: 36759 
   28000    94.025956       59           57            2 5.6302307e-14 1.0999271e-16          0.1 0.0090000713 0.0022437831  0.029899881 
number of iterations: 36940 
   28100    94.506156       59           57            2 5.7252108e-14 1.099037e-16          0.1 0.0090000725 0.0022820485  0.029899879 
number of iterations: 37120 
   28200      94.9169       59           57            2 5.8217931e-14 1.0981485e-16          0.1 0.0090000738 0.0023209595  0.029899877 
number of iterations: 37302 
   28300    95.426832       60           58            2 5.9200048e-14 1.0972615e-16          0.1  0.009000075 0.0023605269  0.029899875 
number of iterations: 45228 
   28400    96.054034       61           59            2 6.0198732e-14 1.0963766e-16          0.1 0.0090000765 0.0024007617  0.029899873 
number of iterations: 36920 
   28500    96.534733       63           61            2 6.1214264e-14 1.0954933e-16          0.1 0.0090000778 0.0024416753  0.029899871 
number of iterations: 37627 
   28600    97.014258       64           62            2 6.2246928e-14 1.0946116e-16          0.1 0.0090000791 0.0024832791  0.029899868 
number of iterations: 37820 
   28700    97.506928       65           63            2 6.3297012e-14 1.0937315e-16          0.1 0.0090000804 0.0025255848  0.029899866 
number of iterations: 46784 
   28800    98.122298       67           65            2 6.4364811e-14 1.0928542e-16          0.1 0.0090000818 0.0025686041  0.029899864 
number of iterations: 37171 
   28900    98.653029       68           66            2 6.5450624e-14 1.0919786e-16          0.1 0.0090000831 0.0026123492  0.029899862 
number of iterations: 38048 
   29000    99.535025       68           66            2 6.6554753e-14 1.0911047e-16          0.1 0.0090000845 0.0026568322  0.029899859 
number of iterations: 38245 
   29100    99.964921       68           66            2 6.7677509e-14 1.0902324e-16          0.1 0.0090000859 0.0027020657  0.029899857 
number of iterations: 38429 
   29200    100.39384       69           67            2 6.8819205e-14 1.089362e-16          0.1 0.0090000874 0.0027480622  0.029899855 
number of iterations: 38611 
   29300    100.88493       70           68            2 6.9980162e-14 1.0884932e-16          0.1 0.0090000889 0.0027948346  0.029899852 
number of iterations: 41963 
   29400    101.36089       72           70            2 7.1160703e-14 1.0876262e-16          0.1 0.0090000905 0.0028423961  0.029899849 
number of iterations: 39585 
   29500     101.8193       73           71            2 7.236116e-14 1.086761e-16          0.1 0.0090000922 0.0028907599  0.029899847 
number of iterations: 46686 
   29600    102.31867       74           72            2 7.3581867e-14 1.0858975e-16          0.1 0.0090000942 0.0029399397  0.029899843 
number of iterations: 39588 
   29700    102.74797       74           72            2 7.4823168e-14 1.0850359e-16          0.1 0.0090000958  0.002989949  0.029899841 
number of iterations: 39781 
   29800    103.20052       75           73            2 7.6085409e-14 1.084176e-16          0.1 0.0090000974  0.003040802  0.029899838 
number of iterations: 39964 
   29900    103.60707       77           75            2 7.7368944e-14 1.083318e-16          0.1 0.0090000991 0.0030925129  0.029899835 
number of iterations: 45944 
   30000    104.51307       78           76            2 7.8674131e-14 1.0824614e-16          0.1 0.0090001008 0.0031450962  0.029899832 
number of iterations: 41146 
   30100    104.94056       78           76            2 8.0001337e-14 1.0816071e-16          0.1 0.0090001023 0.0031985664   0.02989983 
number of iterations: 39960 
   30200    105.34299       79           77            2 8.1350932e-14 1.0807547e-16          0.1 0.0090001039 0.0032529388  0.029899827 
number of iterations: 40595 
   30300    105.77355       80           78            2 8.2723294e-14 1.0799042e-16          0.1 0.0090001057 0.0033082283  0.029899824 
number of iterations: 40788 
   30400    106.24776       80           78            2 8.4118807e-14 1.0790556e-16          0.1 0.0090001073 0.0033644506  0.029899821 
number of iterations: 40974 
   30500     106.6811       82           80            2 8.5537863e-14 1.0782089e-16          0.1 0.0090001091 0.0034216213  0.029899818 
number of iterations: 40451 
   30600    107.10402       85           83            2 8.6980857e-14 1.0773642e-16          0.1 0.0090001108 0.0034797564  0.029899816 
number of iterations: 46697 
   30700     107.5931       88           86            2 8.8448194e-14 1.0765209e-16          0.1 0.0090001124 0.0035388723  0.029899813 
number of iterations: 41491 
   30800       108.14       92           90            2 8.9940284e-14 1.0756796e-16          0.1 0.0090001143 0.0035989855   0.02989981 
number of iterations: 41060 
   30900    108.65716       93           91            2 9.1457546e-14 1.0748403e-16          0.1  0.009000116 0.0036601127  0.029899807 
number of iterations: 45562 
   31000    109.62267       97           95            2 9.3000403e-14 1.0740036e-16          0.1 0.0090001182 0.0037222711  0.029899803 
number of iterations: 41564 
   31100    110.11968       98           96            2 9.4569288e-14 1.0731689e-16          0.1 0.0090001202 0.0037854781    0.0298998 
number of iterations: 42064 
   31200    110.56644       99           97            2 9.6164639e-14 1.0723363e-16          0.1 0.0090001222 0.0038497514  0.029899797 
number of iterations: 42257 
   31300     111.0845      100           98            2 9.7786903e-14 1.0715058e-16          0.1 0.0090001242  0.003915109  0.029899793 
number of iterations: 42445 
   31400    111.54443      100           98            2 9.9436534e-14 1.0706774e-16          0.1 0.0090001263 0.0039815691   0.02989979 
number of iterations: 42633 
   31500    112.02781      101           99            2 1.0111399e-13 1.0698511e-16          0.1 0.0090001285 0.0040491504  0.029899786 
number of iterations: 46077 
   31600     112.5403      105          103            2 1.0281975e-13 1.0690265e-16          0.1 0.0090001305 0.0041178717  0.029899783 
number of iterations: 43043 
   31700    113.12747      107          105            2 1.0455429e-13 1.0682042e-16          0.1 0.0090001327 0.0041877524  0.029899779 
number of iterations: 43236 
   31800    113.65586      108          106            2 1.0631808e-13 1.067384e-16          0.1  0.009000135 0.0042588119  0.029899775 
number of iterations: 45514 
   31900    114.14157      110          108            2 1.0811163e-13 1.0665665e-16          0.1 0.0090001373 0.0043310701  0.029899772 
number of iterations: 45520 
   32000    115.04653      112          110            2 1.0993543e-13 1.0657512e-16          0.1 0.0090001397 0.0044045474  0.029899768 
number of iterations: 43680 
   32100    115.54493      113          111            2 1.1179001e-13 1.0649382e-16          0.1  0.009000142 0.0044792641  0.029899764 
number of iterations: 43879 
   32200    116.00098      114          112            2 1.1367587e-13 1.0641275e-16          0.1 0.0090001444 0.0045552413   0.02989976 
number of iterations: 51004 
   32300    116.57925      115          113            2 1.1559354e-13 1.0633186e-16          0.1 0.0090001469 0.0046325003  0.029899755 
number of iterations: 44434 
   32400    117.07625      116          114            2 1.1754356e-13 1.0625119e-16          0.1 0.0090001494 0.0047110625  0.029899751 
number of iterations: 44606 
   32500    117.55565      116          114            2 1.1952648e-13 1.0617076e-16          0.1 0.0090001519 0.0047909501  0.029899747 
number of iterations: 44796 
   32600    118.05096      119          117            2 1.2154285e-13 1.0609057e-16          0.1 0.0090001543 0.0048721853  0.029899743 
number of iterations: 43719 
   32700    118.55739      122          120            2 1.2359323e-13 1.0601067e-16          0.1 0.0090001569  0.004954791  0.029899739 
number of iterations: 54242 
   32800    119.14183      124          122            2 1.2567821e-13 1.0593092e-16          0.1 0.0090001596 0.0050387902  0.029899734 
number of iterations: 45353 
   32900    119.61053      128          126            2 1.2779836e-13 1.0585145e-16          0.1 0.0090001622 0.0051242064   0.02989973 
number of iterations: 45368 
   33000    120.50823      129          127            2 1.2995427e-13 1.0577223e-16          0.1  0.009000165 0.0052110635  0.029899725 
number of iterations: 45748 
   33100    120.96734      132          130            2 1.3214655e-13 1.0569327e-16          0.1 0.0090001678 0.0052993859  0.029899721 
number of iterations: 44465 
   33200    121.50529      135          133            2 1.3437582e-13 1.0561455e-16          0.1 0.0090001704 0.0053891983  0.029899716 
number of iterations: 46058 
   33300    122.03974      136          134            2 1.3664269e-13 1.0553609e-16          0.1 0.0090001733 0.0054805258  0.029899712 
number of iterations: 48257 
   33400    122.58837      140          138            2 1.3894781e-13 1.0545789e-16          0.1 0.0090001764 0.0055733939  0.029899707 
number of iterations: 46195 
   33500    123.20971      142          140            2 1.4129181e-13 1.0537995e-16          0.1 0.0090001795 0.0056678287  0.029899701 
number of iterations: 44347 
   33600    123.79531      142          140            2 1.4367535e-13 1.0530229e-16          0.1 0.0090001826 0.0057638565  0.029899696 
number of iterations: 44779 
   33700    124.38399      144          142            2 1.460991e-13 1.0522493e-16          0.1 0.0090001855 0.0058615044  0.029899691 
number of iterations: 45328 
   33800    124.94649      147          145            2 1.4856374e-13 1.0514784e-16          0.1 0.0090001884 0.0059607995  0.029899686 
number of iterations: 52948 
   33900    125.63607      149          147            2 1.5106996e-13 1.0507098e-16          0.1 0.0090001915 0.0060617696  0.029899681 
number of iterations: 47385 
   34000    126.58559      152          150            2 1.5361846e-13 1.0499438e-16          0.1 0.0090001947 0.0061644431  0.029899676 
number of iterations: 47567 
   34100    127.18214      154          152            2 1.5620995e-13 1.0491807e-16          0.1  0.009000198 0.0062688487  0.029899671 
number of iterations: 54867 
   34200    127.78769      158          156            2 1.5884515e-13 1.0484199e-16          0.1 0.0090002019 0.0063750155  0.029899664 
number of iterations: 49717 
   34300    128.33759      161          159            2 1.6152481e-13 1.0476621e-16          0.1 0.0090002054 0.0064829734  0.029899658 
number of iterations: 46900 
   34400    128.85962      162          160            2 1.6424968e-13 1.0469078e-16          0.1 0.0090002089 0.0065927525  0.029899652 
number of iterations: 48302 
   34500    129.44121      165          163            2 1.6702051e-13 1.0461565e-16          0.1 0.0090002122 0.0067043834  0.029899647 
number of iterations: 47442 
   34600    130.00562      168          166            2 1.6983809e-13 1.0454087e-16          0.1  0.009000216 0.0068178976  0.029899641 
number of iterations: 48680 
   34700    130.55238      173          171            2 1.727032e-13 1.0446638e-16          0.1 0.0090002196 0.0069333267  0.029899635 
number of iterations: 51400 
   34800    131.09797      178          176            2 1.7561664e-13 1.043922e-16          0.1 0.0090002236 0.0070507031  0.029899628 
number of iterations: 44052 
   34900    131.61524      180          178            2 1.7857923e-13 1.0431837e-16          0.1 0.0090002271 0.0071700595  0.029899622 
number of iterations: 46409 
   35000     132.4665      183          181            2 1.815918e-13 1.042449e-16          0.1  0.009000231 0.0072914295  0.029899616 
Loop time of 132.467 on 6 procs for 35000 steps with 183 atoms

Performance: 228284052.711 tau/day, 264.218 timesteps/s
94.3% CPU use with 6 MPI tasks x no OpenMP threads

MPI task timing breakdown:
Section |  min time  |  avg time  |  max time  |%varavg| %total
---------------------------------------------------------------
Pair    | 0.024268   | 0.03242    | 0.058253   |   7.0 |  0.02
Neigh   | 13.838     | 15.535     | 17.369     |  33.9 | 11.73
Comm    | 14.971     | 14.999     | 15.055     |   1.0 | 11.32
Output  | 10.917     | 10.918     | 10.919     |   0.0 |  8.24
Modify  | 88.815     | 90.411     | 91.888     |  12.2 | 68.25
Other   |            | 0.5716     |            |       |  0.43

Nlocal:    30.5 ave 125 max 0 min
Histogram: 4 0 0 0 1 0 0 0 0 1
Nghost:    13 ave 41 max 0 min
Histogram: 4 0 0 0 0 0 0 0 0 2
Neighs:    110.667 ave 460 max 0 min
Histogram: 4 0 0 0 1 0 0 0 0 1

Total # of neighbors = 664
Ave neighs/atom = 3.62842
Neighbor list builds = 404
Dangerous builds = 0
Total wall time: 0:02:13
