LAMMPS (20 Nov 2019)
Reading data file ...
  orthogonal box = (0 0 0) to (0.0001 0.0001 0.0001)
  2 by 4 by 4 MPI processor grid
  reading atoms ...
  100 atoms
  4 nutrients
Lattice spacing in x,y,z = 100 100 100
100 atoms in group CYANO
0 atoms in group ECW
Model is defined as a closed system. 
Neighbor list info ...
  update every 1 steps, delay 0 steps, check yes
  max neighbors/atom: 5000, page size: 100000
  master list distance cutoff = 2.42e-06
  ghost atom cutoff = 2.42e-06
  binsize = 1.21e-06, bins = 83 83 83
  1 neighbor lists, perpetual/occasional/extra = 1 0 0
  (1) pair gran/hooke/history, perpetual
      attributes: half, newton off, size, history
      pair build: half/size/bin/newtoff
      stencil: half/bin/3d/newtoff
      bin: standard
Setting up Verlet run ...
  Unit style    : lj
  Current step  : 0
  Time step     : 10
Per MPI rank memory allocation (min/avg/max) = 5.856 | 9.747 | 10.91 Mbytes
Step CPU Atoms c_myNtypes[1] c_myNtypes[2] c_myMass[1] c_myMass[2] c_myCon[1] c_myCon[2] c_myCon[3] c_myCon[4] 
       0            0      100          100            0 8.1855097e-14            0          0.1        0.009     3.42e-20       0.0299 
number of iterations: 120282 
     100    1.3034948      100          100            0 8.3279866e-14            0          0.1 0.0090009115 1.3614712e-05  0.029898482 
number of iterations: 105674 
     200    2.3934083      100          100            0 8.4729435e-14            0          0.1 0.0090009274 3.525905e-05  0.029898456 
number of iterations: 93872 
     300    3.3698636      100          100            0 8.6204234e-14            0          0.1 0.0090009435 6.9084444e-05  0.029898429 
number of iterations: 83339 
     400    4.2434495      100          100            0 8.7704704e-14            0          0.1   0.00900096 0.00012153404  0.029898402 
number of iterations: 73780 
     500    5.0359055      101          101            0 8.9231292e-14            0          0.1 0.0090009767 0.00020151738  0.029898374 
number of iterations: 64514 
     600    5.7302244      102          102            0 9.0784451e-14            0          0.1 0.0090009937 0.00032372387  0.029898346 
number of iterations: 55363 
     700    6.3678139      103          103            0 9.2364644e-14            0          0.1  0.009001011 0.00051138952  0.029898317 
number of iterations: 46156 
     800    6.8896542      105          105            0 9.3972342e-14            0          0.1 0.0090010286 0.00080267678  0.029898287 
number of iterations: 36647 
     900    7.3231037      106          106            0 9.5608023e-14            0          0.1 0.0090010465 0.0012652015  0.029898258 
number of iterations: 26321 
    1000    7.6603217      108          108            0 9.7272176e-14            0          0.1 0.0090010647 0.0020402918  0.029898227 
number of iterations: 16744 
    1100    7.9039435      109          109            0 9.8965294e-14            0          0.1 0.0090010832 0.0033348046  0.029898196 
number of iterations: 14909 
    1200    8.1254279      111          111            0 1.0068788e-13            0          0.1 0.0090011019 0.0049379205  0.029898165 
number of iterations: 15071 
    1300    8.3428207      112          112            0 1.0244046e-13            0          0.1 0.0090011211 0.0068081648  0.029898133 
number of iterations: 14754 
    1400     8.552329      113          113            0 1.0422353e-13            0          0.1 0.0090011407 0.0089527422  0.029898101 
number of iterations: 15178 
    1500    8.7644795      115          115            0 1.0603765e-13            0          0.1 0.0090011606  0.011389222  0.029898068 
number of iterations: 15234 
    1600    8.9751494      117          117            0 1.0788334e-13            0          0.1 0.0090011808  0.014073127  0.029898034 
number of iterations: 15290 
    1700    9.1823094      120          120            0 1.0976115e-13            0          0.1 0.0090012013  0.016979623     0.029898 
number of iterations: 15346 
    1800    9.4152417      121          121            0 1.1167165e-13            0          0.1 0.0090012222   0.02010859  0.029897965 
number of iterations: 15403 
    1900    9.6243407      121          121            0 1.1361541e-13            0          0.1 0.0090012435  0.023462267   0.02989793 
number of iterations: 15459 
    2000    9.8296906      121          121            0  1.15593e-13            0          0.1 0.0090012651  0.027043315  0.029897894 
number of iterations: 15515 
    2100     10.03509      122          122            0 1.1760501e-13            0          0.1 0.0090012876  0.030860902  0.029897856 
number of iterations: 15572 
    2200    10.237886      126          126            0 1.1965204e-13            0          0.1   0.00900131  0.034915614  0.029897819 
number of iterations: 15628 
    2300    10.443387      127          127            0 1.217347e-13            0          0.1 0.0090013328  0.039212983  0.029897781 
number of iterations: 15684 
    2400    10.650901      129          129            0 1.2385361e-13            0          0.1  0.009001356  0.043759473  0.029897742 
number of iterations: 15740 
    2500     10.85375      130          130            0 1.2600941e-13            0          0.1 0.0090013796  0.048561388  0.029897703 
number of iterations: 15797 
    2600    11.056246      130          130            0 1.2820273e-13            0          0.1 0.0090014037  0.053626525  0.029897663 
number of iterations: 15853 
    2700    11.262804      132          132            0 1.3043422e-13            0          0.1 0.0090014281  0.058961984  0.029897622 
number of iterations: 15909 
    2800    11.468254      133          133            0 1.3270456e-13            0          0.1 0.0090014529  0.064576589  0.029897581 
number of iterations: 15966 
    2900    11.673251      136          136            0 1.3501441e-13            0          0.1 0.0090014782  0.070478107  0.029897539 
number of iterations: 16022 
    3000    11.877533      136          136            0 1.3736447e-13            0          0.1  0.009001504  0.076674936  0.029897496 
number of iterations: 16078 
    3100    12.082911      136          136            0 1.3975544e-13            0          0.1 0.0090015301  0.083107534  0.029897452 
number of iterations: 16134 
    3200     12.28838      138          138            0 1.4218802e-13            0          0.1 0.0090015568  0.089754097  0.029897408 
number of iterations: 16191 
    3300    12.496646      138          138            0 1.4466294e-13            0          0.1 0.0090015839  0.096616515  0.029897363 
number of iterations: 18664 
    3400    12.731386      140          140            0 1.4718094e-13            0          0.1 0.0090016198    0.1037026  0.029897303 
number of iterations: 16364 
    3500    12.940552      142          142            0 1.4974277e-13            0          0.1  0.009001648   0.11100897  0.029897256 
number of iterations: 16421 
    3600    13.151391      145          145            0 1.5234919e-13            0          0.1 0.0090016767   0.11853733  0.029897208 
number of iterations: 16477 
    3700    13.357425      146          146            0 1.5500098e-13            0          0.1 0.0090017059   0.12629157   0.02989716 
number of iterations: 16533 
    3800    13.565725      149          149            0 1.5769892e-13            0          0.1 0.0090017356   0.13427403   0.02989711 
number of iterations: 16590 
    3900    13.775186      149          149            0 1.6044383e-13            0          0.1 0.0090017658   0.14248673   0.02989706 
number of iterations: 16646 
    4000    13.988372      152          152            0 1.6323651e-13            0          0.1 0.0090017966   0.15093426  0.029897009 
number of iterations: 16702 
    4100    14.198175      153          153            0 1.660778e-13            0          0.1 0.0090018278   0.15961961  0.029896957 
number of iterations: 16758 
    4200    14.409193      155          155            0 1.6896855e-13            0          0.1 0.0090018596   0.16854556  0.029896904 
number of iterations: 16815 
    4300    14.620492      155          155            0 1.7190962e-13            0          0.1  0.009001892   0.17771626   0.02989685 
number of iterations: 16871 
    4400    14.833275      156          156            0 1.7490187e-13            0          0.1 0.0090019249   0.18713577  0.029896795 
number of iterations: 17341 
    4500    15.050463      166          166            0 1.7794621e-13            0          0.1 0.0090019614    0.1968039  0.029896734 
number of iterations: 16991 
    4600    15.265071      170          170            0 1.8104354e-13            0          0.1 0.0090019955   0.20672873  0.029896677 
number of iterations: 17047 
    4700     15.47942      177          177            0 1.8419478e-13            0          0.1 0.0090020302   0.21691397   0.02989662 
number of iterations: 16306 
    4800    15.685469      180          180            0 1.8740087e-13            0          0.1 0.0090020654   0.22736325  0.029896561 
number of iterations: 16957 
    4900    15.898435      183          183            0 1.9066277e-13            0          0.1 0.0090020987   0.23808406  0.029896505 
number of iterations: 17200 
    5000    16.114129      187          187            0 1.9398144e-13            0          0.1 0.0090021353   0.24907748  0.029896445 
number of iterations: 17691 
    5100    16.364856      191          191            0 1.9735788e-13            0          0.1 0.0090021745   0.26034673  0.029896379 
number of iterations: 17878 
    5200    16.596594      197          197            0 2.0079309e-13            0          0.1 0.0090022195   0.27213515  0.029896304 
number of iterations: 17387 
    5300    16.817133      203          203            0 2.0428809e-13            0          0.1 0.0090022582   0.28420506   0.02989624 
number of iterations: 17032 
    5400    17.033666      210          210            0 2.0784392e-13            0          0.1 0.0090022962   0.29664052  0.029896177 
number of iterations: 17493 
    5500     17.25216      217          217            0 2.1146165e-13            0          0.1 0.0090023357   0.30934678  0.029896111 
number of iterations: 17549 
    5600    17.473267      224          224            0 2.1514235e-13            0          0.1 0.0090023764   0.32227419  0.029896043 
number of iterations: 17605 
    5700    17.692605      227          227            0 2.1888711e-13            0          0.1 0.0090024177   0.33542662  0.029895974 
number of iterations: 17661 
    5800    17.914461      231          231            0 2.2269706e-13            0          0.1 0.0090024598   0.34880799  0.029895904 
number of iterations: 17718 
    5900    18.139462      236          236            0 2.2657332e-13            0          0.1 0.0090025026   0.36242226  0.029895833 
number of iterations: 17774 
    6000    18.363793      239          239            0 2.3051705e-13            0          0.1 0.0090025462   0.37627351   0.02989576 
number of iterations: 17830 
    6100    18.587259      245          245            0 2.3452942e-13            0          0.1 0.0090025905   0.39036585  0.029895687 
number of iterations: 18023 
    6200      18.8134      249          249            0 2.3861164e-13            0          0.1 0.0090026369   0.40470348  0.029895609 
number of iterations: 17945 
    6300    19.038187      249          249            0 2.4276491e-13            0          0.1 0.0090026828   0.41929066  0.029895533 
number of iterations: 15485 
    6400    19.234464      253          253            0 2.4699047e-13            0          0.1 0.0090027226   0.43413175  0.029895467 
number of iterations: 18028 
    6500    19.496131      254          254            0 2.5128958e-13            0          0.1 0.0090027694   0.44923115  0.029895389 
number of iterations: 18083 
    6600     19.72597      259          259            0 2.5566352e-13            0          0.1 0.0090028176   0.46459337  0.029895309 
number of iterations: 18140 
    6700    19.951886      262          262            0 2.601136e-13            0          0.1 0.0090028666   0.48022298  0.029895227 
number of iterations: 18196 
    6800    20.179066      266          266            0 2.6464113e-13            0          0.1 0.0090029168   0.49612466  0.029895143 
number of iterations: 18426 
    6900    20.409828      267          267            0 2.6924747e-13            0          0.1  0.009002967   0.51230312   0.02989506 
number of iterations: 18311 
    7000    20.643852      271          271            0 2.7393398e-13            0          0.1 0.0090030186   0.52876318  0.029894974 
number of iterations: 20620 
    7100    20.898919      275          275            0 2.7870207e-13            0          0.1 0.0090030846   0.54550975  0.029894864 
number of iterations: 19342 
    7200    21.141026      276          276            0 2.8355315e-13            0          0.1 0.0090031423   0.56254781  0.029894768 
number of iterations: 18552 
    7300    21.375196      278          278            0 2.8848867e-13            0          0.1  0.009003197   0.57988243  0.029894677 
number of iterations: 18608 
    7400    21.606909      280          280            0 2.935101e-13            0          0.1 0.0090032526   0.59751878  0.029894584 
number of iterations: 18664 
    7500      21.8409      282          282            0 2.9861893e-13            0          0.1 0.0090033092    0.6154621   0.02989449 
number of iterations: 18721 
    7600    22.074685      286          286            0 3.0381668e-13            0          0.1 0.0090033668   0.63371775  0.029894394 
number of iterations: 18669 
    7700    22.310118      289          289            0 3.0910491e-13            0          0.1 0.0090034242   0.65229116  0.029894299 
number of iterations: 18831 
    7800    22.547608      295          295            0 3.1448518e-13            0          0.1 0.0090034838   0.67119155  0.029894199 
number of iterations: 18887 
    7900    22.782364      298          298            0 3.199591e-13            0          0.1 0.0090035432   0.69042092    0.0298941 
number of iterations: 18943 
    8000    23.017366      303          303            0 3.255283e-13            0          0.1 0.0090036048   0.70998499  0.029893998 
number of iterations: 16820 
    8100     23.22867      309          309            0 3.3119444e-13            0          0.1 0.0090036598    0.7298896  0.029893906 
number of iterations: 19029 
    8200    23.465677      315          315            0 3.369592e-13            0          0.1 0.0090037243   0.75014066  0.029893799 
number of iterations: 19084 
    8300    23.705524      320          320            0 3.4282431e-13            0          0.1 0.0090037891   0.77074422  0.029893691 
number of iterations: 16693 
    8400    23.915336      326          326            0 3.487915e-13            0          0.1 0.0090038463   0.79170639  0.029893596 
number of iterations: 19168 
    8500    24.157273      333          333            0 3.5486255e-13            0          0.1 0.0090039132   0.81303343  0.029893484 
number of iterations: 19994 
    8600    24.405976      342          342            0 3.6103928e-13            0          0.1 0.0090039872   0.83473169  0.029893361 
number of iterations: 18974 
    8700    24.643158      349          349            0 3.6732352e-13            0          0.1 0.0090040547   0.85680763  0.029893249 
Loop time of 24.6432 on 32 procs for 8700 steps with 349 atoms

Performance: 305025595.262 tau/day, 353.039 timesteps/s
98.4% CPU use with 32 MPI tasks x no OpenMP threads

MPI task timing breakdown:
Section |  min time  |  avg time  |  max time  |%varavg| %total
---------------------------------------------------------------
Pair    | 0.00042937 | 0.0019838  | 0.0042143  |   2.2 |  0.01
Neigh   | 0.0011396  | 0.0020685  | 0.0048352  |   1.8 |  0.01
Comm    | 0.012578   | 0.026964   | 0.045237   |   5.6 |  0.11
Output  | 0.90687    | 0.90722    | 0.90766    |   0.0 |  3.68
Modify  | 23.659     | 23.662     | 23.666     |   0.0 | 96.02
Other   |            | 0.04277    |            |       |  0.17

Nlocal:    10.9062 ave 32 max 0 min
Histogram: 5 7 4 5 3 1 4 0 2 1
Nghost:    3.65625 ave 11 max 0 min
Histogram: 11 3 4 2 3 2 2 2 2 1
Neighs:    9.71875 ave 29 max 0 min
Histogram: 5 6 5 5 5 0 2 2 0 2

Total # of neighbors = 311
Ave neighs/atom = 0.891117
Neighbor list builds = 109
Dangerous builds = 0
Total wall time: 0:00:24
