 NUFEB Simulation

     100 atoms 
     2 atom types 
     4 nutrients 

  0.0e-4   1.00e-04  xlo xhi 
  0.0e-4   1.00e-04  ylo yhi 
  0.0e-4   1.00e-05  zlo zhi 

 Atoms 

     1 1 1.70e-06  370 2.91e-05 7.96e-05 4.48e-06 1.70e-06 
     2 1 1.46e-06  370 4.39e-05 3.05e-05 5.86e-06 1.46e-06 
     3 1 1.50e-06  370 6.44e-05 5.89e-05 3.77e-06 1.50e-06 
     4 1 1.55e-06  370 5.29e-05 8.00e-05 6.30e-06 1.55e-06 
     5 1 1.61e-06  370 8.64e-05 7.29e-05 5.69e-06 1.61e-06 
     6 1 1.63e-06  370 9.15e-05 9.86e-06 2.69e-06 1.63e-06 
     7 1 1.75e-06  370 6.07e-05 7.76e-05 2.04e-06 1.75e-06 
     8 1 1.61e-06  370 3.79e-06 3.31e-05 4.66e-06 1.61e-06 
     9 1 1.85e-06  370 2.26e-05 1.47e-05 6.98e-06 1.85e-06 
     10 1 1.88e-06  370 8.56e-05 6.95e-05 4.57e-06 1.88e-06 
     11 1 1.67e-06  370 6.20e-05 7.58e-05 3.62e-06 1.67e-06 
     12 1 1.46e-06  370 8.61e-05 3.67e-05 6.26e-06 1.46e-06 
     13 1 1.83e-06  370 4.44e-05 8.20e-05 6.96e-06 1.83e-06 
     14 1 1.73e-06  370 6.34e-05 3.26e-05 1.83e-06 1.73e-06 
     15 1 1.79e-06  370 8.89e-05 7.08e-05 7.61e-06 1.79e-06 
     16 1 1.54e-06  370 3.11e-05 8.92e-05 3.09e-06 1.54e-06 
     17 1 1.65e-06  370 1.51e-05 5.13e-05 8.02e-06 1.65e-06 
     18 1 1.58e-06  370 6.86e-05 5.40e-05 4.49e-06 1.58e-06 
     19 1 1.65e-06  370 3.48e-05 6.47e-05 2.08e-06 1.65e-06 
     20 1 1.68e-06  370 7.44e-05 3.05e-05 2.81e-06 1.68e-06 
     21 1 1.79e-06  370 9.98e-06 1.74e-05 5.39e-06 1.79e-06 
     22 1 1.58e-06  370 8.77e-05 3.74e-05 5.36e-06 1.58e-06 
     23 1 1.89e-06  370 6.07e-05 5.16e-06 2.44e-06 1.89e-06 
     24 1 1.40e-06  370 7.01e-05 8.69e-05 1.91e-06 1.40e-06 
     25 1 1.47e-06  370 9.76e-05 7.71e-06 4.15e-06 1.47e-06 
     26 1 1.77e-06  370 1.42e-05 1.20e-05 2.79e-06 1.77e-06 
     27 1 1.52e-06  370 5.81e-05 3.13e-05 7.59e-06 1.52e-06 
     28 1 1.68e-06  370 2.44e-05 4.50e-06 2.61e-06 1.68e-06 
     29 1 1.90e-06  370 3.55e-06 7.65e-05 4.99e-06 1.90e-06 
     30 1 1.92e-06  370 8.41e-05 6.59e-05 7.26e-06 1.92e-06 
     31 1 1.53e-06  370 1.23e-05 7.88e-05 6.01e-06 1.53e-06 
     32 1 1.69e-06  370 6.14e-06 6.19e-05 7.80e-06 1.69e-06 
     33 1 1.90e-06  370 8.49e-05 3.63e-05 5.72e-06 1.90e-06 
     34 1 1.91e-06  370 2.63e-05 7.00e-05 2.43e-06 1.91e-06 
     35 1 1.70e-06  370 7.46e-05 9.63e-05 7.61e-06 1.70e-06 
     36 1 1.63e-06  370 6.11e-05 7.90e-05 5.35e-06 1.63e-06 
     37 1 1.54e-06  370 1.92e-05 5.19e-05 7.62e-06 1.54e-06 
     38 1 1.69e-06  370 4.07e-05 5.30e-06 2.85e-06 1.69e-06 
     39 1 1.39e-06  370 8.25e-05 3.42e-05 4.83e-06 1.39e-06 
     40 1 1.54e-06  370 9.36e-05 1.51e-05 2.79e-06 1.54e-06 
     41 1 1.85e-06  370 9.49e-05 3.71e-05 5.24e-06 1.85e-06 
     42 1 1.52e-06  370 9.54e-05 6.28e-05 5.44e-06 1.52e-06 
     43 1 1.92e-06  370 2.49e-05 3.10e-05 5.39e-06 1.92e-06 
     44 1 1.57e-06  370 8.18e-05 4.14e-05 2.29e-06 1.57e-06 
     45 1 1.53e-06  370 6.99e-05 8.28e-05 5.29e-06 1.53e-06 
     46 1 1.52e-06  370 2.54e-05 4.23e-05 2.36e-06 1.52e-06 
     47 1 1.75e-06  370 4.97e-05 5.37e-05 7.08e-06 1.75e-06 
     48 1 1.50e-06  370 4.24e-05 3.69e-05 3.67e-06 1.50e-06 
     49 1 1.82e-06  370 1.95e-05 5.20e-05 4.49e-06 1.82e-06 
     50 1 1.65e-06  370 8.80e-06 6.71e-05 3.65e-06 1.65e-06 
     51 2 1.17e-06  230 3.08e-05 8.15e-05 5.72e-06 1.17e-06 
     52 2 1.12e-06  230 1.21e-05 7.59e-05 5.86e-06 1.12e-06 
     53 2 1.12e-06  230 8.12e-05 7.74e-05 7.96e-06 1.12e-06 
     54 2 9.50e-07  230 5.62e-05 1.67e-05 6.27e-06 9.50e-07 
     55 2 8.98e-07  230 9.34e-05 2.65e-05 1.99e-06 8.98e-07 
     56 2 1.31e-06  230 7.09e-05 3.25e-05 4.89e-06 1.31e-06 
     57 2 1.04e-06  230 1.13e-05 7.75e-05 4.47e-06 1.04e-06 
     58 2 9.59e-07  230 4.61e-05 9.89e-05 2.80e-06 9.59e-07 
     59 2 1.30e-06  230 2.82e-05 3.22e-05 6.57e-06 1.30e-06 
     60 2 9.37e-07  230 1.53e-05 1.24e-05 2.23e-06 9.37e-07 
     61 2 1.06e-06  230 1.57e-05 8.28e-05 3.39e-06 1.06e-06 
     62 2 9.64e-07  230 2.83e-05 2.06e-05 2.53e-06 9.64e-07 
     63 2 1.33e-06  230 9.02e-05 4.23e-05 4.32e-06 1.33e-06 
     64 2 1.10e-06  230 5.66e-06 8.57e-05 5.44e-06 1.10e-06 
     65 2 1.38e-06  230 6.09e-05 4.02e-05 3.19e-06 1.38e-06 
     66 2 1.34e-06  230 9.61e-05 1.33e-05 1.80e-06 1.34e-06 
     67 2 1.30e-06  230 3.78e-05 4.19e-05 4.42e-06 1.30e-06 
     68 2 1.17e-06  230 2.32e-06 9.11e-06 6.41e-06 1.17e-06 
     69 2 1.03e-06  230 1.18e-05 1.87e-05 4.23e-06 1.03e-06 
     70 2 9.86e-07  230 8.95e-05 6.00e-05 6.01e-06 9.86e-07 
     71 2 1.05e-06  230 1.37e-05 7.55e-05 2.21e-06 1.05e-06 
     72 2 9.04e-07  230 1.30e-05 8.93e-05 4.69e-06 9.04e-07 
     73 2 1.38e-06  230 8.32e-05 9.39e-05 6.64e-06 1.38e-06 
     74 2 1.05e-06  230 1.37e-05 6.53e-05 8.55e-06 1.05e-06 
     75 2 1.31e-06  230 7.22e-06 6.51e-05 4.03e-06 1.31e-06 
     76 2 9.69e-07  230 5.58e-05 2.67e-05 2.97e-06 9.69e-07 
     77 2 1.11e-06  230 7.88e-06 9.85e-05 5.47e-06 1.11e-06 
     78 2 1.32e-06  230 1.98e-05 4.51e-05 2.06e-06 1.32e-06 
     79 2 1.31e-06  230 8.78e-05 2.38e-05 7.30e-06 1.31e-06 
     80 2 1.11e-06  230 2.08e-05 4.04e-05 8.58e-06 1.11e-06 
     81 2 1.36e-06  230 2.24e-06 3.46e-05 5.76e-06 1.36e-06 
     82 2 1.23e-06  230 6.96e-06 9.07e-05 1.54e-06 1.23e-06 
     83 2 9.63e-07  230 3.62e-05 4.25e-05 8.70e-06 9.63e-07 
     84 2 1.09e-06  230 1.40e-05 2.69e-05 5.57e-06 1.09e-06 
     85 2 1.10e-06  230 1.21e-05 3.43e-05 4.35e-06 1.10e-06 
     86 2 1.38e-06  230 1.82e-05 7.15e-05 8.05e-06 1.38e-06 
     87 2 9.42e-07  230 3.10e-05 4.37e-05 5.62e-06 9.42e-07 
     88 2 1.39e-06  230 4.48e-05 3.38e-05 6.93e-06 1.39e-06 
     89 2 1.02e-06  230 3.40e-05 5.62e-05 4.20e-06 1.02e-06 
     90 2 9.02e-07  230 5.91e-05 7.35e-05 2.84e-06 9.02e-07 
     91 2 9.61e-07  230 6.57e-05 9.64e-05 3.89e-06 9.61e-07 
     92 2 1.21e-06  230 6.16e-05 4.60e-05 5.54e-06 1.21e-06 
     93 2 1.33e-06  230 9.04e-05 3.16e-05 5.66e-06 1.33e-06 
     94 2 1.30e-06  230 8.18e-06 5.60e-05 1.57e-06 1.30e-06 
     95 2 8.87e-07  230 2.35e-05 7.33e-06 3.83e-06 8.87e-07 
     96 2 1.23e-06  230 1.53e-05 6.84e-05 7.80e-06 1.23e-06 
     97 2 1.16e-06  230 1.27e-05 5.99e-05 7.97e-06 1.16e-06 
     98 2 1.36e-06  230 4.15e-05 3.17e-05 5.76e-06 1.36e-06 
     99 2 1.19e-06  230 4.82e-05 3.89e-05 7.00e-06 1.19e-06 
     100 2 1.33e-06  230 1.32e-05 1.13e-05 5.10e-06 1.33e-06 

 Nutrients 

     1 sub g nn nn nn 1.00e-01 1.00e-01 
     2 o2 l nn nn nd 9.00e-03 9.00e-03 
     3 suc l nn nn nn 3.42e-20 3.42e-20 
     4 co2 l nn nn nd 2.99e-02 2.99e-02 

 Type Name 

     1 cyano  
     2 ecw  

 Diffusion Coeffs 

     sub 0 
     o2 2.3e-09 
     suc 5.2e-10 
     co2 1.9e-09 

 Growth Rate 

     cyano 1.67e-05 
     ecw 1.3e-05 

 Ks 

     cyano 0.00035 0.0002 0.01 0.000138 
     ecw 0 0.001 3.6 0.05 

 Yield 

     cyano 0.55 
     ecw 0.43 

 Maintenance 

     cyano 0 
     ecw 9.5e-07 

 Decay 

     cyano 0 
     ecw 0 



