LAMMPS (20 Nov 2019)
Reading data file ...
  orthogonal box = (0 0 0) to (0.0001 0.0001 1e-05)
  8 by 4 by 1 MPI processor grid
  reading atoms ...
  100 atoms
  4 nutrients
Lattice spacing in x,y,z = 100 100 100
50 atoms in group CYANO
50 atoms in group ECW
Model is defined as a closed system. 
Neighbor list info ...
  update every 1 steps, delay 0 steps, check yes
  max neighbors/atom: 5000, page size: 100000
  master list distance cutoff = 2.42e-06
  ghost atom cutoff = 2.42e-06
  binsize = 1.21e-06, bins = 83 83 9
  1 neighbor lists, perpetual/occasional/extra = 1 0 0
  (1) pair gran/hooke/history, perpetual
      attributes: half, newton off, size, history
      pair build: half/size/bin/newtoff
      stencil: half/bin/3d/newtoff
      bin: standard
Setting up Verlet run ...
  Unit style    : lj
  Current step  : 0
  Time step     : 10
Per MPI rank memory allocation (min/avg/max) = 5.794 | 10.42 | 12.11 Mbytes
Step CPU Atoms c_myNtypes[1] c_myNtypes[2] c_myMass[1] c_myMass[2] c_myCon[1] c_myCon[2] c_myCon[3] c_myCon[4] 
       0            0      100           50           50 4.5680586e-14 9.6061798e-15          0.1        0.009     3.42e-20       0.0299 
number of iterations: 320365 
     100    15.552153      135           50           85 4.6285955e-14 9.5991003e-15          0.1 0.0090008166  0.036688037   0.02989864 
number of iterations: 4095 
     200    15.893925      156           50          106 4.6899346e-14 9.5931253e-15          0.1 0.0090008274  0.072698372  0.029898622 
number of iterations: 2827 
     300    16.145367      156           50          106 4.7520867e-14 9.5882434e-15          0.1 0.0090008383   0.10915717  0.029898604 
number of iterations: 2028 
     400    16.377069      156           50          106 4.8150623e-14 9.5844468e-15          0.1 0.0090008493   0.14607278  0.029898585 
number of iterations: 1542 
     500     16.58864      156           50          106 4.8788726e-14 9.5817262e-15          0.1 0.0090008605   0.18345292  0.029898566 
number of iterations: 1418 
     600    16.803125      158           52          106 4.9435284e-14 9.5800659e-15          0.1 0.0090008676   0.22130509  0.029898554 
number of iterations: 1454 
     700    17.018558      159           53          106 5.0090411e-14 9.579457e-15          0.1 0.0090008804   0.25963603  0.029898533 
number of iterations: 1397 
     800    17.233442      159           53          106 5.075422e-14 9.5798912e-15          0.1  0.009000892   0.29845262  0.029898514 
number of iterations: 1365 
     900    17.443205      161           55          106 5.1426826e-14 9.5813614e-15          0.1 0.0090008995    0.3377618  0.029898501 
number of iterations: 1482 
    1000    17.679795      162           56          106 5.2108345e-14 9.5838592e-15          0.1 0.0090009128    0.3775706  0.029898479 
number of iterations: 1474 
    1100    17.869282      163           57          106 5.2798896e-14 9.5873773e-15          0.1 0.0090009248   0.41788597  0.029898459 
number of iterations: 1404 
    1200    18.064046      163           57          106 5.3498599e-14 9.5919088e-15          0.1  0.009000937   0.45871523  0.029898438 
number of iterations: 1407 
    1300    18.245051      163           57          106 5.4207574e-14 9.5974471e-15          0.1 0.0090009494   0.50006562  0.029898418 
number of iterations: 1409 
    1400    18.431972      163           57          106 5.4925944e-14 9.6039863e-15          0.1 0.0090009619    0.5419445  0.029898397 
number of iterations: 1412 
    1500    18.631696      165           59          106 5.5653834e-14 9.6115205e-15          0.1 0.0090009746    0.5843593  0.029898376 
number of iterations: 1415 
    1600    18.837673      165           59          106 5.6391371e-14 9.6200443e-15          0.1 0.0090009875   0.62731753  0.029898354 
number of iterations: 1417 
    1700    19.026272      166           60          106 5.7138681e-14 9.6295528e-15          0.1 0.0090010006   0.67082673  0.029898332 
number of iterations: 1533 
    1800    19.236178      167           61          106 5.7895895e-14 9.6400412e-15          0.1 0.0090010165   0.71489467  0.029898306 
number of iterations: 1423 
    1900    19.436897      167           61          106 5.8663144e-14 9.6515048e-15          0.1 0.0090010299   0.75952916  0.029898283 
number of iterations: 1426 
    2000    19.664489      167           61          106 5.944056e-14 9.6639394e-15          0.1 0.0090010436   0.80473809  0.029898261 
number of iterations: 1429 
    2100    19.858861      167           61          106 6.0228279e-14 9.677341e-15          0.1 0.0090010573   0.85052944  0.029898238 
number of iterations: 1640 
    2200     20.07833      169           63          106 6.1026437e-14 9.6917056e-15          0.1 0.0090010544   0.89691147  0.029898242 
number of iterations: 1431 
    2300    20.329568      169           63          106 6.1835173e-14 9.7070302e-15          0.1 0.0090010683   0.94389219  0.029898219 
number of iterations: 1434 
    2400    20.521486      169           63          106 6.2654625e-14 9.7233117e-15          0.1 0.0090010824   0.99147991  0.029898196 
number of iterations: 1458 
    2500    20.717892      171           64          107 6.3484938e-14 9.7405485e-15          0.1 0.0090010968    1.0396831  0.029898172 
number of iterations: 1439 
    2600    20.897149      171           64          107 6.4326254e-14 9.7587368e-15          0.1 0.0090011113    1.0885101  0.029898147 
number of iterations: 1476 
    2700     21.09984      173           66          107 6.5178719e-14 9.7778725e-15          0.1 0.0090011273    1.1379697  0.029898121 
number of iterations: 1445 
    2800    21.275739      173           66          107 6.6042481e-14 9.7979553e-15          0.1 0.0090011422    1.1880704  0.029898096 
number of iterations: 1448 
    2900    21.474808      173           66          107 6.691769e-14 9.8189832e-15          0.1 0.0090011573    1.2388211  0.029898071 
number of iterations: 1417 
    3000    21.695742      174           67          107 6.7804497e-14 9.8409547e-15          0.1 0.0090011712    1.2902308  0.029898047 
number of iterations: 1453 
    3100    21.893089      174           67          107 6.8703056e-14 9.8638685e-15          0.1 0.0090011867    1.3423085  0.029898022 
number of iterations: 1456 
    3200    22.068293      174           67          107 6.9613524e-14 9.8877233e-15          0.1 0.0090012024    1.3950633  0.029897995 
number of iterations: 1459 
    3300    22.258401      175           67          108 7.0536057e-14 9.9125187e-15          0.1 0.0090012183    1.4485045  0.029897969 
number of iterations: 1520 
    3400    22.441803      177           69          108 7.1470815e-14 9.9382533e-15          0.1 0.0090012315    1.5026417  0.029897947 
number of iterations: 1464 
    3500    22.655725      179           71          108 7.2417962e-14 9.9649272e-15          0.1 0.0090012421     1.557484  0.029897929 
number of iterations: 1433 
    3600    22.817351      179           71          108 7.337766e-14 9.9925397e-15          0.1 0.0090012529    1.6130413  0.029897911 
number of iterations: 1552 
    3700    23.006386      181           73          108 7.4350076e-14 1.002109e-14          0.1 0.0090012709    1.6693233  0.029897881 
number of iterations: 1462 
    3800    23.183182      182           74          108 7.5335379e-14 1.005058e-14          0.1 0.0090012848    1.7263399  0.029897858 
number of iterations: 1469 
    3900    23.372175      183           74          109 7.6333739e-14 1.0081009e-14          0.1 0.0090013018     1.784101  0.029897829 
number of iterations: 1472 
    4000    23.677794      183           74          109 7.7345329e-14 1.0112377e-14          0.1 0.0090013191    1.8426169  0.029897801 
number of iterations: 1622 
    4100    23.876276      186           77          109 7.8370326e-14 1.0144686e-14          0.1 0.0090013426    1.9018977  0.029897761 
number of iterations: 1478 
    4200    24.083783      187           77          110 7.9408906e-14 1.0177937e-14          0.1 0.0090013604     1.961954  0.029897732 
number of iterations: 1481 
    4300    24.258793      187           77          110 8.0461249e-14 1.0212131e-14          0.1 0.0090013784    2.0227961  0.029897702 
number of iterations: 1506 
    4400      24.4379      191           79          112 8.1527538e-14 1.024727e-14          0.1 0.0090013966    2.0844351  0.029897671 
number of iterations: 1487 
    4500    24.626721      191           79          112 8.2607958e-14 1.0283354e-14          0.1 0.0090014151    2.1468814   0.02989764 
number of iterations: 1602 
    4600     24.81696      193           81          112 8.3702696e-14 1.0320386e-14          0.1 0.0090014366    2.2101462  0.029897605 
number of iterations: 1492 
    4700     25.01441      193           81          112 8.4811941e-14 1.0358367e-14          0.1 0.0090014556    2.2742403  0.029897573 
number of iterations: 1495 
    4800    25.199587      194           81          113 8.5935886e-14 1.0397299e-14          0.1 0.0090014749    2.3391752  0.029897541 
number of iterations: 1627 
    4900    25.401033      195           81          114 8.7074726e-14 1.0437185e-14          0.1 0.0090014959     2.404962  0.029897506 
number of iterations: 1502 
    5000    25.622295      195           81          114 8.8228659e-14 1.0478027e-14          0.1 0.0090015157    2.4716123  0.029897473 
number of iterations: 1575 
    5100    25.810709      198           83          115 8.9397883e-14 1.0519828e-14          0.1 0.0090015385    2.5391377  0.029897434 
number of iterations: 1598 
    5200    26.007159      199           84          115 9.0582602e-14 1.056259e-14          0.1 0.0090015605      2.60755  0.029897398 
number of iterations: 1512 
    5300    26.179445      199           84          115 9.1783021e-14 1.0606316e-14          0.1 0.0090015812    2.6768613  0.029897363 
number of iterations: 1523 
    5400    26.369261      202           85          117 9.2999348e-14 1.0651012e-14          0.1 0.0090016021    2.7470839  0.029897328 
number of iterations: 1635 
    5500    26.562225      203           86          117 9.4231795e-14 1.0696679e-14          0.1 0.0090016284    2.8182298  0.029897285 
number of iterations: 1551 
    5600    26.755409      206           89          117 9.5480574e-14 1.0743323e-14          0.1   0.00900165    2.8903114  0.029897249 
number of iterations: 1524 
    5700    26.956984      206           89          117 9.6745902e-14 1.0790945e-14          0.1 0.0090016718    2.9633414  0.029897212 
number of iterations: 1677 
    5800    27.147661      210           93          117 9.8027998e-14 1.0839551e-14          0.1 0.0090017048    3.0373328  0.029897157 
number of iterations: 1560 
    5900    27.344753      215           97          118 9.9327085e-14 1.0889144e-14          0.1 0.0090017234    3.1122983  0.029897126 
number of iterations: 1537 
    6000    27.532172      220          101          119 1.0064339e-13 1.0939729e-14          0.1 0.0090017414    3.1882513  0.029897096 
number of iterations: 1555 
    6100    27.755453      222          103          119 1.0197713e-13 1.0991311e-14          0.1 0.0090017645     3.265205  0.029897057 
number of iterations: 1526 
    6200     27.94149      224          105          119 1.0332856e-13 1.1043893e-14          0.1 0.0090017851    3.3431728  0.029897023 
number of iterations: 1651 
    6300    28.149912      226          107          119 1.0469789e-13 1.1097479e-14          0.1 0.0090018121    3.4221683  0.029896978 
number of iterations: 1543 
    6400     28.33966      227          108          119 1.0608536e-13 1.1152077e-14          0.1 0.0090018361    3.5022052  0.029896938 
number of iterations: 1546 
    6500    28.527286      230          108          122 1.0749123e-13 1.1207688e-14          0.1 0.0090018604    3.5832976  0.029896898 
number of iterations: 1695 
    6600    28.730198      232          110          122 1.0891573e-13 1.1264319e-14          0.1 0.0090018805    3.6654596  0.029896864 
number of iterations: 1725 
    6700    28.934139      234          111          123 1.103591e-13 1.1321979e-14          0.1 0.0090019087    3.7487058  0.029896817 
number of iterations: 1584 
    6800    29.113386      236          113          123 1.118216e-13 1.138067e-14          0.1 0.0090019277    3.8330505  0.029896785 
number of iterations: 1669 
    6900    29.314021      242          117          125 1.1330348e-13 1.1440397e-14          0.1 0.0090019526    3.9185086  0.029896744 
number of iterations: 1565 
    7000    29.501868      243          118          125  1.14805e-13 1.1501166e-14          0.1 0.0090019785    4.0050949    0.0298967 
number of iterations: 1661 
    7100    29.718719      244          119          125 1.1632642e-13 1.1562985e-14          0.1 0.0090020097    4.0928245  0.029896648 
number of iterations: 1570 
    7200    29.901438      245          120          125  1.17868e-13 1.1625858e-14          0.1 0.0090020364    4.1817127  0.029896604 
number of iterations: 1573 
    7300    30.085404      245          120          125 1.1943001e-13 1.1689793e-14          0.1 0.0090020633    4.2717751  0.029896559 
number of iterations: 1576 
    7400    30.333824      247          122          125 1.2101272e-13 1.1754795e-14          0.1 0.0090020907    4.3630272  0.029896513 
number of iterations: 1578 
    7500    30.707048      248          123          125 1.2261641e-13 1.1820872e-14          0.1 0.0090021184    4.4554853  0.029896467 
number of iterations: 1594 
    7600    30.902969      250          125          125 1.2424135e-13 1.188803e-14          0.1 0.0090021465    4.5491654   0.02989642 
number of iterations: 1598 
    7700    31.089409      250          125          125 1.2588782e-13 1.1956277e-14          0.1 0.0090021749    4.6440836  0.029896373 
number of iterations: 1584 
    7800    31.263329      252          126          126 1.2755611e-13 1.2025619e-14          0.1 0.0090022026    4.7402568  0.029896327 
number of iterations: 1585 
    7900    31.439146      255          129          126 1.2924651e-13 1.2096065e-14          0.1 0.0090022254    4.8377017  0.029896289 
number of iterations: 1622 
    8000    31.616822      257          130          127 1.3095931e-13 1.2167621e-14          0.1 0.0090022549    4.9364354   0.02989624 
number of iterations: 1632 
    8100    31.823604      263          133          130 1.3269481e-13 1.2240296e-14          0.1 0.0090022898    5.0364751  0.029896181 
number of iterations: 1599 
    8200    32.014205      264          133          131 1.344533e-13 1.2314097e-14          0.1 0.0090023201    5.1378382  0.029896131 
number of iterations: 1602 
    8300    32.190909      264          133          131 1.3623511e-13 1.2389033e-14          0.1 0.0090023509    5.2405424   0.02989608 
number of iterations: 1615 
    8400    32.385097      270          137          133 1.3804052e-13 1.246511e-14          0.1 0.0090023798    5.3446058  0.029896031 
number of iterations: 1609 
    8500    32.585012      272          139          133 1.3986986e-13 1.2542338e-14          0.1 0.0090024113    5.4500465  0.029895979 
number of iterations: 1659 
    8600     32.77125      273          140          133 1.4172344e-13 1.2620726e-14          0.1 0.0090024459    5.5568828  0.029895921 
number of iterations: 1676 
    8700    32.969728      275          142          133 1.4360159e-13 1.270028e-14          0.1 0.0090024816    5.6651335  0.029895861 
number of iterations: 1615 
    8800    33.160476      280          145          135 1.4550463e-13 1.2781011e-14          0.1 0.0090025145    5.7748172  0.029895807 
number of iterations: 1610 
    8900    33.340472      285          150          135 1.4743288e-13 1.2862928e-14          0.1 0.0090025418    5.8859535  0.029895761 
number of iterations: 1619 
    9000    33.572802      285          150          135 1.4938669e-13 1.2946041e-14          0.1 0.0090025755    5.9985616  0.029895705 
number of iterations: 1618 
    9100    33.755589      287          152          135 1.513664e-13 1.3030358e-14          0.1  0.009002607     6.112661  0.029895652 
number of iterations: 1626 
    9200    33.926164      289          153          136 1.5337233e-13 1.3115888e-14          0.1 0.0090026415    6.2282717  0.029895595 
number of iterations: 1652 
    9300    34.114733      293          155          138 1.5540485e-13 1.3202642e-14          0.1 0.0090026791    6.3454141  0.029895532 
number of iterations: 1631 
    9400    34.293142      295          156          139 1.5746431e-13 1.3290628e-14          0.1   0.00900271    6.4641084  0.029895481 
number of iterations: 1652 
    9500     34.48307      297          157          140 1.5955106e-13 1.3379858e-14          0.1 0.0090027459    6.5843751  0.029895421 
number of iterations: 1637 
    9600    34.669817      300          158          142 1.6166546e-13 1.3470341e-14          0.1 0.0090027757    6.7062354  0.029895371 
number of iterations: 1640 
    9700    34.850786      302          160          142 1.6380788e-13 1.3562086e-14          0.1 0.0090028064    6.8297111   0.02989532 
number of iterations: 1645 
    9800      35.0342      305          162          143 1.6597869e-13 1.3655107e-14          0.1 0.0090028436    6.9548231  0.029895258 
number of iterations: 1651 
    9900    35.222539      308          165          143 1.6817828e-13 1.3749411e-14          0.1 0.0090028799    7.0815934  0.029895197 
number of iterations: 1650 
   10000    35.604875      312          167          145 1.7040701e-13 1.3845011e-14          0.1 0.0090029158    7.2100441  0.029895137 
number of iterations: 1637 
   10100    35.825449      315          170          145 1.7266527e-13 1.3941916e-14          0.1 0.0090029503    7.3401975   0.02989508 
number of iterations: 1703 
   10200     36.01902      321          175          146 1.7495347e-13 1.4040139e-14          0.1 0.0090029957    7.4720765  0.029895004 
number of iterations: 1792 
   10300    36.224731      325          178          147 1.7727198e-13 1.4139691e-14          0.1 0.0090030427     7.605704  0.029894926 
number of iterations: 1662 
   10400    36.435628      327          179          148 1.7962123e-13 1.4240583e-14          0.1 0.0090030831    7.7411031  0.029894859 
number of iterations: 1589 
   10500    36.624056      335          186          149 1.820016e-13 1.4342826e-14          0.1  0.009003102    7.8782974  0.029894827 
number of iterations: 1636 
   10600    36.803161      336          187          149 1.8441352e-13 1.4446431e-14          0.1 0.0090031399    8.0173109  0.029894764 
number of iterations: 1666 
   10700     36.98901      337          188          149 1.868574e-13 1.4551412e-14          0.1 0.0090031831     8.158168  0.029894692 
number of iterations: 1760 
   10800     37.18245      339          188          151 1.8933367e-13 1.4657781e-14          0.1 0.0090032319    8.3008934   0.02989461 
number of iterations: 1688 
   10900    37.359279      341          189          152 1.9184276e-13 1.4765549e-14          0.1 0.0090032748    8.4455118  0.029894539 
number of iterations: 1741 
   11000    37.580316      346          192          154 1.943851e-13 1.487473e-14          0.1 0.0090033161    8.5920485   0.02989447 
number of iterations: 1743 
   11100    37.813481      351          196          155 1.9696112e-13 1.4985337e-14          0.1 0.0090033747     8.740529  0.029894372 
number of iterations: 1681 
   11200    38.000639      355          198          157 1.9957129e-13 1.5097381e-14          0.1 0.0090034153    8.8909794  0.029894305 
number of iterations: 1684 
   11300    38.181413      356          199          157 2.0221605e-13 1.5210876e-14          0.1 0.0090034605    9.0434257  0.029894229 
number of iterations: 1683 
   11400    38.375194      358          200          158 2.0489585e-13 1.5325836e-14          0.1 0.0090035064    9.1978947  0.029894153 
number of iterations: 1720 
   11500    38.580747      365          203          162 2.0761117e-13 1.5442274e-14          0.1  0.009003552    9.3544135  0.029894077 
number of iterations: 1720 
   11600     38.77582      370          206          164 2.1036247e-13 1.5560202e-14          0.1 0.0090035991    9.5130087  0.029893998 
number of iterations: 1690 
   11700    38.961462      375          207          168 2.1315023e-13 1.5679636e-14          0.1 0.0090036467    9.6737084  0.029893919 
number of iterations: 1699 
   11800    39.152459      378          207          171 2.1597494e-13 1.5800588e-14          0.1 0.0090036951    9.8365406  0.029893838 
number of iterations: 1742 
   11900    39.338042      383          208          175 2.1883708e-13 1.5923074e-14          0.1 0.0090037475    10.001534  0.029893751 
number of iterations: 1748 
   12000    39.528397      386          211          175 2.2173715e-13 1.6047109e-14          0.1 0.0090037984    10.168717  0.029893666 
number of iterations: 1690 
   12100    39.781845      392          217          175 2.2467565e-13 1.6172705e-14          0.1  0.009003848    10.338119  0.029893583 
number of iterations: 1771 
   12200    39.979723      398          221          177 2.2765309e-13 1.6299878e-14          0.1  0.009003908     10.50977  0.029893483 
number of iterations: 1724 
   12300    40.182894      403          225          178 2.3066999e-13 1.6428643e-14          0.1 0.0090039521    10.683699   0.02989341 
number of iterations: 1723 
   12400    40.547904      409          229          180 2.3372688e-13 1.6559017e-14          0.1 0.0090040084    10.859937  0.029893316 
number of iterations: 1734 
   12500     40.73766      416          236          180 2.3682427e-13 1.6691012e-14          0.1  0.009004057    11.038514  0.029893235 
number of iterations: 1758 
   12600    40.920995      421          239          182 2.3996271e-13 1.6824645e-14          0.1 0.0090041151    11.219462  0.029893138 
number of iterations: 1747 
   12700    41.105639      428          245          183 2.4314273e-13 1.6959932e-14          0.1 0.0090041752    11.402812  0.029893038 
number of iterations: 1745 
   12800    41.317635      433          249          184 2.4636491e-13 1.7096889e-14          0.1  0.009004232    11.588596  0.029892943 
number of iterations: 1722 
   12900    41.505418      438          253          185 2.4962978e-13 1.7235531e-14          0.1 0.0090042822    11.776846  0.029892859 
number of iterations: 1757 
   13000    41.700019      443          256          187 2.5293792e-13 1.7375876e-14          0.1  0.009004341    11.967595  0.029892761 
number of iterations: 1736 
   13100    41.936037      446          258          188 2.562899e-13 1.7517939e-14          0.1  0.009004397    12.160877  0.029892668 
number of iterations: 1755 
   13200    42.138804      452          262          190 2.5968629e-13 1.7661738e-14          0.1 0.0090044592    12.356726  0.029892564 
number of iterations: 1739 
   13300    42.322298      455          265          190 2.631277e-13 1.7807289e-14          0.1 0.0090045113    12.555174  0.029892477 
number of iterations: 1796 
   13400     42.51463      460          268          192 2.6661472e-13 1.795461e-14          0.1 0.0090045743    12.756258  0.029892372 
number of iterations: 1822 
   13500    42.707141      464          271          193 2.7014794e-13 1.8103719e-14          0.1  0.009004641    12.960012  0.029892261 
number of iterations: 1833 
   13600    42.910327      467          274          193 2.7372799e-13 1.8254632e-14          0.1 0.0090047066    13.166471  0.029892151 
number of iterations: 1842 
   13700     43.11298      473          279          194 2.7735548e-13 1.8407369e-14          0.1 0.0090047762    13.375672  0.029892035 
number of iterations: 1705 
   13800    43.302586      481          279          202 2.8103105e-13 1.8561946e-14          0.1 0.0090048288    13.587651  0.029891948 
number of iterations: 1758 
   13900    43.526292      484          281          203 2.8475532e-13 1.8718383e-14          0.1 0.0090048928    13.802445  0.029891841 
number of iterations: 1775 
   14000    43.734349      488          285          203 2.8852895e-13 1.8876699e-14          0.1 0.0090049611    14.020092  0.029891727 
number of iterations: 1786 
   14100     43.99643      494          289          205 2.9235258e-13 1.9036911e-14          0.1 0.0090050311     14.24063  0.029891611 
number of iterations: 1825 
   14200    44.184518      500          292          208 2.9622689e-13 1.9199038e-14          0.1 0.0090050988    14.464098  0.029891498 
number of iterations: 1756 
   14300    44.366254      506          296          210 3.0015254e-13 1.9363099e-14          0.1  0.009005159    14.690533  0.029891397 
number of iterations: 1772 
   14400    44.567666      511          299          212 3.0413021e-13 1.9529114e-14          0.1 0.0090052244    14.919976  0.029891288 
number of iterations: 1804 
   14500     44.79785      518          302          216 3.081606e-13 1.9697103e-14          0.1 0.0090052898    15.152466  0.029891179 
number of iterations: 1781 
   14600    44.995691      522          305          217 3.122444e-13 1.9867085e-14          0.1 0.0090053568    15.388044  0.029891067 
number of iterations: 1797 
   14700    45.201664      526          309          217 3.1638231e-13 2.0039081e-14          0.1 0.0090054317    15.626751  0.029890943 
number of iterations: 1759 
   14800    45.602144      530          310          220 3.2057506e-13 2.021311e-14          0.1 0.0090054896    15.868629  0.029890846 
number of iterations: 1797 
   14900    45.821713      534          311          223 3.2482338e-13 2.0389196e-14          0.1 0.0090055669    16.113721  0.029890717 
number of iterations: 1814 
   15000    46.007667      540          316          224 3.2912799e-13 2.0567356e-14          0.1 0.0090056367    16.362067  0.029890601 
number of iterations: 1825 
   15100    46.223893      546          321          225 3.3348965e-13 2.0747614e-14          0.1 0.0090057066    16.613712  0.029890484 
number of iterations: 1853 
   15200    46.435653      558          331          227 3.3790911e-13 2.0929991e-14          0.1  0.009005768    16.868699  0.029890382 
number of iterations: 1783 
   15300     46.62491      566          338          228 3.4238714e-13 2.1114508e-14          0.1 0.0090058308    17.127074  0.029890277 
number of iterations: 1822 
   15400    46.817119      576          344          232 3.4692451e-13 2.1301186e-14          0.1 0.0090059037    17.388881  0.029890156 
number of iterations: 1789 
   15500    47.009178      581          349          232 3.5152201e-13 2.1490047e-14          0.1 0.0090059768    17.654165  0.029890034 
number of iterations: 1805 
   15600    47.211806      589          356          233 3.5618044e-13 2.1681115e-14          0.1 0.0090060536    17.922973  0.029889906 
number of iterations: 1835 
   15700    47.421435      595          360          235 3.609006e-13 2.1874411e-14          0.1 0.0090061341    18.195352  0.029889772 
number of iterations: 1809 
   15800    47.627326      598          363          235 3.6568332e-13 2.2069959e-14          0.1 0.0090062211    18.471349  0.029889627 
number of iterations: 1850 
   15900     47.82809      605          366          239 3.7052941e-13 2.2267783e-14          0.1 0.0090063061    18.751012  0.029889485 
number of iterations: 1815 
   16000     48.05473      613          372          241 3.7543973e-13 2.2467905e-14          0.1 0.0090063687    19.034391   0.02988938 
number of iterations: 1815 
   16100    48.257427      618          375          243 3.8041512e-13 2.2670349e-14          0.1 0.0090064531    19.321536   0.02988924 
number of iterations: 1819 
   16200    48.454001      624          379          245 3.8545644e-13 2.2875138e-14          0.1 0.0090065337    19.612495  0.029889105 
number of iterations: 1860 
   16300    48.673644      629          383          246 3.9056457e-13 2.3082298e-14          0.1 0.0090066285    19.907319  0.029888947 
number of iterations: 1845 
   16400    48.877884      639          389          250 3.957404e-13 2.3291851e-14          0.1 0.0090067048     20.20606   0.02988882 
number of iterations: 1875 
   16500    49.082462      645          395          250 4.0098481e-13 2.3503825e-14          0.1 0.0090068015     20.50877  0.029888659 
number of iterations: 1812 
   16600    49.295616      651          398          253 4.0629873e-13 2.3718243e-14          0.1 0.0090068768    20.815501  0.029888533 
number of iterations: 1854 
   16700    49.508816      659          404          255 4.1168306e-13 2.3935132e-14          0.1 0.0090069676    21.126307  0.029888382 
number of iterations: 1862 
   16800    49.712286      665          409          256 4.1713875e-13 2.4154517e-14          0.1 0.0090070624    21.441242  0.029888224 
number of iterations: 1832 
   16900    49.913133      675          419          256 4.2266674e-13 2.4376424e-14          0.1 0.0090071524    21.760363  0.029888074 
number of iterations: 1844 
   17000    50.152906      683          425          258 4.2826799e-13 2.4600879e-14          0.1 0.0090072382    22.083723  0.029887931 
number of iterations: 1892 
   17100    50.609201      688          430          258 4.3394346e-13 2.4827908e-14          0.1 0.0090073346    22.411379   0.02988777 
number of iterations: 1874 
   17200     50.83241      698          435          263 4.3969415e-13 2.5057539e-14          0.1 0.0090074359    22.743389  0.029887601 
number of iterations: 1894 
   17300    51.035281      708          444          264 4.4552104e-13 2.5289798e-14          0.1 0.0090075381     23.07981  0.029887431 
number of iterations: 1886 
   17400    51.234641      713          448          265 4.5142516e-13 2.5524714e-14          0.1 0.0090076469    23.420701  0.029887249 
number of iterations: 1861 
   17500    51.439584      725          458          267 4.5740751e-13 2.5762314e-14          0.1 0.0090077452    23.766121  0.029887086 
number of iterations: 1879 
   17600    51.636946      732          462          270 4.6346914e-13 2.6002625e-14          0.1 0.0090078355     24.11613  0.029886935 
number of iterations: 1852 
   17700    51.847504      739          465          274 4.6961111e-13 2.6245678e-14          0.1 0.0090079354    24.470789  0.029886769 
number of iterations: 1872 
   17800    52.056953      742          466          276 4.7583447e-13 2.6491501e-14          0.1 0.0090080474    24.830161  0.029886582 
number of iterations: 1861 
   17900    52.247954      754          472          282 4.8214029e-13 2.6740122e-14          0.1 0.0090081534    25.194307  0.029886405 
number of iterations: 1868 
   18000    52.476666      764          480          284 4.8852969e-13 2.699157e-14          0.1 0.0090082585    25.563292   0.02988623 
number of iterations: 1846 
   18100    52.710008      780          492          288 4.9500376e-13 2.7245877e-14          0.1 0.0090083537    25.937179  0.029886071 
number of iterations: 1881 
   18200    52.924264      792          500          292 5.0156362e-13 2.7503072e-14          0.1 0.0090084503    26.316033   0.02988591 
number of iterations: 1915 
   18300    53.146523      802          507          295 5.0821042e-13 2.7763185e-14          0.1 0.0090085689    26.699922  0.029885713 
number of iterations: 1897 
   18400     53.34615      809          511          298 5.1494529e-13 2.8026248e-14          0.1 0.0090086825    27.088911  0.029885523 
number of iterations: 1887 
   18500    53.593764      816          513          303 5.2176942e-13 2.829229e-14          0.1 0.0090087976    27.483069  0.029885331 
number of iterations: 1930 
   18600     53.83093      825          520          305 5.2868399e-13 2.8561344e-14          0.1 0.0090089169    27.882464  0.029885132 
number of iterations: 1963 
   18700    54.033613      833          524          309 5.3569018e-13 2.8833442e-14          0.1  0.009009061    28.287165  0.029884892 
number of iterations: 1891 
   18800    54.226085      841          529          312 5.4278922e-13 2.9108615e-14          0.1 0.0090091789    28.697244  0.029884696 
number of iterations: 1928 
   18900    54.480407      854          541          313 5.4998234e-13 2.9386896e-14          0.1 0.0090093059    29.112772  0.029884484 
number of iterations: 1816 
   19000    54.673931      864          549          315 5.5727078e-13 2.9668318e-14          0.1 0.0090093955    29.533822  0.029884335 
number of iterations: 1893 
   19100     54.88209      874          557          317 5.6465581e-13 2.9952913e-14          0.1  0.009009514    29.960465  0.029884137 
number of iterations: 1925 
   19200    55.085881      883          561          322 5.7213871e-13 3.0240716e-14          0.1 0.0090096476    30.392778  0.029883914 
number of iterations: 1863 
   19300    55.296109      896          570          326 5.7972077e-13 3.0531761e-14          0.1 0.0090097582    30.830836   0.02988373 
number of iterations: 1935 
   19400    55.601841      908          578          330 5.8740331e-13 3.0826082e-14          0.1 0.0090098888    31.274713  0.029883512 
number of iterations: 1934 
   19500    55.818099      921          587          334 5.9518766e-13 3.1123715e-14          0.1 0.0090100288     31.72449  0.029883279 
number of iterations: 1959 
   19600    56.053936      934          599          335 6.0307516e-13 3.1424694e-14          0.1 0.0090101747    32.180242  0.029883036 
number of iterations: 1942 
   19700    56.265347      942          606          336 6.110672e-13 3.1729055e-14          0.1 0.0090103052    32.642051  0.029882818 
number of iterations: 1918 
   19800    56.492845      947          611          336 6.1916514e-13 3.2036834e-14          0.1 0.0090104323    33.109996  0.029882606 
number of iterations: 1922 
   19900    56.741748      961          620          341 6.273704e-13 3.2348068e-14          0.1  0.009010576     33.58416  0.029882367 
number of iterations: 1952 
   20000    56.944205      973          630          343 6.3568439e-13 3.2662792e-14          0.1 0.0090107253    34.064623  0.029882118 
number of iterations: 1965 
   20100    57.155754      985          636          349 6.4410856e-13 3.2981046e-14          0.1 0.0090108756    34.551471  0.029881867 
number of iterations: 1954 
   20200    57.355078      996          644          352 6.5264437e-13 3.3302866e-14          0.1 0.0090110274    35.044789  0.029881615 
number of iterations: 1952 
   20300    57.591269     1010          650          360 6.612933e-13 3.3628289e-14          0.1 0.0090111538    35.544661  0.029881404 
number of iterations: 1961 
   20400    57.796914     1021          659          362 6.7005684e-13 3.3957356e-14          0.1 0.0090113121    36.051174   0.02988114 
number of iterations: 2003 
   20500    58.023423     1033          671          362 6.7893652e-13 3.4290104e-14          0.1   0.00901147    36.564418  0.029880877 
number of iterations: 1948 
   20600     58.24341     1040          676          364 6.8793387e-13 3.4626572e-14          0.1 0.0090116287    37.084481  0.029880612 
number of iterations: 1960 
   20700    58.444171     1053          683          370 6.9705045e-13  3.49668e-14          0.1 0.0090117876    37.611455  0.029880347 
number of iterations: 1949 
   20800    58.702036     1065          691          374 7.0628784e-13 3.5310829e-14          0.1 0.0090119401    38.145432  0.029880093 
number of iterations: 1969 
   20900    58.918516     1080          698          382 7.1564765e-13 3.5658698e-14          0.1 0.0090120914    38.686503  0.029879841 
number of iterations: 2021 
   21000    59.137062     1099          714          385 7.251315e-13 3.601045e-14          0.1 0.0090122662    39.234764  0.029879549 
number of iterations: 1976 
   21100    59.352613     1112          722          390 7.3474103e-13 3.6366125e-14          0.1 0.0090124333     39.79031  0.029879271 
number of iterations: 1975 
   21200    59.571607     1128          733          395 7.444779e-13 3.6725766e-14          0.1 0.0090125715    40.353237  0.029879041 
number of iterations: 1996 
   21300    59.782407     1142          744          398 7.5434381e-13 3.7089414e-14          0.1 0.0090127424    40.923644  0.029878756 
number of iterations: 1986 
   21400    59.994946     1156          753          403 7.6434046e-13 3.7457113e-14          0.1 0.0090129273     41.50163  0.029878448 
number of iterations: 2008 
   21500    60.273665     1173          761          412 7.7446958e-13 3.7828907e-14          0.1  0.009013108    42.087297  0.029878146 
number of iterations: 1996 
   21600    60.544292     1190          774          416 7.8473294e-13 3.8204839e-14          0.1  0.009013269    42.680745  0.029877878 
number of iterations: 2003 
   21700    60.776483     1211          788          423 7.951323e-13 3.8584953e-14          0.1 0.0090134572    43.282077  0.029877564 
number of iterations: 2021 
   21800    61.003483     1231          803          428 8.0566948e-13 3.8969295e-14          0.1 0.0090136386    43.891399  0.029877262 
number of iterations: 1976 
   21900    61.229381     1241          812          429 8.163463e-13 3.9357909e-14          0.1 0.0090138081    44.508817   0.02987698 
number of iterations: 1996 
   22000    61.434467     1250          818          432 8.2716461e-13 3.9750841e-14          0.1 0.0090139925    45.134439  0.029876672 
number of iterations: 1998 
   22100    61.643613     1264          829          435 8.3812628e-13 4.0148137e-14          0.1 0.0090141649    45.768373  0.029876385 
number of iterations: 2014 
   22200    61.862906     1273          837          436 8.4923322e-13 4.0549845e-14          0.1 0.0090143665    46.410731  0.029876049 
number of iterations: 1989 
   22300    62.070037     1285          845          440 8.6048734e-13 4.0956011e-14          0.1 0.0090145383    47.061625  0.029875762 
number of iterations: 2019 
   22400    62.295943     1302          861          441 8.7189061e-13 4.1366684e-14          0.1 0.0090147341    47.721166  0.029875436 
number of iterations: 2005 
   22500    62.503494     1317          870          447 8.8344499e-13 4.1781911e-14          0.1 0.0090149244    48.389469  0.029875119 
number of iterations: 2039 
   22600    62.722059     1331          881          450 8.9515249e-13 4.2201742e-14          0.1 0.0090151306    49.066653  0.029874775 
number of iterations: 1983 
   22700    62.975994     1351          898          453 9.0701513e-13 4.2626225e-14          0.1 0.0090153147    49.752836  0.029874468 
number of iterations: 1973 
   22800    63.199576     1362          906          456 9.1903499e-13 4.3055412e-14          0.1 0.0090154994    50.448135   0.02987416 
number of iterations: 2007 
   22900    63.496374     1375          915          460 9.3121412e-13 4.3489354e-14          0.1 0.0090157032    51.152672  0.029873821 
number of iterations: 2032 
   23000    63.776285     1388          924          464 9.4355466e-13  4.39281e-14          0.1 0.0090159133    51.866571  0.029873471 
number of iterations: 2022 
   23100    63.992976     1406          935          471 9.5605873e-13 4.4371703e-14          0.1 0.0090161272    52.589955  0.029873114 
number of iterations: 2045 
   23200    64.213532     1423          947          476 9.6872851e-13 4.4820216e-14          0.1 0.0090163334    53.322951   0.02987277 
number of iterations: 2048 
   23300    64.454088     1444          963          481 9.8156619e-13 4.5273689e-14          0.1 0.0090165425    54.065685  0.029872422 
number of iterations: 2006 
   23400    64.679342     1460          976          484 9.9457399e-13 4.5732177e-14          0.1 0.0090167495    54.818287  0.029872077 
number of iterations: 2044 
   23500    64.893721     1479          991          488 1.0077542e-12 4.6195734e-14          0.1  0.009016962    55.580887  0.029871723 
number of iterations: 2042 
   23600    65.103297     1499         1004          495 1.021109e-12 4.6664414e-14          0.1 0.0090171886     56.35362  0.029871345 
number of iterations: 2044 
   23700    65.316901     1513         1014          499 1.0346408e-12 4.7138273e-14          0.1 0.0090174189    57.136619  0.029870961 
number of iterations: 2071 
   23800    65.633802     1533         1032          501 1.048352e-12 4.7617366e-14          0.1 0.0090176721    57.930021  0.029870539 
number of iterations: 2039 
   23900    65.855312     1548         1040          508 1.0622448e-12 4.8101751e-14          0.1 0.0090179024    58.733964  0.029870155 
number of iterations: 2030 
   24000     66.07303     1575         1057          518 1.0763218e-12 4.8591482e-14          0.1 0.0090181224     59.54859  0.029869788 
number of iterations: 2061 
   24100    66.317914     1588         1066          522 1.0905853e-12 4.9086619e-14          0.1 0.0090183879    60.374038  0.029869346 
number of iterations: 2037 
   24200    66.547645     1607         1084          523 1.1050378e-12 4.9587219e-14          0.1 0.0090186039    61.210452  0.029868986 
number of iterations: 2044 
   24300     66.77159     1632         1102          530 1.1196819e-12 5.0093341e-14          0.1 0.0090188523     62.05798  0.029868572 
number of iterations: 2047 
   24400    66.989324     1650         1118          532  1.13452e-12 5.0605045e-14          0.1 0.0090190877    62.916769   0.02986818 
number of iterations: 2047 
   24500    67.252657     1673         1138          535 1.1495547e-12 5.1122391e-14          0.1 0.0090193189    63.786966  0.029867794 
number of iterations: 2063 
   24600    67.478847     1697         1154          543 1.1647887e-12 5.164544e-14          0.1 0.0090195778    64.668726  0.029867363 
number of iterations: 2056 
   24700    67.710468     1714         1165          549 1.1802245e-12 5.2174253e-14          0.1 0.0090198116      65.5622  0.029866973 
number of iterations: 2072 
   24800    67.945811     1740         1182          558 1.195865e-12 5.2708893e-14          0.1 0.0090200615    66.467545  0.029866556 
number of iterations: 2092 
   24900    68.182447     1762         1197          565 1.2117126e-12 5.3249423e-14          0.1 0.0090203705    67.384919  0.029866042 
number of iterations: 2085 
   25000    68.403311     1784         1214          570 1.2277703e-12 5.3795906e-14          0.1 0.0090206214    68.314481  0.029865623 
number of iterations: 2072 
   25100    68.626313     1804         1228          576 1.2440408e-12 5.4348405e-14          0.1   0.00902089    69.256393  0.029865176 
number of iterations: 2058 
   25200    68.859606     1827         1244          583 1.2605269e-12 5.4906987e-14          0.1 0.0090211378     70.21082  0.029864763 
number of iterations: 2108 
   25300    69.075507     1852         1264          588 1.2772315e-12 5.5471717e-14          0.1 0.0090214108    71.177927  0.029864308 
number of iterations: 2098 
   25400    69.297514     1868         1279          589 1.2941575e-12 5.6042659e-14          0.1 0.0090216847    72.157883  0.029863851 
number of iterations: 2098 
   25500    69.539404     1892         1295          597 1.3113077e-12 5.6619884e-14          0.1 0.0090219775    73.150858  0.029863363 
number of iterations: 2091 
   25600    69.748309     1917         1313          604 1.3286852e-12 5.7203457e-14          0.1 0.0090222714    74.157025  0.029862873 
number of iterations: 2107 
   25700    69.985909     1936         1330          606 1.346293e-12 5.7793447e-14          0.1 0.0090225647    75.176559  0.029862385 
number of iterations: 2113 
   25800    70.212064     1966         1353          613 1.3641342e-12 5.8389925e-14          0.1  0.009022872    76.209637  0.029861872 
number of iterations: 2106 
   25900    70.567319     1988         1369          619 1.3822118e-12 5.8992958e-14          0.1 0.0090231871    77.256439  0.029861347 
number of iterations: 2135 
   26000    70.839336     2013         1386          627 1.4005289e-12 5.9602621e-14          0.1 0.0090235066     78.31715  0.029860815 
number of iterations: 2084 
   26100     71.06513     2033         1400          633 1.4190888e-12 6.0218982e-14          0.1  0.009023809    79.391951  0.029860311 
number of iterations: 2109 
   26200    71.320709     2056         1416          640 1.4378946e-12 6.0842116e-14          0.1 0.0090241381    80.481032  0.029859762 
number of iterations: 2121 
   26300    71.569212     2074         1426          648 1.4569496e-12 6.1472094e-14          0.1 0.0090244796    81.584579  0.029859193 
number of iterations: 2103 
   26400      71.7879     2106         1450          656 1.4762572e-12 6.2108992e-14          0.1 0.0090248082    82.702786  0.029858645 
number of iterations: 2107 
   26500    72.017942     2147         1475          672 1.4958206e-12 6.2752885e-14          0.1 0.0090251039    83.835849  0.029858152 
number of iterations: 2116 
   26600    72.260423     2174         1493          681 1.5156433e-12 6.3403846e-14          0.1 0.0090254466    84.983964  0.029857581 
number of iterations: 2117 
   26700    72.487147     2199         1513          686 1.5357286e-12 6.4061953e-14          0.1 0.0090257804    86.147332  0.029857025 
number of iterations: 2111 
   26800     72.73291     2234         1540          694 1.5560802e-12 6.4727283e-14          0.1 0.0090260985    87.326156  0.029856495 
number of iterations: 2130 
   26900    72.980307     2259         1562          697 1.5767014e-12 6.5399914e-14          0.1 0.0090264294    88.520639  0.029855943 
number of iterations: 2143 
   27000    73.235654     2286         1583          703 1.5975959e-12 6.6079925e-14          0.1 0.0090267899    89.730991  0.029855342 
number of iterations: 2154 
   27100    73.536529     2312         1602          710 1.6187673e-12 6.6767395e-14          0.1 0.0090271512    90.957422   0.02985474 
number of iterations: 2126 
   27200    73.827766     2342         1624          718 1.6402192e-12 6.7462407e-14          0.1 0.0090275013    92.200144  0.029854157 
number of iterations: 2131 
   27300    74.062855     2366         1641          725 1.6619554e-12 6.816504e-14          0.1 0.0090278428    93.459377  0.029853588 
number of iterations: 2144 
   27400    74.293707     2400         1667          733 1.6839797e-12 6.8875379e-14          0.1 0.0090282433    94.735337   0.02985292 
number of iterations: 2139 
   27500     74.52102     2426         1690          736 1.7062958e-12 6.9593506e-14          0.1 0.0090286228    96.028248  0.029852288 
number of iterations: 2153 
   27600    74.749347     2451         1707          744 1.7289077e-12 7.0319504e-14          0.1 0.0090289904    97.338333  0.029851675 
number of iterations: 2158 
   27700    74.988046     2476         1723          753 1.7518192e-12 7.1053459e-14          0.1 0.0090293793    98.665823  0.029851027 
number of iterations: 2172 
   27800     75.23035     2513         1745          768 1.7750343e-12 7.179546e-14          0.1 0.0090298092    100.01095  0.029850311 
number of iterations: 2179 
   27900    75.525603     2542         1763          779 1.7985571e-12 7.254559e-14          0.1 0.0090302206    101.37394  0.029849625 
number of iterations: 2162 
   28000    75.869404     2572         1784          788 1.8223916e-12 7.3303939e-14          0.1 0.0090305918    102.75503  0.029849006 
number of iterations: 2155 
   28100    76.104093     2600         1804          796 1.8465419e-12 7.4070596e-14          0.1 0.0090309758    104.15448  0.029848366 
number of iterations: 2158 
   28200    76.359558     2641         1838          803 1.8710123e-12 7.4845651e-14          0.1 0.0090313694    105.57251   0.02984771 
number of iterations: 2190 
   28300    76.601675     2668         1857          811 1.895807e-12 7.5629195e-14          0.1 0.0090318305    107.00939  0.029846942 
number of iterations: 2138 
   28400     76.83764     2699         1881          818 1.9209302e-12 7.642132e-14          0.1 0.0090322182    108.46534  0.029846295 
number of iterations: 2144 
   28500    77.082994     2745         1917          828 1.9463863e-12 7.7222119e-14          0.1 0.0090325983    109.94064  0.029845662 
number of iterations: 2165 
   28600    77.324056     2780         1939          841 1.9721799e-12 7.8031685e-14          0.1 0.0090330076    111.43554   0.02984498 
number of iterations: 2171 
   28700    77.631546     2813         1962          851 1.9983152e-12 7.8850112e-14          0.1 0.0090334368    112.95029  0.029844265 
number of iterations: 2159 
   28800    77.869925     2844         1985          859 2.0247968e-12 7.9677498e-14          0.1 0.0090338791    114.48517  0.029843528 
number of iterations: 2168 
   28900    78.114453     2874         2012          862 2.0516294e-12 8.0513939e-14          0.1 0.0090342961    116.04043  0.029842832 
number of iterations: 2172 
   29000    78.366121     2911         2043          868 2.0788176e-12 8.1359531e-14          0.1  0.009034708    117.61635  0.029842146 
number of iterations: 2205 
   29100    78.621885     2953         2076          877 2.106366e-12 8.2214378e-14          0.1 0.0090351953    119.21321  0.029841334 
number of iterations: 2187 
   29200    78.896082     2985         2103          882 2.1342795e-12 8.3078578e-14          0.1 0.0090356519    120.83127  0.029840573 
number of iterations: 2203 
   29300    79.135618     3022         2131          891 2.162563e-12 8.3952232e-14          0.1 0.0090361145    122.47084  0.029839802 
number of iterations: 2205 
   29400    79.397468     3060         2158          902 2.1912212e-12 8.4835444e-14          0.1 0.0090365801    124.13217  0.029839026 
number of iterations: 2206 
   29500    79.662829     3091         2179          912 2.2202592e-12 8.5728316e-14          0.1 0.0090370678    125.81558  0.029838213 
number of iterations: 2193 
   29600     79.90779     3124         2204          920 2.249682e-12 8.6630954e-14          0.1 0.0090375401    127.52135  0.029837426 
number of iterations: 2216 
   29700    80.164041     3164         2235          929 2.2794947e-12 8.7543461e-14          0.1  0.009038041    129.24978  0.029836592 
number of iterations: 2189 
   29800    80.454406     3200         2268          932 2.3097025e-12 8.8465946e-14          0.1  0.009038539    131.00116  0.029835761 
number of iterations: 2254 
   29900    80.781874     3246         2296          950 2.3403106e-12 8.9398517e-14          0.1 0.0090390804    132.77581  0.029834859 
number of iterations: 2203 
   30000    81.036655     3292         2331          961 2.3713243e-12 9.0341282e-14          0.1 0.0090396062    134.57403  0.029833983 
number of iterations: 2216 
   30100    81.302552     3343         2373          970 2.402749e-12 9.1294356e-14          0.1 0.0090401297    136.39613   0.02983311 
number of iterations: 2257 
   30200    81.555992     3381         2400          981 2.4345901e-12 9.2257848e-14          0.1 0.0090407013    138.24244  0.029832158 
number of iterations: 2196 
   30300    81.836066     3425         2432          993 2.4668532e-12 9.323187e-14          0.1   0.00904119    140.11328  0.029831344 
number of iterations: 2247 
   30400    82.092415     3470         2462         1008 2.4995438e-12 9.4216538e-14          0.1 0.0090417797    142.00896  0.029830361 
number of iterations: 2214 
   30500    82.329441     3509         2492         1017 2.5326676e-12 9.5211966e-14          0.1 0.0090422986    143.92982  0.029829496 
number of iterations: 2246 
   30600    82.582047     3550         2525         1025 2.5662304e-12 9.6218272e-14          0.1 0.0090428615     145.8762  0.029828558 
number of iterations: 2257 
   30700    82.820688     3597         2556         1041 2.6002379e-12 9.7235572e-14          0.1  0.009043461    147.84843  0.029827559 
number of iterations: 2243 
   30800    83.079643     3650         2594         1056 2.6346961e-12 9.8263987e-14          0.1 0.0090440187    149.84686   0.02982663 
number of iterations: 2226 
   30900    83.350149     3698         2634         1064 2.6696109e-12 9.9303636e-14          0.1  0.009044549    151.87182  0.029825746 
number of iterations: 2253 
   31000    83.649451     3749         2680         1069 2.7049884e-12 1.0035464e-13          0.1 0.0090451187    153.92369  0.029824796 
number of iterations: 2254 
   31100    83.973076     3792         2710         1082 2.7408347e-12 1.0141713e-13          0.1 0.0090457601    156.00281  0.029823728 
number of iterations: 2225 
   31200    84.288186     3847         2753         1094 2.777156e-12 1.0249122e-13          0.1 0.0090463284    158.10955  0.029822781 
number of iterations: 2266 
   31300    84.538404     3894         2795         1099 2.8139587e-12 1.0357703e-13          0.1 0.0090469815    160.24427  0.029821692 
number of iterations: 2274 
   31400    84.817957     3941         2827         1114 2.8512491e-12 1.0467471e-13          0.1 0.0090476082    162.40735  0.029820648 
number of iterations: 2262 
   31500    85.058296     3984         2859         1125 2.8890336e-12 1.0578437e-13          0.1    0.0090482    164.59915  0.029819662 
number of iterations: 2255 
   31600    85.317258     4033         2895         1138 2.9273188e-12 1.0690615e-13          0.1 0.0090488256    166.82007  0.029818619 
number of iterations: 2258 
   31700     85.63844     4083         2931         1152 2.9661114e-12 1.0804018e-13          0.1 0.0090494799    169.07049  0.029817529 
number of iterations: 2265 
   31800    85.905596     4124         2965         1159 3.0042423e-12 1.0918659e-13          0.1 0.0090500922     171.3499  0.029816508 
number of iterations: 2259 
   31900    86.150133     4176         3008         1168 3.0440543e-12 1.1034552e-13          0.1 0.0090507413    173.65958  0.029815426 
number of iterations: 2310 
   32000    86.413407     4231         3051         1180 3.0834253e-12 1.1151709e-13          0.1 0.0090514362     175.9992  0.029814269 
number of iterations: 2275 
   32100    86.695713     4274         3083         1191 3.1230561e-12 1.1270146e-13          0.1  0.009052104    178.36895  0.029813156 
number of iterations: 2275 
   32200    86.987455     4323         3125         1198 3.1644425e-12 1.1389875e-13          0.1 0.0090528049    180.77018  0.029811988 
number of iterations: 2279 
   32300    87.251802     4373         3160         1213 3.2063773e-12 1.1510911e-13          0.1 0.0090534959    183.20329  0.029810836 
number of iterations: 2270 
   32400    87.506027     4416         3187         1229 3.2488679e-12 1.1633268e-13          0.1 0.0090541876    185.66872  0.029809683 
number of iterations: 2275 
   32500    87.801407     4466         3228         1238 3.2919215e-12 1.175696e-13          0.1 0.0090548928    188.16689  0.029808508 
number of iterations: 2286 
   32600    88.094209     4533         3281         1252 3.3342653e-12 1.1882003e-13          0.1 0.0090555896    190.69726  0.029807347 
number of iterations: 2270 
   32700    88.365284     4594         3329         1265 3.3784505e-12 1.2008409e-13          0.1 0.0090562959    193.26124   0.02980617 
number of iterations: 2281 
   32800    88.633034     4649         3370         1279 3.4209893e-12 1.2136195e-13          0.1 0.0090570071    195.85755  0.029804985 
number of iterations: 2294 
   32900    88.910655     4715         3418         1297 3.4663238e-12 1.2265375e-13          0.1 0.0090577644    198.48836  0.029803723 
number of iterations: 2298 
   33000    89.199737     4772         3461         1311 3.5112809e-12 1.2395964e-13          0.1 0.0090585355    201.15337  0.029802438 
number of iterations: 2287 
   33100    89.478232     4833         3506         1327 3.5578119e-12 1.2527978e-13          0.1 0.0090592941    203.85377  0.029801174 
number of iterations: 2301 
   33200    89.749324     4914         3561         1353 3.6049595e-12 1.2661432e-13          0.1 0.0090600681    206.59003  0.029799884 
number of iterations: 2297 
   33300    90.055911     4982         3615         1367 3.6527319e-12 1.2796341e-13          0.1 0.0090608396    209.36264  0.029798598 
number of iterations: 2284 
   33400    90.368166     5041         3657         1384  3.69999e-12 1.2932723e-13          0.1 0.0090615844     212.1712  0.029797357 
number of iterations: 2327 
   33500    90.718073     5103         3707         1396 3.7490217e-12 1.3070592e-13          0.1 0.0090624728    215.01705  0.029795877 
number of iterations: 2311 
   33600    90.982196     5158         3749         1409 3.7978361e-12 1.3209965e-13          0.1 0.0090633014    217.90005  0.029794496 
number of iterations: 2310 
   33700    91.236891     5223         3799         1424 3.8481644e-12 1.3350858e-13          0.1 0.0090641066    220.82134  0.029793154 
number of iterations: 2315 
   33800    91.509316     5273         3836         1437 3.8991596e-12 1.3493288e-13          0.1 0.0090649408    223.78143  0.029791764 
number of iterations: 2315 
   33900     91.81908     5339         3892         1447 3.9508307e-12 1.3637271e-13          0.1 0.0090657662    226.78085  0.029790388 
number of iterations: 2307 
   34000    92.101088     5400         3936         1464 4.0020477e-12 1.3782824e-13          0.1 0.0090666046    229.81923  0.029788991 
number of iterations: 2327 
   34100     92.37444     5463         3983         1480 4.0536714e-12 1.3929965e-13          0.1  0.009067466     232.8969  0.029787556 
number of iterations: 2319 
   34200    92.642808     5529         4031         1498 4.1073899e-12 1.407871e-13          0.1 0.0090683575    236.01542   0.02978607 
number of iterations: 2341 
   34300    92.933351     5602         4087         1515 4.1618203e-12 1.4229078e-13          0.1 0.0090692649    239.17536  0.029784558 
number of iterations: 2331 
   34400    93.238677     5661         4130         1531 4.216972e-12 1.4381085e-13          0.1 0.0090701454    242.37725  0.029783091 
number of iterations: 2345 
   34500     93.54645     5739         4179         1560 4.2728545e-12 1.4534749e-13          0.1 0.0090710939    245.62167   0.02978151 
number of iterations: 2346 
   34600     93.83722     5809         4235         1574 4.3285038e-12 1.4690089e-13          0.1 0.0090720265    248.90842  0.029779956 
number of iterations: 2342 
   34700    94.127543     5889         4301         1588 4.3832253e-12 1.4847122e-13          0.1 0.0090729675    252.23685  0.029778388 
number of iterations: 2345 
   34800    94.397334     5963         4361         1602 4.4413109e-12 1.5005868e-13          0.1 0.0090739467    255.60949  0.029776756 
number of iterations: 2346 
   34900    94.688081     6043         4417         1626 4.5001662e-12 1.5166344e-13          0.1 0.0090749157     259.0269  0.029775142 
number of iterations: 2357 
   35000    94.969281     6142         4495         1647 4.5598015e-12 1.5328569e-13          0.1 0.0090759753     262.4897  0.029773376 
Loop time of 94.9693 on 32 procs for 35000 steps with 6142 atoms

Performance: 318418617.097 tau/day, 368.540 timesteps/s
92.4% CPU use with 32 MPI tasks x no OpenMP threads

MPI task timing breakdown:
Section |  min time  |  avg time  |  max time  |%varavg| %total
---------------------------------------------------------------
Pair    | 0.0018515  | 0.091667   | 0.20704    |  16.6 |  0.10
Neigh   | 0.0026792  | 0.029017   | 0.064471   |   8.9 |  0.03
Comm    | 0.028574   | 0.17427    | 0.27143    |  14.1 |  0.18
Output  | 23.653     | 23.653     | 23.662     |   0.0 | 24.91
Modify  | 70.488     | 70.556     | 70.618     |   0.4 | 74.29
Other   |            | 0.4648     |            |       |  0.49

Nlocal:    191.938 ave 405 max 0 min
Histogram: 1 2 6 3 8 1 4 5 1 1
Nghost:    96.875 ave 219 max 1 min
Histogram: 1 6 1 4 5 8 4 2 0 1
Neighs:    749.812 ave 1782 max 0 min
Histogram: 1 4 7 6 3 2 5 3 0 1

Total # of neighbors = 23994
Ave neighs/atom = 3.90655
Neighbor list builds = 689
Dangerous builds = 0
Total wall time: 0:01:35
