LAMMPS (20 Nov 2019)
Reading data file ...
  orthogonal box = (0 0 0) to (0.001 0.001 0.0001)
  2 by 3 by 1 MPI processor grid
  reading atoms ...
  2 atoms
  4 nutrients
Lattice spacing in x,y,z = 100 100 100
1 atoms in group CYANO
1 atoms in group ECW
Model is defined as a closed system. 
Neighbor list info ...
  update every 1 steps, delay 0 steps, check yes
  max neighbors/atom: 5000, page size: 100000
  master list distance cutoff = 1.89e-06
  ghost atom cutoff = 1.89e-06
  binsize = 9.45e-07, bins = 1059 1059 106
  1 neighbor lists, perpetual/occasional/extra = 1 0 0
  (1) pair gran/hooke/history, perpetual
      attributes: half, newton off, size, history
      pair build: half/size/bin/newtoff
      stencil: half/bin/3d/newtoff
      bin: standard
Setting up Verlet run ...
  Unit style    : lj
  Current step  : 0
  Time step     : 10
Per MPI rank memory allocation (min/avg/max) = 84.25 | 92.35 | 108.5 Mbytes
Step CPU Atoms c_myNtypes[1] c_myNtypes[2] c_myMass[1] c_myMass[2] c_myCon[1] c_myCon[2] c_myCon[3] c_myCon[4] 
       0            0        2            1            1 5.2028912e-16 1.3941014e-16          0.1        0.009     3.42e-20       0.0299 
number of iterations: 578271 
     100    4.6805478        3            1            2 5.2851577e-16 1.3941014e-16          0.1 0.0090000007 3.0365516e-08  0.029899999 
number of iterations: 265247 
     200    6.5862096        3            1            2 5.368725e-16 1.3941014e-16          0.1 0.0090000007 1.2525867e-07  0.029899999 
number of iterations: 172130 
     300    8.1012173        3            1            2 5.4536136e-16 1.3941014e-16          0.1 0.0090000007 2.7321518e-07  0.029899999 
number of iterations: 147019 
     400    9.2633028        3            1            2 5.5398444e-16 1.3941014e-16          0.1 0.0090000008 4.436271e-07  0.029899999 
number of iterations: 127983 
     500    10.236723        3            1            2 5.6274387e-16 1.3941014e-16          0.1 0.0090000008 6.3460845e-07  0.029899999 
number of iterations: 112955 
     600    11.056992        3            1            2 5.716418e-16 1.3941014e-16          0.1 0.0090000008 8.4464352e-07  0.029899999 
number of iterations: 100709 
     700    11.779276        3            1            2 5.8068042e-16 1.3941014e-16          0.1 0.0090000008 1.0725227e-06  0.029899999 
number of iterations: 90478 
     800     12.43075        3            1            2 5.8986196e-16 1.3941015e-16          0.1 0.0090000008 1.3172764e-06  0.029899999 
number of iterations: 81757 
     900    13.167607        3            1            2 5.9918867e-16 1.3941015e-16          0.1 0.0090000008 1.5781236e-06  0.029899999 
number of iterations: 74201 
    1000    14.117144        3            1            2 6.0866285e-16 1.3941015e-16          0.1 0.0090000008 1.854431e-06  0.029899999 
number of iterations: 67569 
    1100    14.612834        3            1            2 6.1828684e-16 1.3941016e-16          0.1 0.0090000009 2.1456766e-06  0.029899999 
number of iterations: 61681 
    1200    15.083731        3            1            2  6.28063e-16 1.3941016e-16          0.1 0.0090000009 2.4514349e-06  0.029899999 
number of iterations: 56403 
    1300    15.546131        3            1            2 6.3799373e-16 1.3941017e-16          0.1 0.0090000009 2.7713575e-06  0.029899999 
number of iterations: 51637 
    1400     15.98949        3            1            2 6.4808149e-16 1.3941017e-16          0.1 0.0090000009 3.1051519e-06  0.029899999 
number of iterations: 47300 
    1500    16.400373        3            1            2 6.5832875e-16 1.3941018e-16          0.1 0.0090000009 3.4525836e-06  0.029899999 
number of iterations: 43330 
    1600     16.77643        3            1            2 6.6873804e-16 1.3941019e-16          0.1 0.0090000009 3.813461e-06  0.029899999 
number of iterations: 39679 
    1700    17.106664        3            1            2 6.7931191e-16 1.394102e-16          0.1 0.0090000009 4.187624e-06  0.029899998 
number of iterations: 36303 
    1800    17.416074        3            1            2 6.9005298e-16 1.3941021e-16          0.1  0.009000001 4.5749506e-06  0.029899998 
number of iterations: 33170 
    1900    17.737105        3            1            2 7.0096388e-16 1.3941022e-16          0.1  0.009000001 4.9753422e-06  0.029899998 
number of iterations: 30251 
    2000    18.418072        3            1            2 7.120473e-16 1.3941023e-16          0.1  0.009000001 5.388726e-06  0.029899998 
number of iterations: 27523 
    2100    18.691986        3            1            2 7.2330597e-16 1.3941024e-16          0.1  0.009000001 5.8150491e-06  0.029899998 
number of iterations: 24965 
    2200    18.947762        3            1            2 7.3474266e-16 1.3941026e-16          0.1  0.009000001 6.2542791e-06  0.029899998 
number of iterations: 22560 
    2300    19.205398        3            1            2 7.4636018e-16 1.3941027e-16          0.1  0.009000001 6.7064003e-06  0.029899998 
number of iterations: 20293 
    2400    19.447648        3            1            2 7.5816139e-16 1.3941029e-16          0.1 0.0090000011 7.171413e-06  0.029899998 
number of iterations: 18152 
    2500    19.651644        3            1            2 7.701492e-16 1.394103e-16          0.1 0.0090000011 7.649329e-06  0.029899998 
number of iterations: 16125 
    2600    19.886984        3            1            2 7.8232656e-16 1.3941032e-16          0.1 0.0090000011 8.1401749e-06  0.029899998 
number of iterations: 14203 
    2700    20.085137        3            1            2 7.9469646e-16 1.3941034e-16          0.1 0.0090000011 8.6439869e-06  0.029899998 
number of iterations: 12376 
    2800    20.255273        3            1            2 8.0726195e-16 1.3941036e-16          0.1 0.0090000011 9.1608157e-06  0.029899998 
number of iterations: 10638 
    2900    20.411628        3            1            2 8.2002613e-16 1.3941038e-16          0.1 0.0090000011 9.6907173e-06  0.029899998 
number of iterations: 8982 
    3000    21.030008        3            1            2 8.3299212e-16 1.394104e-16          0.1 0.0090000012 1.0233758e-05  0.029899998 
number of iterations: 7400 
    3100    21.177673        3            1            2 8.4616313e-16 1.3941043e-16          0.1 0.0090000012 1.0790017e-05  0.029899998 
number of iterations: 7353 
    3200    21.317555        3            1            2 8.595424e-16 1.3941045e-16          0.1 0.0090000012 1.1359577e-05  0.029899998 
number of iterations: 7430 
    3300    21.480978        3            1            2 8.7313321e-16 1.3941048e-16          0.1 0.0090000012 1.1942529e-05  0.029899998 
number of iterations: 7508 
    3400    21.618761        3            1            2 8.8693892e-16 1.3941051e-16          0.1 0.0090000012 1.2538977e-05  0.029899998 
number of iterations: 7585 
    3500    21.741449        3            1            2 9.0096292e-16 1.3941054e-16          0.1 0.0090000013 1.3149021e-05  0.029899998 
number of iterations: 7664 
    3600    21.881265        3            1            2 9.1520866e-16 1.3941057e-16          0.1 0.0090000013 1.3772777e-05  0.029899998 
number of iterations: 7743 
    3700    21.998203        3            1            2 9.2967966e-16 1.394106e-16          0.1 0.0090000013 1.4407856e-05  0.029899998 
number of iterations: 7822 
    3800    22.117849        3            1            2 9.4437946e-16 1.3941063e-16          0.1 0.0090000013 1.5052977e-05  0.029899998 
number of iterations: 7902 
    3900    22.236217        3            1            2 9.5931169e-16 1.3941067e-16          0.1 0.0090000013 1.5708298e-05  0.029899998 
number of iterations: 7983 
    4000    22.836318        3            1            2 9.7448003e-16 1.3941071e-16          0.1 0.0090000014 1.637398e-05  0.029899998 
number of iterations: 8063 
    4100    23.023165        3            1            2 9.898882e-16 1.3941074e-16          0.1 0.0090000014 1.7050189e-05  0.029899998 
number of iterations: 8145 
    4200    23.177914        3            1            2  1.00554e-15 1.3941078e-16          0.1 0.0090000014 1.7737089e-05  0.029899998 
number of iterations: 8227 
    4300    23.317476        3            1            2 1.0214393e-15 1.3941083e-16          0.1 0.0090000014 1.843485e-05  0.029899998 
number of iterations: 8309 
    4400    23.480147        3            1            2  1.03759e-15 1.3941087e-16          0.1 0.0090000015 1.9143644e-05  0.029899998 
number of iterations: 8393 
    4500    23.628017        3            1            2 1.053996e-15 1.3941091e-16          0.1 0.0090000015 1.9863645e-05  0.029899998 
number of iterations: 8476 
    4600    23.774503        3            1            2 1.0706615e-15 1.3941096e-16          0.1 0.0090000015 2.0595031e-05  0.029899998 
number of iterations: 8560 
    4700    23.950879        3            1            2 1.0875904e-15 1.3941101e-16          0.1 0.0090000015 2.1337981e-05  0.029899998 
number of iterations: 8644 
    4800    24.094189        3            1            2 1.1047871e-15 1.3941106e-16          0.1 0.0090000016 2.2092679e-05  0.029899997 
number of iterations: 8729 
    4900    24.221733        3            1            2 1.1222556e-15 1.3941111e-16          0.1 0.0090000016 2.2859309e-05  0.029899997 
number of iterations: 8815 
    5000    24.745557        3            1            2 1.1400004e-15 1.3941116e-16          0.1 0.0090000016 2.3638061e-05  0.029899997 
number of iterations: 8901 
    5100    24.938147        3            1            2 1.1580257e-15 1.3941122e-16          0.1 0.0090000016 2.4429126e-05  0.029899997 
number of iterations: 8987 
    5200    25.072809        3            1            2 1.176336e-15 1.3941128e-16          0.1 0.0090000017  2.52327e-05  0.029899997 
number of iterations: 9074 
    5300    25.204484        3            1            2 1.1949359e-15 1.3941133e-16          0.1 0.0090000017 2.6048979e-05  0.029899997 
number of iterations: 9162 
    5400    25.330411        3            1            2 1.2138298e-15 1.394114e-16          0.1 0.0090000017 2.6878165e-05  0.029899997 
number of iterations: 9249 
    5500    25.455559        3            1            2 1.2330225e-15 1.3941146e-16          0.1 0.0090000017 2.7720466e-05  0.029899997 
number of iterations: 9338 
    5600    25.579151        3            1            2 1.2525187e-15 1.3941152e-16          0.1 0.0090000018 2.8576086e-05  0.029899997 
number of iterations: 9427 
    5700    25.707412        3            1            2 1.2723231e-15 1.3941159e-16          0.1 0.0090000018 2.9445234e-05  0.029899997 
number of iterations: 9516 
    5800     25.83148        3            1            2 1.2924407e-15 1.3941166e-16          0.1 0.0090000018 3.0328124e-05  0.029899997 
number of iterations: 9606 
    5900    25.967465        3            1            2 1.3128764e-15 1.3941173e-16          0.1 0.0090000018 3.1224975e-05  0.029899997 
number of iterations: 9697 
    6000    26.497731        3            1            2 1.3336352e-15 1.394118e-16          0.1 0.0090000019 3.2136006e-05  0.029899997 
number of iterations: 9787 
    6100    26.626429        3            1            2 1.3547222e-15 1.3941188e-16          0.1 0.0090000019 3.3061443e-05  0.029899997 
number of iterations: 9879 
    6200    26.756514        3            1            2 1.3761426e-15 1.3941196e-16          0.1 0.0090000019 3.4001512e-05  0.029899997 
number of iterations: 9970 
    6300    26.887393        3            1            2 1.3979018e-15 1.3941204e-16          0.1  0.009000002 3.4956445e-05  0.029899997 
number of iterations: 10063 
    6400    27.017603        3            1            2 1.4200049e-15 1.3941212e-16          0.1  0.009000002 3.5926477e-05  0.029899997 
number of iterations: 10156 
    6500    27.153413        3            1            2 1.4424576e-15 1.394122e-16          0.1  0.009000002 3.6911847e-05  0.029899997 
number of iterations: 10249 
    6600      27.3205        3            1            2 1.4652653e-15 1.3941229e-16          0.1 0.0090000021 3.7912797e-05  0.029899997 
number of iterations: 31892 
    6700    27.886832        4            2            2 1.4884336e-15 1.3941238e-16          0.1  0.009000002 3.8929571e-05  0.029899997 
number of iterations: 6251 
    6800     28.05582        4            2            2 1.5119683e-15 1.3941247e-16          0.1  0.009000002 3.9962422e-05  0.029899997 
number of iterations: 7742 
    6900    28.232903        4            2            2 1.535875e-15 1.3941256e-16          0.1  0.009000002 4.1011604e-05  0.029899997 
number of iterations: 8091 
    7000    28.764696        4            2            2 1.5601598e-15 1.3941266e-16          0.1  0.009000002 4.2077375e-05  0.029899997 
number of iterations: 8305 
    7100     28.89253        4            2            2 1.5848286e-15 1.3941275e-16          0.1  0.009000002 4.3159998e-05  0.029899997 
number of iterations: 8454 
    7200    29.019872        4            2            2 1.6098874e-15 1.3941286e-16          0.1 0.0090000021 4.4259739e-05  0.029899997 
number of iterations: 8570 
    7300    29.146509        4            2            2 1.6353424e-15 1.3941296e-16          0.1 0.0090000021 4.5376868e-05  0.029899997 
number of iterations: 8672 
    7400     29.27471        4            2            2 1.6611999e-15 1.3941307e-16          0.1 0.0090000021 4.6511662e-05  0.029899997 
number of iterations: 8767 
    7500    29.397936        4            2            2 1.6874663e-15 1.3941317e-16          0.1 0.0090000022 4.7664398e-05  0.029899996 
number of iterations: 8859 
    7600    29.527289        4            2            2 1.714148e-15 1.3941329e-16          0.1 0.0090000022 4.8835361e-05  0.029899996 
number of iterations: 8950 
    7700    29.657415        4            2            2 1.7412516e-15 1.394134e-16          0.1 0.0090000022 5.0024839e-05  0.029899996 
number of iterations: 9040 
    7800    29.784744        4            2            2 1.7687837e-15 1.3941352e-16          0.1 0.0090000023 5.1233124e-05  0.029899996 
number of iterations: 9130 
    7900    29.926077        4            2            2 1.7967511e-15 1.3941364e-16          0.1 0.0090000023 5.2460515e-05  0.029899996 
number of iterations: 9221 
    8000    30.526419        4            2            2 1.8251608e-15 1.3941376e-16          0.1 0.0090000023 5.3707312e-05  0.029899996 
number of iterations: 9311 
    8100     30.66692        4            2            2 1.8540197e-15 1.3941388e-16          0.1 0.0090000024 5.4973824e-05  0.029899996 
number of iterations: 9403 
    8200    30.797014        4            2            2 1.8833349e-15 1.3941401e-16          0.1 0.0090000024 5.6260361e-05  0.029899996 
number of iterations: 9495 
    8300    30.953742        4            2            2 1.9131136e-15 1.3941414e-16          0.1 0.0090000025 5.756724e-05  0.029899996 
number of iterations: 9587 
    8400    31.116326        4            2            2 1.9433631e-15 1.3941428e-16          0.1 0.0090000025 5.8894784e-05  0.029899996 
number of iterations: 9680 
    8500    31.275293        4            2            2 1.974091e-15 1.3941442e-16          0.1 0.0090000025 6.0243318e-05  0.029899996 
number of iterations: 9773 
    8600    31.412825        4            2            2 2.0053047e-15 1.3941456e-16          0.1 0.0090000026 6.1613174e-05  0.029899996 
number of iterations: 9867 
    8700    31.548909        4            2            2 2.0370119e-15 1.394147e-16          0.1 0.0090000026 6.3004691e-05  0.029899996 
number of iterations: 9962 
    8800    31.780859        4            2            2 2.0692205e-15 1.3941485e-16          0.1 0.0090000027 6.4418209e-05  0.029899996 
number of iterations: 10056 
    8900    31.911181        4            2            2 2.1019384e-15  1.39415e-16          0.1 0.0090000027 6.5854078e-05  0.029899996 
number of iterations: 10152 
    9000    32.477437        4            2            2 2.1351736e-15 1.3941515e-16          0.1 0.0090000027 6.731265e-05  0.029899995 
number of iterations: 10248 
    9100    32.630236        4            2            2 2.1689343e-15 1.3941531e-16          0.1 0.0090000028 6.8794285e-05  0.029899995 
number of iterations: 10344 
    9200    32.813038        4            2            2 2.2032288e-15 1.3941547e-16          0.1 0.0090000028 7.0299346e-05  0.029899995 
number of iterations: 10441 
    9300    33.012341        4            2            2 2.2380655e-15 1.3941564e-16          0.1 0.0090000029 7.1828206e-05  0.029899995 
number of iterations: 10539 
    9400     33.16306        4            2            2 2.2734531e-15 1.394158e-16          0.1 0.0090000029 7.3381239e-05  0.029899995 
number of iterations: 10636 
    9500    33.301704        4            2            2 2.3094002e-15 1.3941598e-16          0.1  0.009000003 7.4958828e-05  0.029899995 
number of iterations: 10735 
    9600    33.435195        4            2            2 2.3459158e-15 1.3941615e-16          0.1  0.009000003 7.6561361e-05  0.029899995 
number of iterations: 10834 
    9700    33.572638        4            2            2 2.3830086e-15 1.3941633e-16          0.1 0.0090000031 7.8189234e-05  0.029899995 
number of iterations: 10933 
    9800    33.721222        4            2            2 2.420688e-15 1.3941651e-16          0.1 0.0090000031 7.9842845e-05  0.029899995 
number of iterations: 11033 
    9900    33.899966        4            2            2 2.4589632e-15 1.394167e-16          0.1 0.0090000032 8.1522603e-05  0.029899995 
number of iterations: 11133 
   10000    34.371937        4            2            2 2.4978435e-15 1.3941689e-16          0.1 0.0090000032 8.3228921e-05  0.029899995 
number of iterations: 31354 
   10100    34.753401        5            3            2 2.5373387e-15 1.3941709e-16          0.1 0.0090000034 8.4962221e-05  0.029899994 
number of iterations: 12024 
   10200    34.895964        5            3            2 2.5774583e-15 1.3941728e-16          0.1 0.0090000035 8.6722927e-05  0.029899994 
number of iterations: 12282 
   10300    35.053315        5            3            2 2.6182122e-15 1.3941749e-16          0.1 0.0090000035 8.8511472e-05  0.029899994 
number of iterations: 12415 
   10400    35.200279        5            3            2 2.6596106e-15 1.3941769e-16          0.1 0.0090000036 9.0328298e-05  0.029899994 
number of iterations: 12526 
   10500    35.343795        5            3            2 2.7016635e-15 1.3941791e-16          0.1 0.0090000036 9.2173851e-05  0.029899994 
number of iterations: 12635 
   10600    35.493643        5            3            2 2.7443813e-15 1.3941812e-16          0.1 0.0090000037 9.4048585e-05  0.029899994 
number of iterations: 12743 
   10700    35.663133        5            3            2 2.7877746e-15 1.3941834e-16          0.1 0.0090000038 9.5952961e-05  0.029899994 
number of iterations: 12853 
   10800    35.836796        5            3            2 2.8318541e-15 1.3941857e-16          0.1 0.0090000038 9.788745e-05  0.029899994 
number of iterations: 12962 
   10900    36.000015        5            3            2 2.8766305e-15 1.3941879e-16          0.1 0.0090000039 9.9852525e-05  0.029899994 
number of iterations: 13073 
   11000    36.614323        5            3            2 2.9221148e-15 1.3941903e-16          0.1 0.0090000039 0.00010184867  0.029899994 
number of iterations: 13183 
   11100    36.795247        5            3            2 2.9683184e-15 1.3941927e-16          0.1  0.009000004 0.00010387638  0.029899993 
number of iterations: 13295 
   11200    36.974941        5            3            2 3.0152525e-15 1.3941951e-16          0.1 0.0090000041 0.00010593615  0.029899993 
number of iterations: 13407 
   11300    37.159265        5            3            2 3.0629287e-15 1.3941976e-16          0.1 0.0090000041 0.00010802849  0.029899993 
number of iterations: 13519 
   11400    37.324962        5            3            2 3.1113588e-15 1.3942001e-16          0.1 0.0090000042 0.00011015391  0.029899993 
number of iterations: 13632 
   11500    37.493709        5            3            2 3.1605546e-15 1.3942027e-16          0.1 0.0090000043 0.00011231294  0.029899993 
number of iterations: 13745 
   11600    37.707708        5            3            2 3.2105283e-15 1.3942053e-16          0.1 0.0090000043 0.00011450611  0.029899993 
number of iterations: 13858 
   11700    37.955522        5            3            2 3.2612922e-15 1.394208e-16          0.1 0.0090000044 0.00011673395  0.029899993 
number of iterations: 13973 
   11800    38.143547        5            3            2 3.3128587e-15 1.3942107e-16          0.1 0.0090000045 0.00011899702  0.029899993 
number of iterations: 14087 
   11900    38.324553        5            3            2 3.3652406e-15 1.3942135e-16          0.1 0.0090000045 0.00012129588  0.029899993 
number of iterations: 14202 
   12000    38.884912        5            3            2 3.4184507e-15 1.3942163e-16          0.1 0.0090000046 0.00012363108  0.029899992 
number of iterations: 14318 
   12100    39.080516        5            3            2 3.4725022e-15 1.3942192e-16          0.1 0.0090000047 0.0001260032  0.029899992 
number of iterations: 14434 
   12200    39.270999        5            3            2 3.5274083e-15 1.3942222e-16          0.1 0.0090000048 0.00012841284  0.029899992 
number of iterations: 14550 
   12300    39.471326        6            4            2 3.5831826e-15 1.3942252e-16          0.1 0.0090000048 0.00013086057  0.029899992 
number of iterations: 14667 
   12400    39.654941        6            4            2 3.6398387e-15 1.3942282e-16          0.1 0.0090000049 0.00013334701  0.029899992 
number of iterations: 14784 
   12500    39.836873        6            4            2 3.6973907e-15 1.3942313e-16          0.1  0.009000005 0.00013587276  0.029899992 
number of iterations: 14902 
   12600    40.015422        6            4            2 3.7558527e-15 1.3942345e-16          0.1 0.0090000051 0.00013843844  0.029899992 
number of iterations: 15020 
   12700    40.212099        6            4            2 3.8152391e-15 1.3942378e-16          0.1 0.0090000051 0.0001410447  0.029899992 
number of iterations: 15139 
   12800    40.414268        6            4            2 3.8755644e-15 1.3942411e-16          0.1 0.0090000052 0.00014369216  0.029899991 
number of iterations: 15258 
   12900     40.63112        6            4            2 3.9368436e-15 1.3942444e-16          0.1 0.0090000053 0.00014638149  0.029899991 
number of iterations: 15377 
   13000    41.221117        6            4            2 3.9990918e-15 1.3942478e-16          0.1 0.0090000054 0.00014911333  0.029899991 
number of iterations: 15497 
   13100    41.422186        6            4            2 4.0623242e-15 1.3942513e-16          0.1 0.0090000055 0.00015188838  0.029899991 
number of iterations: 15618 
   13200    41.630463        6            4            2 4.1265564e-15 1.3942549e-16          0.1 0.0090000056 0.0001547073  0.029899991 
number of iterations: 15738 
   13300    41.828504        6            4            2 4.1918042e-15 1.3942585e-16          0.1 0.0090000057 0.00015757079  0.029899991 
number of iterations: 15860 
   13400    42.023721        6            4            2 4.2580837e-15 1.3942622e-16          0.1 0.0090000057 0.00016047956  0.029899991 
number of iterations: 15981 
   13500    42.237977        6            4            2 4.3254111e-15 1.3942659e-16          0.1 0.0090000058 0.00016343432   0.02989999 
number of iterations: 16103 
   13600    42.422962        6            4            2 4.3938032e-15 1.3942698e-16          0.1 0.0090000059 0.0001664358   0.02989999 
number of iterations: 16226 
   13700    42.631702        7            5            2 4.4632766e-15 1.3942737e-16          0.1  0.009000006 0.00016948474   0.02989999 
number of iterations: 16349 
   13800    42.893527        7            5            2 4.5338485e-15 1.3942776e-16          0.1 0.0090000061 0.00017258189   0.02989999 
number of iterations: 16472 
   13900    43.145749        7            5            2 4.6055363e-15 1.3942817e-16          0.1 0.0090000062 0.00017572801   0.02989999 
number of iterations: 16596 
   14000    43.753344        7            5            2 4.6783576e-15 1.3942858e-16          0.1 0.0090000063 0.00017892388   0.02989999 
number of iterations: 16720 
   14100    43.969023        7            5            2 4.7523303e-15 1.3942899e-16          0.1 0.0090000064 0.00018217027  0.029899989 
number of iterations: 16845 
   14200    44.173443        7            5            2 4.8274727e-15 1.3942942e-16          0.1 0.0090000065  0.000185468  0.029899989 
number of iterations: 16970 
   14300    44.368882        7            5            2 4.9038032e-15 1.3942985e-16          0.1 0.0090000066 0.00018881787  0.029899989 
number of iterations: 17095 
   14400    44.580028        7            5            2 4.9813406e-15 1.394303e-16          0.1 0.0090000067 0.00019222071  0.029899989 
number of iterations: 17221 
   14500     44.80857        7            5            2 5.060104e-15 1.3943075e-16          0.1 0.0090000068 0.00019567735  0.029899989 
number of iterations: 17347 
   14600    45.054083        7            5            2 5.1401127e-15 1.394312e-16          0.1 0.0090000069 0.00019918865  0.029899989 
number of iterations: 17474 
   14700    45.278658        7            5            2 5.2213866e-15 1.3943167e-16          0.1 0.0090000071 0.00020275547  0.029899988 
number of iterations: 17601 
   14800    45.519077        7            5            2 5.3039455e-15 1.3943214e-16          0.1 0.0090000072 0.00020637868  0.029899988 
number of iterations: 17729 
   14900    45.754201        7            5            2 5.3878098e-15 1.3943263e-16          0.1 0.0090000073 0.00021005919  0.029899988 
number of iterations: 17856 
   15000    46.351866        7            5            2 5.4730002e-15 1.3943312e-16          0.1 0.0090000074 0.00021379789  0.029899988 
number of iterations: 17985 
   15100    46.585097        7            5            2 5.5595375e-15 1.3943362e-16          0.1 0.0090000075 0.0002175957  0.029899988 
number of iterations: 18113 
   15200    46.811981        7            5            2 5.6474432e-15 1.3943413e-16          0.1 0.0090000076 0.00022145356  0.029899987 
number of iterations: 18242 
   15300    47.039295        7            5            2 5.7367388e-15 1.3943464e-16          0.1 0.0090000078 0.00022537243  0.029899987 
number of iterations: 18372 
   15400    47.279921        7            5            2 5.8274463e-15 1.3943517e-16          0.1 0.0090000079 0.00022935325  0.029899987 
number of iterations: 18502 
   15500    47.519132        7            5            2 5.9195881e-15 1.3943571e-16          0.1  0.009000008 0.00023339702  0.029899987 
number of iterations: 18632 
   15600    47.802261        8            6            2 6.0131867e-15 1.3943625e-16          0.1 0.0090000081 0.00023750473  0.029899987 
number of iterations: 18763 
   15700     48.11205        8            6            2 6.1082653e-15 1.3943681e-16          0.1 0.0090000083 0.00024167739  0.029899986 
number of iterations: 18893 
   15800    48.349008        8            6            2 6.2048473e-15 1.3943737e-16          0.1 0.0090000084 0.00024591603  0.029899986 
number of iterations: 19025 
   15900    48.585682        9            7            2 6.3029564e-15 1.3943795e-16          0.1 0.0090000085 0.00025022168  0.029899986 
number of iterations: 33004 
   16000    49.391093        9            7            2 6.4026168e-15 1.3943854e-16          0.1 0.0090000085 0.00025459541  0.029899986 
number of iterations: 16519 
   16100    49.586375        9            7            2 6.5038529e-15 1.3943913e-16          0.1 0.0090000086 0.0002590383  0.029899986 
number of iterations: 17772 
   16200    49.804427        9            7            2 6.6066898e-15 1.3943974e-16          0.1 0.0090000087 0.00026355144  0.029899986 
number of iterations: 18361 
   16300    50.009576        9            7            2 6.7111527e-15 1.3944035e-16          0.1 0.0090000088 0.00026813594  0.029899985 
number of iterations: 18528 
   16400     50.21869        9            7            2 6.8172673e-15 1.3944098e-16          0.1  0.009000009 0.00027279292  0.029899985 
number of iterations: 18670 
   16500    50.423572        9            7            2 6.9250598e-15 1.3944162e-16          0.1 0.0090000091 0.00027752354  0.029899985 
number of iterations: 18807 
   16600    50.664096        9            7            2 7.0345567e-15 1.3944227e-16          0.1 0.0090000092 0.00028232896  0.029899985 
number of iterations: 18943 
   16700    50.914478        9            7            2 7.1457849e-15 1.3944293e-16          0.1 0.0090000094 0.00028721036  0.029899984 
number of iterations: 19079 
   16800    51.155263        9            7            2 7.2587718e-15 1.394436e-16          0.1 0.0090000095 0.00029216895  0.029899984 
number of iterations: 19215 
   16900    51.384637        9            7            2 7.3735452e-15 1.3944428e-16          0.1 0.0090000097 0.00029720594  0.029899984 
number of iterations: 19352 
   17000    52.064435        9            7            2 7.4901334e-15 1.3944498e-16          0.1 0.0090000098 0.00030232257  0.029899984 
number of iterations: 19489 
   17100    52.326079        9            7            2 7.608565e-15 1.3944569e-16          0.1   0.00900001 0.0003075201  0.029899983 
number of iterations: 19627 
   17200    52.590361        9            7            2 7.7288692e-15 1.394464e-16          0.1 0.0090000102 0.00031279982  0.029899983 
number of iterations: 19764 
   17300    52.927546       10            8            2 7.8510757e-15 1.3944714e-16          0.1 0.0090000103 0.00031816301  0.029899983 
number of iterations: 19903 
   17400    53.204359       10            8            2 7.9752144e-15 1.3944788e-16          0.1 0.0090000105 0.00032361101  0.029899983 
number of iterations: 20041 
   17500    53.461234       10            8            2 8.101316e-15 1.3944864e-16          0.1 0.0090000107 0.00032914515  0.029899982 
number of iterations: 20181 
   17600    53.726338       10            8            2 8.2294115e-15 1.3944941e-16          0.1 0.0090000108 0.00033476679  0.029899982 
number of iterations: 20320 
   17700    53.986399       10            8            2 8.3595323e-15 1.3945019e-16          0.1  0.009000011 0.00034047733  0.029899982 
number of iterations: 35174 
   17800    54.459226       11            9            2 8.4917106e-15 1.3945099e-16          0.1 0.0090000114 0.00034627815  0.029899981 
number of iterations: 21135 
   17900    54.719558       11            9            2 8.6259789e-15 1.394518e-16          0.1 0.0090000115 0.0003521707  0.029899981 
number of iterations: 21397 
   18000    55.367369       11            9            2 8.7623701e-15 1.3945262e-16          0.1 0.0090000117 0.00035815642  0.029899981 
number of iterations: 21542 
   18100    55.636597       11            9            2 8.900918e-15 1.3945346e-16          0.1 0.0090000119 0.00036423678   0.02989998 
number of iterations: 21682 
   18200    55.899896       11            9            2 9.0416565e-15 1.3945431e-16          0.1 0.0090000121 0.00037041329   0.02989998 
number of iterations: 21822 
   18300    56.174041       11            9            2 9.1846203e-15 1.3945518e-16          0.1 0.0090000123 0.00037668745   0.02989998 
number of iterations: 21963 
   18400    56.463526       11            9            2 9.3298446e-15 1.3945606e-16          0.1 0.0090000125 0.00038306082  0.029899979 
number of iterations: 22105 
   18500    56.738008       11            9            2 9.4773652e-15 1.3945695e-16          0.1 0.0090000127 0.00038953497  0.029899979 
number of iterations: 22247 
   18600    57.046408       11            9            2 9.6272183e-15 1.3945786e-16          0.1 0.0090000129 0.00039611148  0.029899979 
number of iterations: 22389 
   18700     57.36646       11            9            2 9.7794408e-15 1.3945879e-16          0.1 0.0090000131 0.00040279198  0.029899978 
number of iterations: 22531 
   18800    57.629819       11            9            2 9.9340703e-15 1.3945973e-16          0.1 0.0090000133 0.0004095781  0.029899978 
number of iterations: 22674 
   18900    57.947319       12           10            2 1.0091145e-14 1.3946069e-16          0.1 0.0090000135 0.00041647153  0.029899978 
number of iterations: 22817 
   19000    58.648765       12           10            2 1.0250703e-14 1.3946167e-16          0.1 0.0090000137 0.00042347395  0.029899977 
number of iterations: 22960 
   19100     59.01114       13           11            2 1.0412784e-14 1.3946266e-16          0.1 0.0090000139 0.0004305871  0.029899977 
number of iterations: 23104 
   19200    59.311422       13           11            2 1.0577427e-14 1.3946366e-16          0.1 0.0090000142 0.00043781271  0.029899977 
number of iterations: 23248 
   19300    59.619123       13           11            2 1.0744674e-14 1.3946469e-16          0.1 0.0090000144 0.00044515258  0.029899976 
number of iterations: 23393 
   19400    59.896443       14           12            2 1.0914566e-14 1.3946573e-16          0.1 0.0090000146 0.0004526085  0.029899976 
number of iterations: 23537 
   19500    60.185823       14           12            2 1.1087143e-14 1.3946679e-16          0.1 0.0090000148 0.00046018231  0.029899975 
number of iterations: 23683 
   19600    60.522238       14           12            2 1.126245e-14 1.3946786e-16          0.1 0.0090000151 0.00046787587  0.029899975 
number of iterations: 23828 
   19700    60.803015       14           12            2 1.1440528e-14 1.3946896e-16          0.1 0.0090000153 0.00047569108  0.029899975 
number of iterations: 23974 
   19800    61.112716       14           12            2 1.1621422e-14 1.3947007e-16          0.1 0.0090000156 0.00048362987  0.029899974 
number of iterations: 24120 
   19900     61.40987       14           12            2 1.1805176e-14 1.394712e-16          0.1 0.0090000158 0.00049169418  0.029899974 
number of iterations: 24266 
   20000    62.153635       14           12            2 1.1991836e-14 1.3947235e-16          0.1 0.0090000161  0.000499886  0.029899973 
number of iterations: 24413 
   20100    62.453658       14           12            2 1.2181447e-14 1.3947352e-16          0.1 0.0090000163 0.00050820734  0.029899973 
number of iterations: 24560 
   20200    62.742468       14           12            2 1.2374056e-14 1.3947471e-16          0.1 0.0090000166 0.00051666026  0.029899973 
number of iterations: 24707 
   20300    63.051516       14           12            2 1.2569711e-14 1.3947592e-16          0.1 0.0090000168 0.00052524684  0.029899972 
number of iterations: 24855 
   20400    63.345759       14           12            2 1.2768459e-14 1.3947715e-16          0.1 0.0090000171 0.00053396918  0.029899972 
number of iterations: 25003 
   20500    63.652751       14           12            2 1.297035e-14 1.394784e-16          0.1 0.0090000174 0.00054282944  0.029899971 
number of iterations: 25151 
   20600    63.977287       15           13            2 1.3175433e-14 1.3947967e-16          0.1 0.0090000176 0.0005518298  0.029899971 
number of iterations: 25300 
   20700    64.286309       15           13            2 1.3383759e-14 1.3948096e-16          0.1 0.0090000179 0.00056097246   0.02989997 
number of iterations: 25449 
   20800    64.619427       15           13            2 1.3595379e-14 1.3948227e-16          0.1 0.0090000182 0.00057025969   0.02989997 
number of iterations: 25598 
   20900    64.960715       15           13            2 1.3810344e-14 1.3948361e-16          0.1 0.0090000185 0.00057969376  0.029899969 
number of iterations: 25748 
   21000    65.694067       15           13            2 1.4028709e-14 1.3948496e-16          0.1 0.0090000188  0.000589277  0.029899969 
number of iterations: 25898 
   21100    66.010832       15           13            2 1.4250527e-14 1.3948634e-16          0.1 0.0090000191 0.00059901177  0.029899968 
number of iterations: 26048 
   21200    66.346354       15           13            2 1.4475852e-14 1.3948774e-16          0.1 0.0090000194 0.00060890046  0.029899968 
number of iterations: 26198 
   21300    66.666322       17           15            2 1.4704739e-14 1.3948917e-16          0.1 0.0090000197 0.00061894551  0.029899967 
number of iterations: 32731 
   21400    67.114864       18           16            2 1.4937246e-14 1.3949061e-16          0.1 0.0090000199 0.00062914938  0.029899967 
number of iterations: 24898 
   21500    67.419823       18           16            2 1.5173429e-14 1.3949209e-16          0.1 0.0090000201 0.0006395146  0.029899967 
number of iterations: 26268 
   21600     67.83308       18           16            2 1.5413346e-14 1.3949358e-16          0.1 0.0090000205 0.0006500437  0.029899966 
number of iterations: 26454 
   21700    68.222953       18           16            2 1.5657057e-14 1.394951e-16          0.1 0.0090000208 0.00066073929  0.029899965 
number of iterations: 26611 
   21800    68.564803       18           16            2 1.5904622e-14 1.3949665e-16          0.1 0.0090000211  0.000671604  0.029899965 
number of iterations: 26764 
   21900    68.856135       18           16            2 1.6156101e-14 1.3949822e-16          0.1 0.0090000214 0.00068264049  0.029899964 
number of iterations: 26918 
   22000    69.547693       18           16            2 1.6411556e-14 1.3949982e-16          0.1 0.0090000218 0.00069385149  0.029899964 
number of iterations: 27071 
   22100    69.841696       18           16            2 1.667105e-14 1.3950144e-16          0.1 0.0090000221 0.00070523975  0.029899963 
number of iterations: 27225 
   22200    70.160251       18           16            2 1.6934647e-14 1.3950309e-16          0.1 0.0090000225 0.00071680808  0.029899963 
number of iterations: 27379 
   22300    70.475468       18           16            2 1.7202413e-14 1.3950477e-16          0.1 0.0090000228 0.00072855933  0.029899962 
number of iterations: 27534 
   22400      70.7765       19           17            2 1.7474412e-14 1.3950647e-16          0.1 0.0090000232 0.00074049638  0.029899961 
number of iterations: 27689 
   22500    71.072787       20           18            2 1.7750712e-14 1.395082e-16          0.1 0.0090000236 0.00075262218  0.029899961 
number of iterations: 27844 
   22600     71.42661       20           18            2 1.803138e-14 1.3950997e-16          0.1 0.0090000239 0.0007649397   0.02989996 
number of iterations: 27999 
   22700    71.741619       20           18            2 1.8316487e-14 1.3951176e-16          0.1 0.0090000243 0.00077745199   0.02989996 
number of iterations: 28155 
   22800    72.045115       20           18            2 1.8606101e-14 1.3951357e-16          0.1 0.0090000247 0.00079016212  0.029899959 
number of iterations: 28311 
   22900    72.364913       21           19            2 1.8900295e-14 1.3951542e-16          0.1 0.0090000251 0.00080307322  0.029899958 
number of iterations: 28467 
   23000    73.059787       21           19            2 1.9199141e-14 1.395173e-16          0.1 0.0090000255 0.00081618846  0.029899958 
number of iterations: 28623 
   23100    73.370478       22           20            2 1.9502711e-14 1.3951921e-16          0.1 0.0090000259 0.00082951107  0.029899957 
number of iterations: 36665 
   23200    73.828723       22           20            2 1.9811082e-14 1.3952115e-16          0.1 0.0090000265 0.00084304435  0.029899956 
number of iterations: 29078 
   23300    74.168279       22           20            2 2.0124329e-14 1.3952313e-16          0.1 0.0090000269 0.0008567916  0.029899955 
number of iterations: 29299 
   23400    74.515825       23           21            2 2.0442528e-14 1.3952513e-16          0.1 0.0090000273 0.00087075622  0.029899955 
number of iterations: 29457 
   23500    74.853768       23           21            2 2.0765759e-14 1.3952717e-16          0.1 0.0090000277 0.00088494165  0.029899954 
number of iterations: 29614 
   23600    75.242666       23           21            2  2.10941e-14 1.3952924e-16          0.1 0.0090000282 0.00089935137  0.029899953 
number of iterations: 29772 
   23700    75.712643       23           21            2 2.1427634e-14 1.3953134e-16          0.1 0.0090000286 0.00091398894  0.029899952 
number of iterations: 29930 
   23800    76.036954       23           21            2 2.1766441e-14 1.3953348e-16          0.1 0.0090000291 0.00092885794  0.029899952 
number of iterations: 30088 
   23900     76.42239       23           21            2 2.2110605e-14 1.3953566e-16          0.1 0.0090000295 0.00094396206  0.029899951 
number of iterations: 30247 
   24000    77.183647       23           21            2 2.246021e-14 1.3953786e-16          0.1   0.00900003 0.00095930499   0.02989995 
number of iterations: 30405 
   24100    77.553684       23           21            2 2.2815344e-14 1.3954011e-16          0.1 0.0090000305 0.00097489052  0.029899949 
number of iterations: 34556 
   24200    78.044577       24           22            2 2.3176093e-14 1.3954239e-16          0.1 0.0090000308 0.00099072248  0.029899949 
number of iterations: 34123 
   24300     78.44482       25           23            2 2.3542546e-14 1.3954471e-16          0.1 0.0090000311 0.0010068048  0.029899948 
number of iterations: 29739 
   24400    78.775103       25           23            2 2.3914793e-14 1.3954707e-16          0.1 0.0090000316 0.0010231413  0.029899948 
number of iterations: 30602 
   24500    79.109833       26           24            2 2.4292926e-14 1.3954946e-16          0.1 0.0090000321 0.0010397362  0.029899947 
number of iterations: 30780 
   24600      79.4557       26           24            2 2.4677039e-14 1.3955189e-16          0.1 0.0090000326 0.0010565935  0.029899946 
number of iterations: 30943 
   24700    79.803369       26           24            2 2.5067224e-14 1.3955437e-16          0.1 0.0090000331 0.0010737173  0.029899945 
number of iterations: 31104 
   24800    80.158325       26           24            2 2.5463579e-14 1.3955688e-16          0.1 0.0090000336 0.0010911119  0.029899944 
number of iterations: 31266 
   24900    80.595697       28           26            2 2.5866201e-14 1.3955943e-16          0.1 0.0090000342 0.0011087815  0.029899943 
number of iterations: 38405 
   25000    81.476642       30           28            2 2.6275189e-14 1.3956203e-16          0.1 0.0090000349 0.0011267305  0.029899942 
number of iterations: 34717 
   25100    81.921836       30           28            2 2.6690644e-14 1.3956466e-16          0.1 0.0090000353 0.0011449633  0.029899941 
number of iterations: 31210 
   25200    82.274126       30           28            2 2.7112668e-14 1.3956734e-16          0.1 0.0090000358 0.0011634844   0.02989994 
number of iterations: 34759 
   25300    82.693576       30           28            2 2.7541365e-14 1.3957007e-16          0.1 0.0090000363 0.0011822984   0.02989994 
number of iterations: 31429 
   25400    83.160809       30           28            2 2.797684e-14 1.3957283e-16          0.1 0.0090000368 0.0012014098  0.029899939 
number of iterations: 32079 
   25500    83.553193       30           28            2 2.8419201e-14 1.3957565e-16          0.1 0.0090000374 0.0012208234  0.029899938 
number of iterations: 32253 
   25600    83.929717       30           28            2 2.8868556e-14 1.395785e-16          0.1  0.009000038  0.001240544  0.029899937 
number of iterations: 32418 
   25700    84.290734       31           29            2 2.9325017e-14 1.3958141e-16          0.1 0.0090000386 0.0012605763  0.029899936 
number of iterations: 32583 
   25800    84.739643       31           29            2 2.9788695e-14 1.3958436e-16          0.1 0.0090000392 0.0012809255  0.029899935 
number of iterations: 32748 
   25900    85.114655       31           29            2 3.0259704e-14 1.3958736e-16          0.1 0.0090000398 0.0013015963  0.029899934 
number of iterations: 32912 
   26000     85.88936       32           30            2 3.0738161e-14 1.395904e-16          0.1 0.0090000404 0.0013225941  0.029899933 
number of iterations: 33078 
   26100    86.282183       32           30            2 3.1224183e-14 1.395935e-16          0.1 0.0090000411 0.0013439238  0.029899932 
number of iterations: 33243 
   26200    86.674779       32           30            2 3.171789e-14 1.3959664e-16          0.1 0.0090000417 0.0013655908  0.029899931 
number of iterations: 40387 
   26300    87.136712       32           30            2 3.2219403e-14 1.3959984e-16          0.1 0.0090000426 0.0013876004  0.029899929 
number of iterations: 33704 
   26400    87.528825       32           30            2 3.2728846e-14 1.3960309e-16          0.1 0.0090000433  0.001409958  0.029899928 
number of iterations: 33908 
   26500    87.988934       34           32            2 3.3246344e-14 1.3960639e-16          0.1 0.0090000439 0.0014326691  0.029899927 
number of iterations: 34074 
   26600    88.480127       34           32            2 3.3772024e-14 1.3960974e-16          0.1 0.0090000446 0.0014557393  0.029899926 
number of iterations: 34240 
   26700    88.867235       34           32            2 3.4306017e-14 1.3961315e-16          0.1 0.0090000453 0.0014791743  0.029899925 
number of iterations: 34406 
   26800    89.272232       36           34            2 3.4848452e-14 1.3961661e-16          0.1 0.0090000461 0.0015029798  0.029899923 
number of iterations: 34573 
   26900    89.724718       38           36            2 3.5399465e-14 1.3962013e-16          0.1 0.0090000468 0.0015271617  0.029899922 
number of iterations: 34740 
   27000    90.601562       38           36            2 3.595919e-14 1.3962371e-16          0.1 0.0090000475  0.001551726  0.029899921 
number of iterations: 34907 
   27100    91.028272       38           36            2 3.6527765e-14 1.3962734e-16          0.1 0.0090000483 0.0015766787   0.02989992 
number of iterations: 35074 
   27200    91.442995       39           37            2 3.710533e-14 1.3963103e-16          0.1  0.009000049 0.0016020259  0.029899918 
number of iterations: 35242 
   27300    91.853464       39           37            2 3.7692028e-14 1.3963478e-16          0.1 0.0090000498  0.001627774  0.029899917 
number of iterations: 35410 
   27400    92.295392       40           38            2 3.8288002e-14 1.3963859e-16          0.1 0.0090000506 0.0016539291  0.029899916 
number of iterations: 40458 
   27500    92.785879       41           39            2  3.88934e-14 1.3964247e-16          0.1 0.0090000516 0.0016804978  0.029899914 
number of iterations: 35822 
   27600    93.235164       41           39            2 3.950837e-14 1.396464e-16          0.1 0.0090000524 0.0017074866  0.029899913 
number of iterations: 36016 
   27700    93.656044       41           39            2 4.0133064e-14 1.396504e-16          0.1 0.0090000532 0.0017349021  0.029899912 
number of iterations: 36184 
   27800    94.067704       42           40            2 4.0767635e-14 1.3965446e-16          0.1 0.0090000541 0.0017627511   0.02989991 
number of iterations: 36353 
   27900    94.509065       42           40            2 4.1412239e-14 1.3965859e-16          0.1 0.0090000549 0.0017910405  0.029899909 
number of iterations: 36522 
   28000    95.346442       43           41            2 4.2067036e-14 1.3966278e-16          0.1 0.0090000558 0.0018197772  0.029899907 
number of iterations: 37171 
   28100      95.8074       45           43            2 4.2732187e-14 1.3966704e-16          0.1 0.0090000565 0.0018489682  0.029899906 
number of iterations: 36596 
   28200    96.222879       46           44            2 4.3407855e-14 1.3967137e-16          0.1 0.0090000574 0.0018786208  0.029899905 
number of iterations: 37512 
   28300    96.721837       48           46            2 4.4094206e-14 1.3967577e-16          0.1 0.0090000582 0.0019087422  0.029899903 
number of iterations: 41608 
   28400    97.224062       49           47            2 4.4791409e-14 1.3968024e-16          0.1 0.0090000593 0.0019393399  0.029899901 
number of iterations: 37283 
   28500    97.660789       49           47            2 4.5499636e-14 1.3968479e-16          0.1 0.0090000602 0.0019704215    0.0298999 
number of iterations: 37477 
   28600    98.217385       49           47            2 4.6219062e-14 1.396894e-16          0.1 0.0090000612 0.0020019944  0.029899898 
number of iterations: 37648 
   28700     98.66677       49           47            2 4.6949863e-14 1.3969409e-16          0.1 0.0090000621 0.0020340666  0.029899897 
number of iterations: 38075 
   28800    99.127009       50           48            2 4.7692219e-14 1.3969885e-16          0.1  0.009000063 0.0020666459  0.029899895 
number of iterations: 37759 
   28900    99.540789       50           48            2 4.8446313e-14 1.3970369e-16          0.1  0.009000064 0.0020997404  0.029899894 
number of iterations: 38085 
   29000    100.36753       50           48            2 4.921233e-14 1.3970861e-16          0.1  0.009000065 0.0021333581  0.029899892 
number of iterations: 38260 
   29100    100.83858       50           48            2 4.999046e-14 1.3971361e-16          0.1  0.009000066 0.0021675073   0.02989989 
number of iterations: 38432 
   29200    101.31144       52           50            2 5.0780893e-14 1.3971868e-16          0.1 0.0090000671 0.0022021966  0.029899888 
number of iterations: 38604 
   29300    101.77615       53           51            2 5.1583824e-14 1.3972384e-16          0.1 0.0090000681 0.0022374343  0.029899887 
number of iterations: 39373 
   29400    102.25424       53           51            2 5.2399451e-14 1.3972908e-16          0.1  0.009000069 0.0022732292  0.029899885 
number of iterations: 38657 
   29500    102.72161       54           52            2 5.3227974e-14 1.3973441e-16          0.1 0.0090000701   0.00230959  0.029899883 
number of iterations: 39024 
   29600    103.27574       54           52            2 5.4069597e-14 1.3973982e-16          0.1 0.0090000712 0.0023465258  0.029899882 
number of iterations: 39200 
   29700    103.73161       54           52            2 5.4924528e-14 1.3974532e-16          0.1 0.0090000723 0.0023840456   0.02989988 
number of iterations: 39373 
   29800    104.21427       55           53            2 5.5792977e-14 1.397509e-16          0.1 0.0090000735 0.0024221587  0.029899878 
number of iterations: 39547 
   29900    104.70125       56           54            2 5.6675158e-14 1.3975658e-16          0.1 0.0090000746 0.0024608743  0.029899876 
number of iterations: 39721 
   30000    105.64458       57           55            2 5.7571287e-14 1.3976234e-16          0.1 0.0090000758 0.0025002022  0.029899874 
number of iterations: 43132 
   30100    106.20976       58           56            2 5.8481585e-14 1.397682e-16          0.1 0.0090000772 0.0025401519  0.029899872 
number of iterations: 40117 
   30200    106.75763       58           56            2 5.9406277e-14 1.3977415e-16          0.1 0.0090000784 0.0025807332   0.02989987 
number of iterations: 40303 
   30300    107.21695       62           60            2 6.034559e-14 1.397802e-16          0.1 0.0090000796 0.0026219562  0.029899868 
number of iterations: 40478 
   30400    107.73867       63           61            2 6.1299755e-14 1.3978634e-16          0.1 0.0090000809  0.002663831  0.029899865 
number of iterations: 40652 
   30500      108.347       64           62            2 6.2269007e-14 1.3979258e-16          0.1 0.0090000822  0.002706368  0.029899863 
number of iterations: 44348 
   30600    108.87985       66           64            2 6.3253584e-14 1.3979892e-16          0.1 0.0090000836 0.0027495775  0.029899861 
number of iterations: 45265 
   30700    109.45927       66           64            2 6.4253729e-14 1.3980537e-16          0.1 0.0090000852 0.0027934702  0.029899858 
number of iterations: 41316 
   30800    109.97794       66           64            2 6.5269688e-14 1.3981191e-16          0.1 0.0090000865  0.002838057  0.029899856 
number of iterations: 41502 
   30900    110.47467       67           65            2 6.6301711e-14 1.3981856e-16          0.1 0.0090000879 0.0028833487  0.029899854 
number of iterations: 41619 
   31000    111.32777       68           66            2 6.7350052e-14 1.3982532e-16          0.1 0.0090000891 0.0029293566  0.029899852 
number of iterations: 41609 
   31100    111.81013       68           66            2 6.8414969e-14 1.3983219e-16          0.1 0.0090000905 0.0029760919   0.02989985 
number of iterations: 44760 
   31200    112.31875       71           69            2 6.9496724e-14 1.3983916e-16          0.1  0.009000092 0.0030235662  0.029899847 
number of iterations: 42157 
   31300    112.89476       71           69            2 7.0595584e-14 1.3984625e-16          0.1 0.0090000935 0.0030717911  0.029899844 
number of iterations: 42341 
   31400    113.46121       72           70            2 7.1711818e-14 1.3985345e-16          0.1  0.009000095 0.0031207786  0.029899842 
number of iterations: 42517 
   31500    114.04314       74           72            2 7.2845702e-14 1.3986076e-16          0.1 0.0090000965 0.0031705406   0.02989984 
number of iterations: 42694 
   31600    114.60564       76           74            2 7.3997514e-14 1.398682e-16          0.1  0.009000098 0.0032210895  0.029899837 
number of iterations: 42870 
   31700    115.12267       76           74            2 7.5167539e-14 1.3987575e-16          0.1 0.0090000995 0.0032724376  0.029899834 
number of iterations: 43047 
   31800    115.60523       77           75            2 7.6356063e-14 1.3988342e-16          0.1 0.0090001011 0.0033245976  0.029899832 
number of iterations: 43225 
   31900    116.14737       78           76            2 7.756338e-14 1.3989121e-16          0.1 0.0090001027 0.0033775823  0.029899829 
number of iterations: 43402 
   32000    117.12065       79           77            2 7.8789787e-14 1.3989913e-16          0.1 0.0090001043 0.0034314049  0.029899826 
number of iterations: 43579 
   32100      117.688       81           79            2 8.0035585e-14 1.3990718e-16          0.1  0.009000106 0.0034860784  0.029899824 
number of iterations: 43757 
   32200    118.36698       82           80            2 8.1301082e-14 1.3991535e-16          0.1 0.0090001077 0.0035416164  0.029899821 
number of iterations: 43935 
   32300    118.91134       83           81            2 8.2586588e-14 1.3992365e-16          0.1 0.0090001094 0.0035980326  0.029899818 
number of iterations: 43367 
   32400    119.44373       85           83            2 8.389242e-14 1.3993209e-16          0.1 0.0090001109 0.0036553408  0.029899815 
number of iterations: 46312 
   32500    120.05364       87           85            2 8.5218899e-14 1.3994066e-16          0.1 0.0090001127 0.0037135551  0.029899812 
number of iterations: 48147 
   32600    120.63547       88           86            2 8.6566352e-14 1.3994937e-16          0.1 0.0090001148   0.00377269  0.029899809 
number of iterations: 43787 
   32700    121.20746       88           86            2 8.7935111e-14 1.3995822e-16          0.1 0.0090001164 0.0038327598  0.029899806 
number of iterations: 44710 
   32800    121.74449       91           89            2 8.9325511e-14 1.3996721e-16          0.1 0.0090001182 0.0038937794  0.029899803 
number of iterations: 47134 
   32900    122.34771       92           90            2 9.0737897e-14 1.3997634e-16          0.1 0.0090001202 0.0039557639    0.0298998 
number of iterations: 45187 
   33000    123.40724       92           90            2 9.2172615e-14 1.3998562e-16          0.1 0.0090001221 0.0040187284  0.029899797 
number of iterations: 49056 
   33100    124.01562       93           91            2 9.3630017e-14 1.3999505e-16          0.1 0.0090001243 0.0040826885  0.029899793 
number of iterations: 44745 
   33200    124.56551       96           94            2 9.5110464e-14 1.4000462e-16          0.1  0.009000126 0.0041476599   0.02989979 
number of iterations: 48375 
   33300    125.21395       98           96            2 9.6614319e-14 1.4001435e-16          0.1 0.0090001281 0.0042136587  0.029899787 
number of iterations: 45938 
   33400    125.79884       99           97            2 9.8141953e-14 1.4002424e-16          0.1 0.0090001302 0.0042807009  0.029899783 
number of iterations: 46123 
   33500    126.36165       99           97            2 9.9693741e-14 1.4003428e-16          0.1 0.0090001322 0.0043488032   0.02989978 
number of iterations: 46303 
   33600    126.90078      101           99            2 1.0127007e-13 1.4004448e-16          0.1 0.0090001343 0.0044179824  0.029899777 
number of iterations: 45311 
   33700    127.44819      102          100            2 1.0287131e-13 1.4005485e-16          0.1 0.0090001361 0.0044882553  0.029899773 
number of iterations: 45089 
   33800    128.12256      105          103            2 1.0449788e-13 1.4006538e-16          0.1 0.0090001381 0.0045596394   0.02989977 
number of iterations: 48695 
   33900    128.81707      107          105            2 1.0615017e-13 1.4007608e-16          0.1 0.0090001404 0.0046321522  0.029899766 
number of iterations: 48982 
   34000    129.80278      110          108            2 1.0782858e-13 1.4008695e-16          0.1 0.0090001428 0.0047058116  0.029899762 
number of iterations: 48918 
   34100    130.43856      112          110            2 1.0953353e-13  1.40098e-16          0.1 0.0090001452 0.0047806356  0.029899758 
number of iterations: 47373 
   34200    131.08127      113          111            2 1.1126543e-13 1.4010922e-16          0.1 0.0090001475 0.0048566427  0.029899755 
number of iterations: 47557 
   34300    131.71277      115          113            2 1.1302473e-13 1.4012062e-16          0.1 0.0090001498 0.0049338516  0.029899751 
number of iterations: 50181 
   34400    132.29552      116          114            2 1.1481184e-13 1.401322e-16          0.1 0.0090001524 0.0050122813  0.029899746 
number of iterations: 45993 
   34500    132.89703      117          115            2 1.166272e-13 1.4014396e-16          0.1 0.0090001547 0.0050919512  0.029899743 
number of iterations: 46729 
   34600    133.59539      120          118            2 1.1847127e-13 1.4015592e-16          0.1 0.0090001568 0.0051728807  0.029899739 
number of iterations: 50186 
   34700    134.30566      120          118            2 1.203445e-13 1.4016806e-16          0.1 0.0090001594 0.0052550898  0.029899735 
number of iterations: 46689 
   34800    134.87904      120          118            2 1.2224735e-13 1.401804e-16          0.1 0.0090001617 0.0053385988  0.029899731 
number of iterations: 48564 
   34900     135.4286      122          120            2 1.2418028e-13 1.4019293e-16          0.1 0.0090001643 0.0054234283  0.029899727 
number of iterations: 48767 
   35000     136.4407      124          122            2 1.2614378e-13 1.4020567e-16          0.1 0.0090001669  0.005509599  0.029899722 
Loop time of 136.441 on 6 procs for 35000 steps with 124 atoms

Performance: 221634626.167 tau/day, 256.522 timesteps/s
99.8% CPU use with 6 MPI tasks x no OpenMP threads

MPI task timing breakdown:
Section |  min time  |  avg time  |  max time  |%varavg| %total
---------------------------------------------------------------
Pair    | 0.003235   | 0.0092354  | 0.036793   |  12.8 |  0.01
Neigh   | 11.667     | 12.332     | 13.652     |  26.1 |  9.04
Comm    | 13.813     | 13.813     | 13.813     |   0.0 | 10.12
Output  | 1.1427     | 1.1444     | 1.1451     |   0.1 |  0.84
Modify  | 107.62     | 108.81     | 109.43     |   8.0 | 79.75
Other   |            | 0.3309     |            |       |  0.24

Nlocal:    20.6667 ave 122 max 0 min
Histogram: 5 0 0 0 0 0 0 0 0 1
Nghost:    0 ave 0 max 0 min
Histogram: 6 0 0 0 0 0 0 0 0 0
Neighs:    61.3333 ave 368 max 0 min
Histogram: 5 0 0 0 0 0 0 0 0 1

Total # of neighbors = 368
Ave neighs/atom = 2.96774
Neighbor list builds = 387
Dangerous builds = 0
Total wall time: 0:02:16
