LAMMPS (20 Nov 2019)
Reading data file ...
  orthogonal box = (0 0 0) to (0.0001 0.0001 1e-05)
  8 by 4 by 1 MPI processor grid
  reading atoms ...
  100 atoms
  4 nutrients
Lattice spacing in x,y,z = 100 100 100
50 atoms in group CYANO
50 atoms in group ECW
Model is defined as a closed system. 
Neighbor list info ...
  update every 1 steps, delay 0 steps, check yes
  max neighbors/atom: 5000, page size: 100000
  master list distance cutoff = 2.43e-06
  ghost atom cutoff = 2.43e-06
  binsize = 1.215e-06, bins = 83 83 9
  1 neighbor lists, perpetual/occasional/extra = 1 0 0
  (1) pair gran/hooke/history, perpetual
      attributes: half, newton off, size, history
      pair build: half/size/bin/newtoff
      stencil: half/bin/3d/newtoff
      bin: standard
Setting up Verlet run ...
  Unit style    : lj
  Current step  : 0
  Time step     : 10
Per MPI rank memory allocation (min/avg/max) = 6.793 | 10.98 | 12.11 Mbytes
Step CPU Atoms c_myNtypes[1] c_myNtypes[2] c_myMass[1] c_myMass[2] c_myCon[1] c_myCon[2] c_myCon[3] c_myCon[4] 
       0            0      100           50           50 4.0322057e-14 9.4919289e-15          0.1        0.009     3.42e-20       0.0299 
number of iterations: 328158 
     100    15.796696      135           50           85 4.0856414e-14 9.4868618e-15          0.1 0.0090006603   0.03240728    0.0298989 
number of iterations: 3614 
     200    16.125373      155           50          105 4.1397852e-14 9.4846679e-15          0.1 0.0090006688  0.064143993  0.029898886 
number of iterations: 2207 
     300    16.361238      155           50          105 4.1946466e-14 9.4853716e-15          0.1 0.0090006775   0.09623075  0.029898871 
number of iterations: 1620 
     400    16.636722      155           50          105 4.250235e-14 9.4889561e-15          0.1 0.0090006864   0.12867611  0.029898856 
number of iterations: 1427 
     500    16.848991      156           51          105  4.30656e-14 9.495411e-15          0.1 0.0090006953   0.16148691  0.029898841 
number of iterations: 1378 
     600    17.052497      156           51          105 4.3636315e-14 9.5047263e-15          0.1 0.0090007044   0.19466929  0.029898826 
number of iterations: 1498 
     700    17.242485      158           53          105 4.4214593e-14 9.5168933e-15          0.1 0.0090007167    0.2282294  0.029898805 
number of iterations: 1385 
     800     17.45276      158           53          105 4.4800534e-14 9.5319036e-15          0.1 0.0090007261   0.26217321  0.029898789 
number of iterations: 1388 
     900    17.678927      158           53          105 4.5394241e-14 9.5497526e-15          0.1 0.0090007356   0.29650678  0.029898773 
number of iterations: 1391 
    1000    17.886609      160           53          107 4.5995815e-14 9.5704374e-15          0.1 0.0090007452    0.3312362  0.029898757 
number of iterations: 1408 
    1100    18.091585      161           54          107 4.6605362e-14 9.5939608e-15          0.1 0.0090007549   0.36636747  0.029898741 
number of iterations: 1396 
    1200    18.286641      162           54          108 4.7222986e-14 9.6203216e-15          0.1 0.0090007648   0.40190679  0.029898724 
number of iterations: 1399 
    1300    18.463788      162           54          108 4.7848795e-14 9.6495263e-15          0.1 0.0090007748   0.43786033  0.029898707 
number of iterations: 1402 
    1400    18.662865      162           54          108 4.8482898e-14 9.6815821e-15          0.1 0.0090007849   0.47423423   0.02989869 
number of iterations: 1378 
    1500    18.839234      163           55          108 4.9125404e-14 9.7165004e-15          0.1 0.0090007952    0.5110348  0.029898673 
number of iterations: 1558 
    1600     19.02553      164           56          108 4.9776424e-14 9.7542904e-15          0.1 0.0090008015   0.54826826  0.029898662 
number of iterations: 1409 
    1700    19.210613      164           56          108 5.0436072e-14 9.7949678e-15          0.1  0.009000812   0.58594076  0.029898645 
number of iterations: 1412 
    1800    19.392144      164           56          108 5.1104462e-14 9.8385493e-15          0.1 0.0090008226   0.62405861  0.029898627 
number of iterations: 1415 
    1900    19.566337      164           56          108 5.1781709e-14 9.885054e-15          0.1 0.0090008334   0.66262813  0.029898609 
number of iterations: 1418 
    2000    19.764137      165           56          109 5.2467932e-14 9.9345043e-15          0.1 0.0090008443   0.70165568   0.02989859 
number of iterations: 1421 
    2100    19.945646      166           57          109 5.3163248e-14 9.9869229e-15          0.1 0.0090008554   0.74114765  0.029898572 
number of iterations: 1423 
    2200    20.128171      166           57          109 5.3867779e-14 1.0042336e-14          0.1 0.0090008666   0.78111049  0.029898553 
number of iterations: 1429 
    2300    20.323914      168           58          110 5.4581647e-14 1.010077e-14          0.1  0.009000878   0.82155066  0.029898534 
number of iterations: 1429 
    2400    20.496994      170           58          112 5.5304974e-14 1.0162256e-14          0.1 0.0090008895   0.86247467  0.029898514 
number of iterations: 1432 
    2500    20.675215      170           58          112 5.6037888e-14 1.0226828e-14          0.1 0.0090009011   0.90388909  0.029898495 
number of iterations: 1413 
    2600    20.852502      172           59          113 5.6780514e-14 1.0294527e-14          0.1 0.0090009118   0.94580051  0.029898477 
number of iterations: 1431 
    2700     21.05203      174           60          114 5.7532981e-14 1.0365384e-14          0.1 0.0090009237   0.98821563  0.029898457 
number of iterations: 1440 
    2800    21.217783      176           60          116 5.8295421e-14 1.0439438e-14          0.1 0.0090009358    1.0311411  0.029898436 
number of iterations: 1417 
    2900    21.382193      178           62          116 5.9067964e-14 1.051672e-14          0.1 0.0090009481    1.0745837  0.029898416 
number of iterations: 1445 
    3000    21.628501      179           62          117 5.9850746e-14 1.059729e-14          0.1 0.0090009606    1.1185501  0.029898395 
number of iterations: 1448 
    3100    21.813559      179           62          117  6.06439e-14 1.0681195e-14          0.1 0.0090009732    1.1630472  0.029898374 
number of iterations: 1450 
    3200    22.002652      179           62          117 6.1447566e-14 1.0768485e-14          0.1 0.0090009859    1.2080818  0.029898352 
number of iterations: 1451 
    3300     22.20457      180           63          117 6.2261883e-14 1.085921e-14          0.1 0.0090009989    1.2536608   0.02989833 
number of iterations: 1456 
    3400    22.398848      180           63          117 6.308699e-14 1.0953427e-14          0.1  0.009001012    1.2997912  0.029898308 
number of iterations: 1459 
    3500    22.574327      180           63          117 6.3923033e-14 1.1051195e-14          0.1 0.0090010253    1.3464799  0.029898286 
number of iterations: 1462 
    3600    22.740591      180           63          117 6.4770154e-14 1.1152574e-14          0.1 0.0090010387    1.3937341  0.029898263 
number of iterations: 1469 
    3700    22.921979      182           64          118 6.5628502e-14 1.1257627e-14          0.1 0.0090010523    1.4415607   0.02989824 
number of iterations: 1467 
    3800    23.103059      183           64          119 6.6498225e-14 1.136642e-14          0.1 0.0090010662     1.489967  0.029898217 
number of iterations: 1433 
    3900    23.318635      185           65          120 6.7379474e-14 1.147902e-14          0.1  0.009001079    1.5389602  0.029898196 
number of iterations: 1472 
    4000    23.559467      187           65          122 6.8272401e-14 1.1595502e-14          0.1 0.0090010931    1.5885475  0.029898172 
number of iterations: 1570 
    4100    23.750864      189           66          123 6.9177161e-14 1.171594e-14          0.1 0.0090011104    1.6387362  0.029898143 
number of iterations: 1457 
    4200    23.917887      190           67          123 7.0093911e-14 1.1840409e-14          0.1  0.009001125    1.6895337  0.029898118 
number of iterations: 1480 
    4300    24.104295      190           67          123 7.1022811e-14 1.196899e-14          0.1 0.0090011397    1.7409474  0.029898093 
number of iterations: 1483 
    4400    24.291662      192           68          124 7.196402e-14 1.2101765e-14          0.1 0.0090011547    1.7929847  0.029898068 
number of iterations: 1486 
    4500    24.477009      195           69          126 7.2917702e-14 1.2238821e-14          0.1 0.0090011686    1.8456531  0.029898045 
number of iterations: 1621 
    4600    24.670171      197           70          127 7.3884023e-14 1.2380253e-14          0.1 0.0090011869    1.8989601  0.029898014 
number of iterations: 1509 
    4700    24.840222      201           71          130 7.486315e-14 1.2526152e-14          0.1 0.0090012039    1.9529134  0.029897985 
number of iterations: 1479 
    4800    25.025471      207           73          134 7.5855252e-14 1.2676613e-14          0.1 0.0090012197    2.0075207  0.029897959 
number of iterations: 1578 
    4900    25.201783      211           75          136 7.6860502e-14 1.2831744e-14          0.1 0.0090012325    2.0627896  0.029897937 
number of iterations: 1452 
    5000    25.397708      215           77          138 7.7879073e-14 1.2991643e-14          0.1 0.0090012461    2.1187279  0.029897914 
number of iterations: 1504 
    5100    25.572385      219           77          142 7.8911143e-14 1.3156419e-14          0.1 0.0090012625    2.1753433  0.029897887 
number of iterations: 1555 
    5200    25.769083      220           78          142 7.995689e-14 1.3326185e-14          0.1 0.0090012854    2.2326438  0.029897848 
number of iterations: 1714 
    5300    26.023053      222           79          143 8.1016496e-14 1.3501048e-14          0.1 0.0090013068     2.290637  0.029897812 
number of iterations: 1512 
    5400    26.217473      223           79          144 8.2090143e-14 1.3681134e-14          0.1  0.009001324     2.349331  0.029897783 
number of iterations: 1515 
    5500    26.413452      227           80          147 8.3178019e-14 1.3866571e-14          0.1 0.0090013413    2.4087339  0.029897754 
number of iterations: 1623 
    5600    26.637771      229           81          148 8.4280312e-14 1.405748e-14          0.1 0.0090013647    2.4688536  0.029897715 
number of iterations: 1523 
    5700    26.823428      233           81          152 8.5397212e-14 1.4253994e-14          0.1 0.0090013826    2.5296982  0.029897685 
number of iterations: 1628 
    5800    27.031578      237           83          154 8.6528914e-14 1.4456242e-14          0.1 0.0090014067    2.5912764  0.029897644 
number of iterations: 1528 
    5900    27.216336      238           83          155 8.7675613e-14 1.4664375e-14          0.1 0.0090014251    2.6535957  0.029897613 
number of iterations: 1531 
    6000    27.441303      240           83          157 8.8837508e-14 1.4878537e-14          0.1 0.0090014438    2.7166645  0.029897582 
number of iterations: 1642 
    6100    27.620358      246           88          158 9.0014801e-14 1.5098878e-14          0.1 0.0090014733    2.7804909  0.029897532 
number of iterations: 1532 
    6200     27.79713      248           89          159 9.1207696e-14 1.5325557e-14          0.1 0.0090014926    2.8450834  0.029897499 
number of iterations: 1538 
    6300    27.987861      254           90          164  9.24164e-14 1.5558735e-14          0.1 0.0090015122    2.9104499  0.029897466 
number of iterations: 1541 
    6400    28.169897      257           92          165 9.3641121e-14 1.5798575e-14          0.1 0.0090015321     2.976599  0.029897433 
number of iterations: 1505 
    6500    28.348715      262           93          169 9.4882072e-14 1.6045246e-14          0.1 0.0090015507    3.0435391  0.029897402 
number of iterations: 1625 
    6600    28.525746      268           95          173 9.6139469e-14 1.6298928e-14          0.1 0.0090015672    3.1112786  0.029897374 
number of iterations: 1548 
    6700    28.736459      272           97          175 9.7413529e-14 1.6559795e-14          0.1 0.0090015877    3.1798256  0.029897339 
number of iterations: 1539 
    6800    28.920831      273           98          175 9.8704473e-14 1.6828043e-14          0.1 0.0090016072     3.249189  0.029897306 
number of iterations: 1537 
    6900    29.098949      280           99          181 1.0001253e-13 1.7103864e-14          0.1 0.0090016254    3.3193772  0.029897275 
number of iterations: 1521 
    7000    29.280004      287          102          185 1.0133791e-13 1.7387453e-14          0.1 0.0090016443    3.3903989  0.029897243 
number of iterations: 1719 
    7100    29.485265      293          104          189 1.0268086e-13 1.7679026e-14          0.1 0.0090016704    3.4622625  0.029897199 
number of iterations: 1520 
    7200    29.665942      299          108          191 1.0404161e-13 1.7978803e-14          0.1 0.0090016779    3.5349767  0.029897186 
number of iterations: 1560 
    7300    29.850881      299          108          191 1.0542039e-13 1.8286994e-14          0.1 0.0090016998    3.6085502  0.029897149 
number of iterations: 1563 
    7400    30.037612      304          108          196 1.0681744e-13 1.8603825e-14          0.1 0.0090017221    3.6829917  0.029897112 
number of iterations: 1640 
    7500    30.246644      309          110          199 1.0823301e-13 1.8929524e-14          0.1 0.0090017431    3.7583098  0.029897076 
number of iterations: 1567 
    7600    30.435855      316          111          205 1.0966734e-13 1.9264345e-14          0.1  0.009001766     3.834513  0.029897038 
number of iterations: 1549 
    7700    30.623142      320          112          208 1.1112067e-13 1.9608539e-14          0.1 0.0090017878      3.91161  0.029897001 
number of iterations: 1577 
    7800    30.808069      324          115          209 1.1259326e-13 1.996234e-14          0.1 0.0090017997    3.9896095   0.02989698 
number of iterations: 1679 
    7900    30.989563      330          117          213 1.1408537e-13 2.0326035e-14          0.1 0.0090018263    4.0685201  0.029896935 
number of iterations: 1548 
    8000    31.184395      334          117          217 1.1559726e-13 2.0699895e-14          0.1 0.0090018422    4.1483506  0.029896908 
number of iterations: 1555 
    8100     31.37033      342          119          223 1.1712917e-13 2.1084199e-14          0.1 0.0090018602    4.2291094  0.029896878 
number of iterations: 1567 
    8200    31.548897      349          120          229 1.1868139e-13 2.1479242e-14          0.1 0.0090018831    4.3108053  0.029896839 
number of iterations: 1644 
    8300    31.742311      353          121          232 1.2025418e-13 2.1885317e-14          0.1 0.0090019138     4.393447  0.029896787 
number of iterations: 1754 
    8400    31.954189      359          123          236 1.2184782e-13 2.230273e-14          0.1 0.0090019425    4.4770432  0.029896738 
number of iterations: 1567 
    8500    32.134673      363          123          240 1.2346257e-13 2.2731812e-14          0.1 0.0090019643    4.5616025  0.029896701 
number of iterations: 1617 
    8600    32.351141      369          125          244 1.2509872e-13 2.3172891e-14          0.1 0.0090019844    4.6471332  0.029896667 
number of iterations: 1594 
    8700    32.550081      376          126          250 1.2675655e-13 2.3626308e-14          0.1  0.009002009    4.7336442  0.029896625 
number of iterations: 1597 
    8800    32.747087      381          127          254 1.2843636e-13 2.4092415e-14          0.1 0.0090020352    4.8211439  0.029896581 
number of iterations: 1600 
    8900    32.912479      384          127          257 1.3013842e-13 2.4571571e-14          0.1 0.0090020618    4.9096409  0.029896536 
number of iterations: 1659 
    9000    33.115372      389          129          260 1.3186304e-13 2.5064151e-14          0.1 0.0090020932    4.9991436  0.029896483 
number of iterations: 1592 
    9100    33.333698      400          133          267 1.3361052e-13 2.5570544e-14          0.1 0.0090021129    5.0896604  0.029896449 
number of iterations: 1741 
    9200    33.543022      406          134          272 1.3538115e-13 2.6091133e-14          0.1 0.0090021451    5.1811998  0.029896394 
number of iterations: 1629 
    9300    33.775492      414          135          279 1.3717525e-13 2.6626332e-14          0.1 0.0090021708      5.27377  0.029896351 
number of iterations: 1611 
    9400    33.978933      418          136          282 1.3899312e-13 2.7176567e-14          0.1 0.0090021939    5.3673792  0.029896311 
number of iterations: 1617 
    9500    34.157063      426          136          290 1.4083509e-13 2.7742271e-14          0.1 0.0090022225    5.4620356  0.029896263 
number of iterations: 1547 
    9600    34.339439      438          140          298 1.4270146e-13 2.8323899e-14          0.1 0.0090022418    5.5577472  0.029896229 
number of iterations: 1608 
    9700     34.54335      448          143          305 1.4459257e-13 2.8921923e-14          0.1 0.0090022614    5.6545219  0.029896196 
number of iterations: 1621 
    9800    34.718957      453          143          310 1.4650874e-13 2.9536809e-14          0.1 0.0090022908    5.7523678  0.029896146 
number of iterations: 1624 
    9900    34.902195      459          143          316 1.484503e-13 3.0169051e-14          0.1 0.0090023207    5.8512925  0.029896095 
number of iterations: 1627 
   10000    35.097641      465          144          321 1.504176e-13 3.0819167e-14          0.1 0.0090023471    5.9513037   0.02989605 
number of iterations: 1642 
   10100    35.316731      479          145          334 1.5241096e-13 3.1487677e-14          0.1 0.0090023722    6.0524091  0.029896007 
number of iterations: 1596 
   10200    35.519585      486          146          340 1.5443074e-13 3.2175112e-14          0.1  0.009002399     6.154616  0.029895961 
number of iterations: 1628 
   10300    35.723231      495          147          348 1.5647729e-13 3.288203e-14          0.1 0.0090024246    6.2579319  0.029895917 
number of iterations: 1864 
   10400    35.939807      502          148          354 1.5855095e-13 3.3609005e-14          0.1 0.0090024577    6.3623637  0.029895861 
number of iterations: 1597 
   10500    36.131248      512          150          362 1.606521e-13 3.4356636e-14          0.1 0.0090024754    6.4679188   0.02989583 
number of iterations: 1736 
   10600    36.315834      519          151          368 1.627811e-13 3.512553e-14          0.1 0.0090025106    6.5746038   0.02989577 
number of iterations: 1706 
   10700    36.517142      526          154          372 1.649383e-13 3.5916318e-14          0.1 0.0090025491    6.6824254  0.029895704 
number of iterations: 1648 
   10800    36.765304      537          155          382 1.671241e-13 3.6729648e-14          0.1 0.0090025781    6.7913901  0.029895655 
number of iterations: 1769 
   10900    36.961529      553          158          395 1.6933886e-13 3.7566194e-14          0.1 0.0090026164    6.9015042   0.02989559 
number of iterations: 1652 
   11000     37.22328      563          159          404 1.7158297e-13 3.8426652e-14          0.1 0.0090026502    7.0127737  0.029895532 
number of iterations: 1641 
   11100    37.422147      576          164          412 1.7385682e-13 3.9311732e-14          0.1 0.0090026778    7.1252046  0.029895484 
number of iterations: 1720 
   11200    37.626497      592          169          423 1.761608e-13 4.0222178e-14          0.1 0.0090027213    7.2388024   0.02989541 
number of iterations: 1870 
   11300    37.842036      599          169          430 1.7849532e-13 4.1158727e-14          0.1  0.009002773    7.3535724  0.029895322 
number of iterations: 1740 
   11400    38.027429      616          175          441 1.8086078e-13 4.212217e-14          0.1 0.0090028184    7.4695198  0.029895245 
number of iterations: 1677 
   11500    38.211038      627          176          451 1.8325758e-13 4.3113322e-14          0.1 0.0090028548    7.5866497  0.029895183 
number of iterations: 1814 
   11600     38.40417      645          183          462 1.8568614e-13 4.4133015e-14          0.1 0.0090028985    7.7049665  0.029895108 
number of iterations: 1757 
   11700    38.605961      660          186          474 1.8814689e-13 4.5182114e-14          0.1 0.0090029556    7.8244747  0.029895011 
number of iterations: 1696 
   11800    38.790401      670          189          481 1.9064025e-13 4.6261493e-14          0.1 0.0090029927    7.9451779  0.029894947 
number of iterations: 1726 
   11900    38.973578      684          192          492 1.9316665e-13 4.7372074e-14          0.1 0.0090030308    8.0670798  0.029894882 
number of iterations: 1687 
   12000    39.193211      703          195          508 1.9572653e-13 4.8514813e-14          0.1 0.0090030646    8.1901838  0.029894824 
number of iterations: 1649 
   12100    39.395456      720          200          520 1.9832034e-13 4.9690682e-14          0.1 0.0090030935    8.3144931  0.029894773 
number of iterations: 1669 
   12200    39.610468      732          202          530 2.0094852e-13 5.0900687e-14          0.1 0.0090031208      8.44001  0.029894726 
number of iterations: 1686 
   12300    39.815849      754          204          550 2.0361153e-13 5.2145876e-14          0.1 0.0090031611    8.5667363  0.029894656 
number of iterations: 1679 
   12400    40.006916      773          206          567 2.0630983e-13 5.3427296e-14          0.1 0.0090031917    8.6946741  0.029894603 
number of iterations: 1705 
   12500    40.209546      790          207          583 2.0904388e-13 5.4746056e-14          0.1  0.009003234    8.8238244   0.02989453 
number of iterations: 1785 
   12600     40.40874      803          211          592 2.1181417e-13 5.6103277e-14          0.1 0.0090032873    8.9541882  0.029894439 
number of iterations: 1820 
   12700    40.624464      819          215          604 2.1462117e-13 5.7500144e-14          0.1 0.0090033279    9.0857658  0.029894369 
number of iterations: 1785 
   12800    40.833206      837          221          616 2.1746537e-13 5.8937861e-14          0.1 0.0090033659    9.2185573  0.029894303 
number of iterations: 1832 
   12900    41.026502      860          226          634 2.2034727e-13 6.0417649e-14          0.1 0.0090034197    9.3525615  0.029894211 
number of iterations: 1771 
   13000    41.285568      877          228          649 2.2326735e-13 6.1940827e-14          0.1 0.0090034697    9.4877773  0.029894125 
number of iterations: 1821 
   13100    41.488598      891          231          660 2.2622613e-13 6.3508723e-14          0.1 0.0090035235    9.6242029  0.029894033 
number of iterations: 1759 
   13200    41.684442      910          233          677 2.2922412e-13 6.5122722e-14          0.1 0.0090035682    9.7618357  0.029893955 
number of iterations: 1740 
   13300    41.884032      931          235          696 2.3226184e-13 6.6784237e-14          0.1 0.0090036213    9.9006725  0.029893864 
number of iterations: 1722 
   13400    42.064581      953          236          717 2.3533982e-13 6.8494722e-14          0.1 0.0090036661     10.04071  0.029893786 
number of iterations: 1706 
   13500    42.271929      974          239          735 2.3845859e-13 7.0255689e-14          0.1 0.0090037012    10.181943  0.029893724 
number of iterations: 1734 
   13600    42.451687      994          240          754 2.4161869e-13 7.2068667e-14          0.1 0.0090037486    10.324368  0.029893642 
number of iterations: 1772 
   13700    42.641061     1017          244          773 2.4482066e-13 7.3935265e-14          0.1 0.0090037993    10.467977  0.029893554 
number of iterations: 1790 
   13800    42.847455     1038          247          791 2.4806507e-13 7.5857135e-14          0.1 0.0090038622    10.612766  0.029893446 
number of iterations: 1741 
   13900      43.0642     1067          248          819 2.5135248e-13 7.7835981e-14          0.1 0.0090039115    10.758725   0.02989336 
number of iterations: 1722 
   14000      43.2546     1084          251          833 2.5468345e-13 7.9873568e-14          0.1  0.009003963    10.905846  0.029893271 
number of iterations: 1730 
   14100    43.520046     1108          254          854 2.5805856e-13 8.1971704e-14          0.1 0.0090040031    11.054121    0.0298932 
number of iterations: 1781 
   14200    43.717798     1137          258          879 2.614784e-13 8.4132242e-14          0.1 0.0090040566     11.20354  0.029893107 
number of iterations: 1799 
   14300    43.942417     1166          262          904 2.6494356e-13 8.6357124e-14          0.1 0.0090041277    11.354089  0.029892985 
number of iterations: 1740 
   14400    44.139732     1197          264          933 2.6845464e-13 8.8648333e-14          0.1 0.0090041738    11.505759  0.029892904 
number of iterations: 1748 
   14500    44.331629     1221          265          956 2.7201225e-13 9.1007933e-14          0.1 0.0090042252    11.658536  0.029892814 
number of iterations: 1770 
   14600    44.522449     1248          268          980  2.75617e-13 9.3438045e-14          0.1 0.0090042868    11.812406  0.029892707 
number of iterations: 1776 
   14700    44.734517     1288          272         1016 2.7926953e-13 9.5940816e-14          0.1 0.0090043372    11.967354  0.029892618 
number of iterations: 1772 
   14800    44.980147     1313          272         1041 2.8297046e-13 9.8518576e-14          0.1 0.0090043892    12.123362  0.029892526 
number of iterations: 1844 
   14900    45.181305     1342          279         1063 2.8672044e-13 1.0117361e-13          0.1 0.0090044572    12.280415  0.029892408 
number of iterations: 1785 
   15000    45.381458     1367          281         1086 2.9052011e-13 1.0390832e-13          0.1 0.0090045095    12.438493  0.029892316 
number of iterations: 1773 
   15100    45.591791     1396          283         1113 2.9437013e-13 1.0672518e-13          0.1 0.0090045665    12.597575  0.029892216 
number of iterations: 1763 
   15200    45.781172     1435          284         1151 2.9827118e-13 1.0962673e-13          0.1 0.0090046272     12.75764  0.029892109 
number of iterations: 1775 
   15300    45.994851     1468          288         1180 3.0222392e-13 1.126156e-13          0.1 0.0090046799    12.918666  0.029892016 
number of iterations: 1812 
   15400    46.198497     1501          293         1208 3.0622904e-13 1.156945e-13          0.1 0.0090047458    13.080628    0.0298919 
number of iterations: 1825 
   15500    46.414249     1543          299         1244 3.1028724e-13 1.1886627e-13          0.1  0.009004804      13.2435  0.029891797 
number of iterations: 1847 
   15600    46.646596     1580          302         1278 3.1439923e-13 1.2213376e-13          0.1 0.0090048685    13.407255  0.029891684 
number of iterations: 1792 
   15700     46.86641     1617          302         1315 3.185657e-13 1.2549997e-13          0.1 0.0090049323    13.571864  0.029891571 
number of iterations: 1787 
   15800     47.08586     1650          305         1345 3.2278739e-13 1.2896799e-13          0.1 0.0090049927    13.737295  0.029891464 
number of iterations: 1815 
   15900    47.304921     1688          313         1375 3.2706502e-13 1.3254097e-13          0.1 0.0090050551    13.903517  0.029891353 
number of iterations: 1808 
   16000    47.526433     1725          317         1408 3.3139935e-13 1.3622219e-13          0.1 0.0090051167    14.070496  0.029891244 
number of iterations: 1803 
   16100    47.726162     1775          322         1453 3.3579111e-13 1.4001503e-13          0.1 0.0090051794    14.238194  0.029891132 
number of iterations: 1857 
   16200    47.933737     1822          323         1499 3.4024107e-13 1.4392293e-13          0.1 0.0090052486    14.406575   0.02989101 
number of iterations: 1783 
   16300    48.164788     1891          335         1556   3.4475e-13 1.479495e-13          0.1 0.0090053138    14.575598  0.029890893 
number of iterations: 1849 
   16400     48.38799     1945          340         1605 3.4931869e-13 1.5209842e-13          0.1 0.0090053752    14.745221  0.029890783 
number of iterations: 1796 
   16500    48.582347     1986          347         1639 3.5394792e-13 1.5637351e-13          0.1 0.0090054358    14.915401  0.029890674 
number of iterations: 1823 
   16600    48.815152     2045          354         1691 3.586385e-13 1.6077869e-13          0.1 0.0090054996    15.086091   0.02989056 
number of iterations: 1814 
   16700    49.030564     2086          355         1731 3.6339124e-13 1.6531804e-13          0.1 0.0090055546    15.257241   0.02989046 
number of iterations: 1828 
   16800    49.241496     2142          362         1780 3.6820696e-13 1.6999575e-13          0.1 0.0090056142    15.428801  0.029890352 
number of iterations: 1802 
   16900    49.475759     2196          364         1832 3.730865e-13 1.7481614e-13          0.1 0.0090056757    15.600716   0.02989024 
number of iterations: 1829 
   17000    49.680059     2258          371         1887 3.7803071e-13 1.7978362e-13          0.1 0.0090057489    15.772932  0.029890109 
number of iterations: 1876 
   17100    49.902465     2324          377         1947 3.8304043e-13 1.8490277e-13          0.1  0.009005824    15.945388  0.029889974 
number of iterations: 1861 
   17200    50.119445     2377          381         1996 3.8811655e-13 1.9017834e-13          0.1  0.009005901    16.118023  0.029889836 
number of iterations: 1849 
   17300    50.327662     2436          387         2049 3.9325994e-13 1.9561519e-13          0.1 0.0090059743    16.290772  0.029889703 
number of iterations: 1838 
   17400     50.54989     2509          397         2112 3.9847148e-13 2.0121837e-13          0.1  0.009006058    16.463569  0.029889553 
number of iterations: 1838 
   17500    50.812769     2575          405         2170 4.0375209e-13 2.0699306e-13          0.1 0.0090061317    16.636343   0.02988942 
number of iterations: 1817 
   17600    51.037423     2642          411         2231 4.0910268e-13 2.1294462e-13          0.1 0.0090062085     16.80902   0.02988928 
number of iterations: 1846 
   17700    51.265793     2694          414         2280 4.1452418e-13 2.1907855e-13          0.1 0.0090062844    16.981524  0.029889142 
number of iterations: 1846 
   17800    51.480872     2763          419         2344 4.2001752e-13 2.2540061e-13          0.1 0.0090063472    17.153773  0.029889025 
number of iterations: 1853 
   17900    51.693272     2836          425         2411 4.2558366e-13 2.3191655e-13          0.1 0.0090064247    17.325687  0.029888884 
number of iterations: 1887 
   18000    51.901992     2910          431         2479 4.3122357e-13 2.3863239e-13          0.1 0.0090065035    17.497175   0.02988874 
number of iterations: 1822 
   18100    52.120552     3001          442         2559 4.3693821e-13 2.4555445e-13          0.1  0.009006559     17.66815  0.029888634 
number of iterations: 1857 
   18200    52.340859     3090          447         2643 4.4272859e-13 2.5261149e-13          0.1 0.0090066501    17.838566  0.029888469 
number of iterations: 1937 
   18300    52.592979     3164          452         2712 4.485957e-13 2.5996296e-13          0.1 0.0090067359    18.008276  0.029888312 
number of iterations: 1877 
   18400    52.815435     3255          456         2799 4.5454056e-13 2.6754035e-13          0.1 0.0090068184    18.177177  0.029888161 
number of iterations: 1875 
   18500    53.039047     3338          461         2877 4.605642e-13 2.753507e-13          0.1 0.0090069042    18.345162  0.029888003 
number of iterations: 1869 
   18600    53.246732     3421          468         2953 4.6666767e-13 2.8340115e-13          0.1 0.0090069765    18.512122  0.029887867 
number of iterations: 1817 
   18700    53.491801     3517          474         3043 4.7285203e-13 2.9169916e-13          0.1 0.0090070447    18.677939  0.029887737 
number of iterations: 2004 
   18800    53.726667     3616          481         3135 4.7911834e-13 3.0025249e-13          0.1 0.0090071526    18.842495  0.029887542 
number of iterations: 1875 
   18900    53.951868     3720          484         3236 4.8546769e-13 3.0906896e-13          0.1 0.0090072415    19.005666  0.029887377 
number of iterations: 1918 
   19000    54.219946     3830          490         3340 4.9190118e-13 3.1815673e-13          0.1 0.0090073326    19.167321  0.029887208 
number of iterations: 1885 
   19100    54.438979     3925          496         3429 4.9841993e-13 3.2752411e-13          0.1 0.0090074273    19.327325  0.029887032 
number of iterations: 1983 
   19200    54.669461     4033          501         3532 5.0502507e-13 3.3706312e-13          0.1  0.009007514     19.48562  0.029886869 
number of iterations: 1848 
   19300    54.901838     4137          506         3631 5.1171774e-13 3.4678799e-13          0.1 0.0090075939    19.642136  0.029886716 
number of iterations: 1961 
   19400    55.135287     4259          513         3746 5.184991e-13 3.5694863e-13          0.1 0.0090076935    19.796634  0.029886531 
number of iterations: 1910 
   19500    55.366877     4365          517         3848 5.2537033e-13 3.6751062e-13          0.1 0.0090077831    19.948899  0.029886362 
number of iterations: 1857 
   19600    55.887199     4476          523         3953 5.3233262e-13 3.7826961e-13          0.1 0.0090078602     20.09886  0.029886212 
number of iterations: 1899 
   19700    56.112225     4611          530         4081 5.3938717e-13 3.8936114e-13          0.1 0.0090079474     20.24635  0.029886045 
number of iterations: 1895 
   19800    56.373045     4728          535         4193 5.4653521e-13 4.0080593e-13          0.1 0.0090080362     20.39119  0.029885875 
number of iterations: 1930 
   19900    56.651841     4838          541         4297 5.5377798e-13 4.1271806e-13          0.1 0.0090081371    20.533126  0.029885684 
number of iterations: 1928 
   20000    56.894195     4963          549         4414 5.6111672e-13 4.248972e-13          0.1 0.0090082297     20.67204  0.029885505 
number of iterations: 1959 
   20100    57.138201     5096          550         4546 5.6855273e-13 4.3743733e-13          0.1 0.0090083413     20.80775  0.029885295 
number of iterations: 1885 
   20200    57.381342     5246          556         4690 5.7608727e-13 4.5038571e-13          0.1 0.0090084268    20.940044  0.029885127 
number of iterations: 1969 
   20300    57.638761     5388          563         4825 5.8372166e-13 4.6372219e-13          0.1 0.0090085391    21.068727  0.029884915 
number of iterations: 1932 
   20400    57.868189     5561          570         4991 5.9145723e-13 4.7756894e-13          0.1 0.0090086402    21.193517  0.029884719 
number of iterations: 1901 
   20500    58.124751     5707          576         5131 5.992953e-13 4.9184072e-13          0.1 0.0090087241    21.314194  0.029884552 
number of iterations: 1923 
   20600    58.370805     5874          583         5291 6.0723725e-13 5.064578e-13          0.1 0.0090088223    21.430597  0.029884362 
number of iterations: 1965 
   20700    58.652289     6037          592         5445 6.1528444e-13 5.2099454e-13          0.1 0.0090089222    21.542856  0.029884167 
number of iterations: 1945 
   20800    58.906316     6196          606         5590 6.2343828e-13 5.3627455e-13          0.1 0.0090090357    21.650538  0.029883949 
number of iterations: 1945 
   20900    59.168751     6366          613         5753 6.3170017e-13 5.5206757e-13          0.1 0.0090091446    21.753368  0.029883737 
number of iterations: 1954 
   21000    59.431861     6557          622         5935 6.4007155e-13 5.6853678e-13          0.1 0.0090092605    21.850959  0.029883511 
number of iterations: 1917 
   21100    59.724423     6758          634         6124 6.4855387e-13 5.8526871e-13          0.1  0.009009356    21.943216   0.02988332 
number of iterations: 2016 
   21200    59.990474     6938          643         6295 6.5714859e-13 6.0275753e-13          0.1 0.0090094695    22.029702  0.029883098 
number of iterations: 1912 
   21300    60.252764     7145          655         6490 6.6585722e-13 6.2086457e-13          0.1 0.0090095638    22.110078  0.029882905 
number of iterations: 1944 
   21400    60.552726     7370          666         6704 6.7468125e-13 6.3952414e-13          0.1 0.0090096672    22.184053  0.029882697 
number of iterations: 1954 
   21500    60.964306     7561          670         6891 6.8362222e-13 6.5863422e-13          0.1 0.0090097718     22.25141  0.029882485 
number of iterations: 1990 
   21600    61.247774     7759          678         7081 6.9268167e-13 6.7808568e-13          0.1 0.0090098909    22.312011   0.02988225 
number of iterations: 1996 
   21700    61.514533     7975          683         7292 7.0186118e-13 6.9793965e-13          0.1 0.0090099934    22.365678   0.02988204 
number of iterations: 1942 
   21800    61.759435     8207          701         7506 7.1116234e-13 7.1848401e-13          0.1 0.0090100962    22.412036  0.029881829 
number of iterations: 1975 
   21900    62.046443     8426          714         7712 7.2058675e-13 7.4000126e-13          0.1 0.0090102046    22.450514  0.029881608 
number of iterations: 2013 
   22000    62.335859     8671          720         7951 7.3013606e-13 7.6189684e-13          0.1 0.0090103492    22.480963  0.029881324 
number of iterations: 1995 
   22100    62.606266     8902          729         8173 7.3981192e-13 7.8458985e-13          0.1 0.0090104636    22.502944   0.02988109 
number of iterations: 1957 
   22200    62.871982     9146          742         8404 7.4961601e-13 8.0788268e-13          0.1 0.0090105706    22.516161  0.029880866 
number of iterations: 1952 
   22300    63.145916     9419          752         8667 7.5955001e-13 8.3200339e-13          0.1 0.0090106876    22.520162  0.029880625 
number of iterations: 2036 
   22400    63.464388     9697          757         8940 7.6961567e-13 8.563644e-13          0.1 0.0090108203     22.51491  0.029880357 
number of iterations: 1940 
   22500    63.733147     9980          771         9209 7.7981471e-13  8.82043e-13          0.1 0.0090109417    22.499625  0.029880105 
number of iterations: 1971 
   22600    64.016392    10261          778         9483 7.9014891e-13 9.0802984e-13          0.1 0.0090110618    22.474231  0.029879856 
number of iterations: 1960 
   22700    64.313607    10568          792         9776 8.0062006e-13 9.3514025e-13          0.1 0.0090111676    22.438096  0.029879629 
number of iterations: 1976 
   22800    64.625781    10872          806        10066 8.1122998e-13 9.6254686e-13          0.1  0.009011282    22.391168  0.029879386 
number of iterations: 1978 
   22900    64.922608    11141          814        10327 8.219805e-13 9.9067302e-13          0.1 0.0090113996    22.333107  0.029879136 
number of iterations: 2065 
   23000    65.250552    11449          827        10622 8.3287348e-13 1.0203553e-12          0.1  0.009011508    22.262998  0.029878898 
number of iterations: 2017 
   23100    65.565921    11756          834        10922 8.4391082e-13 1.0502212e-12          0.1 0.0090116449    22.180895  0.029878615 
number of iterations: 1995 
   23200    65.885481    12107          843        11264 8.5509443e-13 1.0808471e-12          0.1 0.0090117646    22.086454  0.029878357 
number of iterations: 1977 
   23300    66.193199    12480          858        11622 8.6642624e-13 1.1121678e-12          0.1 0.0090118696    21.979388  0.029878123 
number of iterations: 2084 
   23400    66.563144    12831          873        11958 8.7790823e-13 1.1451086e-12          0.1 0.0090120006    21.858779  0.029877843 
number of iterations: 2044 
   23500     66.89989    13227          882        12345 8.8954237e-13 1.1781659e-12          0.1 0.0090121465    21.724766  0.029877539 
number of iterations: 2016 
   23600    67.208518    13556          889        12667 9.0133069e-13 1.2127493e-12          0.1 0.0090122781     21.57652  0.029877255 
number of iterations: 2009 
   23700    67.565498    13956          911        13045 9.1327522e-13 1.2481485e-12          0.1 0.0090124123    21.413723  0.029876967 
number of iterations: 2001 
   23800    67.877121    14377          923        13454 9.2437255e-13 1.2850713e-12          0.1 0.0090125229    21.234812  0.029876714 
number of iterations: 2010 
   23900    68.197053    14737          937        13800 9.3662244e-13 1.3224354e-12          0.1 0.0090126573     21.04053  0.029876419 
number of iterations: 2048 
   24000    68.507534    15148          951        14197 9.4903466e-13 1.3612816e-12          0.1 0.0090127916    20.830152  0.029876124 
number of iterations: 2018 
   24100    68.909397    15566          956        14610 9.6161137e-13 1.4009568e-12          0.1 0.0090129047    20.603429  0.029875862 
number of iterations: 2103 
   24200    69.246148    16019          965        15054 9.7435475e-13 1.440912e-12          0.1 0.0090130422    20.360511  0.029875562 
number of iterations: 2038 
   24300    69.579914    16477          974        15503 9.8726701e-13 1.4821766e-12          0.1 0.0090131823    20.100863  0.029875254 
number of iterations: 2026 
   24400    69.926576    16903          979        15924 1.0003504e-12 1.5250243e-12          0.1 0.0090133031    19.823791  0.029874977 
number of iterations: 2028 
   24500    70.309377    17351          993        16358 1.0136071e-12 1.5687528e-12          0.1 0.0090134499    19.529122  0.029874656 
number of iterations: 2022 
   24600     70.66199    17899         1003        16896 1.0270396e-12 1.613743e-12          0.1  0.009013567    19.216455  0.029874382 
number of iterations: 2038 
   24700    71.024938    18375         1011        17364  1.04065e-12 1.6599515e-12          0.1 0.0090137134    18.885463  0.029874059 
number of iterations: 2055 
   24800    71.409046    18871         1033        17838 1.0544408e-12 1.7074979e-12          0.1 0.0090138559    18.535782  0.029873742 
number of iterations: 2051 
   24900    71.787555    19375         1048        18327 1.0684143e-12 1.7552041e-12          0.1 0.0090140052      18.1679  0.029873412 
number of iterations: 2049 
   25000    72.149277    19898         1061        18837 1.0825731e-12 1.8045704e-12          0.1 0.0090141555    17.781339  0.029873079 
number of iterations: 2073 
   25100    72.529552    20460         1073        19387 1.0969194e-12 1.8550935e-12          0.1 0.0090143173    17.376027  0.029872727 
number of iterations: 2083 
   25200    72.948976    20993         1087        19906 1.1114559e-12 1.9066843e-12          0.1 0.0090144638    16.952023  0.029872397 
number of iterations: 2075 
   25300     73.34662    21588         1103        20485 1.126185e-12 1.9592468e-12          0.1 0.0090146067    16.509532  0.029872076 
number of iterations: 2064 
   25400    73.760522    22163         1118        21045 1.1411093e-12 2.0128984e-12          0.1 0.0090147637    16.048765   0.02987173 
number of iterations: 2051 
   25500     74.16315    22746         1133        21613 1.1550753e-12 2.0680106e-12          0.1 0.0090148826    15.568904  0.029871447 
number of iterations: 2032 
   25600    74.584893    23373         1147        22226 1.1703825e-12 2.1248319e-12          0.1 0.0090150433    15.070864  0.029871097 
number of iterations: 2075 
   25700    74.984754    23989         1163        22826 1.1858925e-12 2.1821785e-12          0.1 0.0090152074    14.555591  0.029870741 
number of iterations: 2090 
   25800    75.413738    24618         1173        23445 1.2016081e-12 2.2409521e-12          0.1 0.0090153903    14.023581  0.029870355 
number of iterations: 2089 
   25900    75.858409    25278         1192        24086 1.2175319e-12 2.2997515e-12          0.1 0.0090155777    13.476411  0.029869965 
number of iterations: 2152 
   26000    76.365508    25944         1205        24739 1.2336667e-12 2.3596233e-12          0.1 0.0090157918     12.91515  0.029869532 
number of iterations: 2004 
   26100    76.835814    26565         1217        25348 1.2478627e-12 2.4212322e-12          0.1 0.0090159289    12.339005  0.029869229 
number of iterations: 2117 
   26200    77.304137    27270         1228        26042 1.2643995e-12 2.4825902e-12          0.1 0.0090161418    11.752026  0.029868809 
number of iterations: 2109 
   26300     77.75638    27955         1258        26697 1.2811554e-12 2.544891e-12          0.1 0.0090163663    11.156075  0.029868372 
number of iterations: 2049 
   26400    78.232724    28637         1271        27366 1.2981334e-12 2.6080786e-12          0.1 0.0090165597    10.553349  0.029867994 
number of iterations: 2130 
   26500    78.715154    29330         1285        28045 1.3153364e-12 2.6725249e-12          0.1 0.0090167995    9.9461481  0.029867543 
number of iterations: 2118 
   26600    79.194474    30071         1300        28771 1.3327673e-12 2.7365808e-12          0.1 0.0090170341    9.3381351  0.029867109 
number of iterations: 2100 
   26700    79.745733    30778         1324        29454 1.3504292e-12 2.7996737e-12          0.1 0.0090172906    8.7336297  0.029866648 
number of iterations: 2058 
   26800    80.250964    31465         1335        30130 1.364062e-12 2.8633075e-12          0.1 0.0090174675    8.1330942  0.029866332 
number of iterations: 2153 
   26900    80.779318    32156         1356        30800 1.3821386e-12 2.9275512e-12          0.1 0.0090177465    7.5440219  0.029865858 
number of iterations: 2114 
   27000    81.336572    32846         1368        31478 1.3991719e-12 2.9911605e-12          0.1 0.0090179992    6.9705583   0.02986544 
number of iterations: 2133 
   27100    81.873853    33574         1392        32182 1.4177138e-12 3.0530156e-12          0.1 0.0090183028    6.4196651  0.029864952 
number of iterations: 2121 
   27200    82.429578    34256         1419        32837 1.4365015e-12 3.1143353e-12          0.1 0.0090185991    5.8965735   0.02986449 
number of iterations: 2191 
   27300    82.996217    34920         1438        33482 1.4555381e-12 3.1744958e-12          0.1 0.0090189304    5.4066682  0.029863984 
number of iterations: 2276 
   27400    83.616396    35561         1462        34099 1.4723818e-12 3.2339862e-12          0.1 0.0090192753    4.9527227  0.029863466 
number of iterations: 2361 
   27500    84.216305    36168         1477        34691 1.4906242e-12 3.2910712e-12          0.1 0.0090196266    4.5405901  0.029862952 
number of iterations: 2450 
   27600    84.846514    36796         1488        35308 1.5103781e-12 3.3473745e-12          0.1 0.0090200104    4.1741022  0.029862391 
number of iterations: 2537 
   27700    85.473849    37488         1516        35972 1.5303937e-12 3.4025148e-12          0.1 0.0090203794    3.8547555  0.029861858 
number of iterations: 2620 
   27800    86.117425    38070         1533        36537 1.5497248e-12 3.4553427e-12          0.1 0.0090207647    3.5821537  0.029861299 
number of iterations: 2699 
   27900    86.803879    38681         1557        37124 1.5702618e-12 3.5079475e-12          0.1 0.0090211591    3.3548463  0.029860719 
number of iterations: 2771 
   28000    87.465142    39243         1575        37668 1.5899904e-12 3.5598379e-12          0.1 0.0090215372    3.1685436  0.029860156 
number of iterations: 2835 
   28100    88.125777    39781         1588        38193 1.611061e-12 3.6092495e-12          0.1 0.0090218959    3.0204419  0.029859614 
number of iterations: 2889 
   28200    88.810899    40330         1606        38724 1.6314129e-12 3.6599997e-12          0.1 0.0090222651    2.9037183  0.029859039 
number of iterations: 2938 
   28300    89.527418    40879         1622        39257 1.6517659e-12 3.7100612e-12          0.1 0.0090226359    2.8132088  0.029858447 
number of iterations: 2981 
   28400     90.24514    41451         1650        39801 1.6727092e-12 3.7598139e-12          0.1  0.009022985    2.7443584  0.029857876 
number of iterations: 3018 
   28500     90.93753    42016         1674        40342 1.6937679e-12 3.8095417e-12          0.1 0.0090232776    2.6925966  0.029857388 
number of iterations: 3050 
   28600    91.686944    42563         1696        40867 1.7152446e-12 3.8583901e-12          0.1 0.0090236356    2.6545958  0.029856781 
number of iterations: 3076 
   28700      92.4156    43154         1726        41428 1.7367678e-12 3.9080916e-12          0.1 0.0090239537    2.6266892  0.029856231 
number of iterations: 3101 
   28800    93.146484    43711         1747        41964 1.7597835e-12 3.9586895e-12          0.1 0.0090242765    2.6071169  0.029855665 
number of iterations: 3125 
   28900    93.904936    44302         1768        42534 1.7831042e-12 4.0094757e-12          0.1 0.0090245928    2.5937991  0.029855106 
number of iterations: 3144 
   29000    94.643967    44828         1793        43035 1.8057699e-12 4.0605925e-12          0.1 0.0090249682     2.584365  0.029854442 
number of iterations: 3162 
   29100    95.395911    45369         1813        43556 1.828626e-12 4.1126668e-12          0.1 0.0090253018    2.5775308  0.029853842 
number of iterations: 3180 
   29200    96.133695    45990         1830        44160 1.852859e-12 4.1658359e-12          0.1 0.0090255981    2.5732405  0.029853302 
number of iterations: 3196 
   29300    96.940957    46614         1850        44764 1.8774132e-12 4.2188511e-12          0.1 0.0090259326    2.5710279  0.029852697 
number of iterations: 3213 
   29400    97.730161    47173         1873        45300 1.9014742e-12 4.2722037e-12          0.1  0.009026282    2.5697511  0.029852064 
number of iterations: 3230 
   29500    98.507473    47786         1896        45890 1.9266726e-12 4.3266932e-12          0.1 0.0090266275    2.5696032  0.029851437 
number of iterations: 3248 
   29600    99.328835    48446         1920        46526 1.9522049e-12 4.3824254e-12          0.1 0.0090270116    2.5700456  0.029850742 
number of iterations: 3262 
   29700    100.10921    49043         1943        47100 1.9780756e-12 4.436942e-12          0.1 0.0090273903    2.5715556  0.029850058 
number of iterations: 3278 
   29800    100.91045    49688         1965        47723 2.0029806e-12 4.493504e-12          0.1 0.0090277198    2.5723164  0.029849452 
number of iterations: 3293 
   29900    101.73677    50321         1992        48329 2.0279812e-12 4.551178e-12          0.1 0.0090280212    2.5722647  0.029848893 
number of iterations: 3309 
   30000    102.54367    50942         2022        48920 2.0534884e-12 4.6098253e-12          0.1 0.0090283116    2.5717393  0.029848351 
number of iterations: 3325 
   30100    103.39151    51592         2049        49543 2.0800036e-12 4.668381e-12          0.1 0.0090286683    2.5717176    0.0298477 
number of iterations: 3338 
   30200    104.21134    52264         2066        50198 2.1038419e-12 4.7279049e-12          0.1 0.0090289669    2.5696224  0.029847145 
number of iterations: 3352 
   30300    105.04945    52916         2090        50826 2.1280794e-12 4.7873827e-12          0.1 0.0090293168    2.5665396  0.029846506 
number of iterations: 3368 
   30400     105.9006    53603         2118        51485 2.1553982e-12 4.8478694e-12          0.1 0.0090296957    2.5648909   0.02984582 
number of iterations: 3385 
   30500    106.78172    54343         2139        52204 2.1817829e-12 4.9098564e-12          0.1 0.0090300581    2.5629276  0.029845158 
number of iterations: 3399 
   30600    107.67638    54988         2163        52825 2.209892e-12 4.9710268e-12          0.1 0.0090304494    2.5623949  0.029844448 
number of iterations: 3413 
   30700    108.55347    55675         2198        53477 2.2364459e-12 5.0337098e-12          0.1 0.0090308071    2.5610392  0.029843791 
number of iterations: 3433 
   30800    109.43539    56398         2236        54162 2.2660833e-12 5.0964025e-12          0.1 0.0090312005    2.5615658  0.029843074 
number of iterations: 3449 
   30900    110.32957    57109         2264        54845 2.2961134e-12 5.160759e-12          0.1  0.009031591     2.562968  0.029842359 
number of iterations: 3465 
   31000    111.22817    57852         2296        55556 2.3265415e-12 5.2257391e-12          0.1 0.0090320017    2.5649828   0.02984161 
number of iterations: 3477 
   31100    112.14762    58550         2319        56231 2.356511e-12 5.2918038e-12          0.1 0.0090324509    2.5666195  0.029840795 
number of iterations: 3490 
   31200    113.07199    59241         2356        56885 2.3877395e-12 5.3560193e-12          0.1 0.0090328993    2.5696175  0.029839983 
number of iterations: 3506 
   31300    114.01335    60035         2385        57650 2.4145073e-12 5.4243132e-12          0.1 0.0090332708     2.568548  0.029839291 
number of iterations: 3520 
   31400    114.95038    60823         2410        58413 2.4438392e-12 5.4920947e-12          0.1 0.0090336986    2.5672563  0.029838514 
number of iterations: 3542 
   31500    115.93598    61586         2438        59148 2.4727557e-12 5.5601143e-12          0.1 0.0090340475    2.5654519  0.029837867 
number of iterations: 3568 
   31600    116.94791    62345         2468        59877 2.5055246e-12 5.6288845e-12          0.1 0.0090345501     2.566088  0.029836965 
number of iterations: 3595 
   31700    117.91755    63092         2500        60592 2.5372624e-12 5.6990492e-12          0.1 0.0090349565    2.5668368  0.029836218 
number of iterations: 3623 
   31800    118.91615    63862         2538        61324 2.5698102e-12 5.7706097e-12          0.1 0.0090353687    2.5677828  0.029835458 
number of iterations: 3654 
   31900    119.90308    64622         2569        62053 2.6038652e-12 5.843989e-12          0.1 0.0090358844    2.5693731  0.029834527 
number of iterations: 3681 
   32000    120.92452    65390         2591        62799 2.6338201e-12 5.9177213e-12          0.1 0.0090363359     2.568005    0.0298337 
number of iterations: 3710 
   32100    121.96133    66198         2622        63576 2.6656535e-12 5.9904512e-12          0.1 0.0090367844    2.5668262  0.029832883 
number of iterations: 3744 
   32200    122.99799    67027         2647        64380 2.6981156e-12 6.065172e-12          0.1 0.0090372199    2.5655691  0.029832084 
number of iterations: 3778 
   32300    124.05956    67891         2679        65212 2.7323952e-12 6.1403839e-12          0.1 0.0090377143    2.5655225  0.029831188 
number of iterations: 3805 
   32400    125.12008    68738         2710        66028 2.7671178e-12 6.2169159e-12          0.1 0.0090381956    2.5660034  0.029830312 
number of iterations: 3840 
   32500    126.19917    69614         2757        66857 2.8005838e-12   6.2925e-12          0.1 0.0090386613    2.5661151  0.029829461 
number of iterations: 3873 
   32600     127.3042    70414         2785        67629 2.8367745e-12 6.3695289e-12          0.1 0.0090391855    2.5676404  0.029828513 
number of iterations: 3897 
   32700     128.4035    71265         2823        68442 2.8712537e-12 6.4489601e-12          0.1 0.0090396306    2.5677221  0.029827692 
number of iterations: 3929 
   32800    129.49497    72159         2864        69295   2.9082e-12 6.5284104e-12          0.1 0.0090401539    2.5689731  0.029826741 
number of iterations: 3967 
   32900     130.6228    73013         2901        70112 2.9454558e-12 6.6089852e-12          0.1 0.0090406541    2.5706467  0.029825824 
number of iterations: 3994 
   33000    131.78173    73928         2940        70988 2.9817368e-12 6.6915019e-12          0.1 0.0090411688    2.5710869  0.029824883 
number of iterations: 4028 
   33100    132.93402    74796         2972        71824 3.0123105e-12 6.7725072e-12          0.1 0.0090415698    2.5670249  0.029824136 
number of iterations: 4059 
   33200    134.09849    75731         3011        72720 3.0503187e-12 6.856363e-12          0.1 0.0090420407    2.5656039  0.029823273 
number of iterations: 4094 
   33300    135.27531    76610         3038        73572 3.0854414e-12 6.9382079e-12          0.1 0.0090425389    2.5639197  0.029822366 
number of iterations: 4128 
   33400    136.45636    77607         3086        74521 3.1263295e-12 7.0246939e-12          0.1 0.0090431584    2.5649981  0.029821251 
number of iterations: 4161 
   33500    137.70613    78563         3118        75445 3.1667673e-12 7.1116515e-12          0.1 0.0090436479    2.5668345  0.029820349 
number of iterations: 4198 
   33600    138.94491    79532         3166        76366 3.2075449e-12 7.1982752e-12          0.1    0.0090442    2.5693742   0.02981934 
number of iterations: 4233 
   33700    140.18554    80479         3203        77276 3.2479474e-12 7.2862675e-12          0.1 0.0090447858    2.5714288  0.029818275 
number of iterations: 4267 
   33800    141.43902    81493         3255        78238 3.2869951e-12 7.3752633e-12          0.1 0.0090453503    2.5718418  0.029817244 
number of iterations: 4304 
   33900    142.69924    82499         3286        79213 3.3246439e-12 7.465707e-12          0.1 0.0090458365    2.5699506  0.029816342 
number of iterations: 4337 
   34000    144.02435    83560         3333        80227 3.3650667e-12 7.5564846e-12          0.1 0.0090463857    2.5691276  0.029815341 
number of iterations: 4370 
   34100    145.30264    84559         3365        81194 3.4023659e-12 7.6490668e-12          0.1 0.0090469066    2.5657249  0.029814384 
number of iterations: 4405 
   34200    146.60765    85584         3404        82180 3.4453078e-12 7.7418664e-12          0.1 0.0090474289    2.5655938  0.029813426 
number of iterations: 4444 
   34300    147.93693    86540         3433        83107 3.4892845e-12 7.8360353e-12          0.1 0.0090480239    2.5671306  0.029812342 
number of iterations: 4481 
   34400    149.27901    87541         3482        84059 3.5320447e-12 7.9294838e-12          0.1 0.0090486263    2.5686205  0.029811244 
number of iterations: 4496 
   34500    150.63813    88580         3530        85050 3.5735137e-12 8.0246797e-12          0.1 0.0090492463    2.5684607  0.029810115 
number of iterations: 4523 
   34600    152.00212    89633         3571        86062 3.6176922e-12 8.1215688e-12          0.1 0.0090498128    2.5691828  0.029809073 
number of iterations: 4565 
   34700    153.41003    90752         3620        87132 3.6610603e-12 8.2198457e-12          0.1 0.0090503885     2.569128  0.029808018 
number of iterations: 4598 
   34800     154.8365    91857         3662        88195 3.7033224e-12 8.3209852e-12          0.1 0.0090509281    2.5669354  0.029807018 
number of iterations: 4637 
   34900    156.26914    92918         3696        89222 3.7435382e-12 8.4190967e-12          0.1 0.0090514267    2.5634537  0.029806094 
number of iterations: 4680 
   35000    157.76582    94097         3745        90352 3.7891472e-12 8.5195258e-12          0.1 0.0090520533    2.5629603  0.029804959 
Loop time of 157.766 on 32 procs for 35000 steps with 94097 atoms

Performance: 191676439.128 tau/day, 221.848 timesteps/s
92.4% CPU use with 32 MPI tasks x no OpenMP threads

MPI task timing breakdown:
Section |  min time  |  avg time  |  max time  |%varavg| %total
---------------------------------------------------------------
Pair    | 0.055674   | 4.0672     | 11.441     | 138.1 |  2.58
Neigh   | 0.022906   | 1.3976     | 3.2743     |  67.3 |  0.89
Comm    | 0.74088    | 1.3463     | 1.9314     |  28.0 |  0.85
Output  | 48.389     | 48.39      | 48.401     |   0.0 | 30.67
Modify  | 91.162     | 91.677     | 92.204     |   2.7 | 58.11
Other   |            | 10.89      |            |       |  6.90

Nlocal:    2940.53 ave 5208 max 168 min
Histogram: 1 1 4 2 3 7 6 3 2 3
Nghost:    1542.06 ave 3251 max 176 min
Histogram: 4 0 5 4 5 5 7 1 0 1
Neighs:    23775.1 ave 49349 max 678 min
Histogram: 2 3 3 2 7 6 5 0 3 1

Total # of neighbors = 760802
Ave neighs/atom = 8.08529
Neighbor list builds = 806
Dangerous builds = 0
Total wall time: 0:02:37
