LAMMPS (20 Nov 2019)
Reading data file ...
  orthogonal box = (0 0 0) to (0.0001 0.0001 0.0001)
  2 by 4 by 4 MPI processor grid
  reading atoms ...
  100 atoms
  4 nutrients
Lattice spacing in x,y,z = 100 100 100
100 atoms in group CYANO
0 atoms in group ECW
Model is defined as a closed system. 
Neighbor list info ...
  update every 1 steps, delay 0 steps, check yes
  max neighbors/atom: 5000, page size: 100000
  master list distance cutoff = 2.43e-06
  ghost atom cutoff = 2.43e-06
  binsize = 1.215e-06, bins = 83 83 83
  1 neighbor lists, perpetual/occasional/extra = 1 0 0
  (1) pair gran/hooke/history, perpetual
      attributes: half, newton off, size, history
      pair build: half/size/bin/newtoff
      stencil: half/bin/3d/newtoff
      bin: standard
Setting up Verlet run ...
  Unit style    : lj
  Current step  : 0
  Time step     : 10
Per MPI rank memory allocation (min/avg/max) = 5.856 | 9.454 | 10.91 Mbytes
Step CPU Atoms c_myNtypes[1] c_myNtypes[2] c_myMass[1] c_myMass[2] c_myCon[1] c_myCon[2] c_myCon[3] c_myCon[4] 
       0            0      100          100            0 9.0793023e-14            0          0.1        0.009     3.42e-20       0.0299 
number of iterations: 124134 
     100    1.3129634      100          100            0 9.252918e-14            0          0.1  0.009000452 2.6033276e-06  0.029899247 
number of iterations: 108919 
     200    2.4191744      100          100            0 9.4298536e-14            0          0.1 0.0090004606  6.68162e-06  0.029899233 
number of iterations: 97056 
     300    3.4538117      100          100            0 9.6101727e-14            0          0.1 0.0090004694 1.2956129e-05  0.029899218 
number of iterations: 86423 
     400    4.3448127      102          102            0 9.7939398e-14            0          0.1 0.0090004784 2.2621967e-05  0.029899203 
number of iterations: 76397 
     500     5.150048      104          104            0 9.9812209e-14            0          0.1 0.0090004876 3.7574807e-05  0.029899188 
number of iterations: 66615 
     600    5.8578607      110          110            0 1.0172083e-13            0          0.1  0.009000497 6.090255e-05  0.029899173 
number of iterations: 56778 
     700    6.4710523      112          112            0 1.0366595e-13            0          0.1 0.0090005065 9.7878208e-05  0.029899157 
number of iterations: 46482 
     800    6.9856863      113          113            0 1.0564827e-13            0          0.1 0.0090005162 0.00015841109  0.029899141 
number of iterations: 36824 
     900    7.4110744      116          116            0 1.0766849e-13            0          0.1 0.0090005246 0.00025576037  0.029899127 
number of iterations: 27247 
    1000    7.7480402      117          117            0 1.0972734e-13            0          0.1 0.0090005347 0.00041404957   0.02989911 
number of iterations: 17858 
    1100    7.9958427      117          117            0 1.1182557e-13            0          0.1 0.0090005449 0.00067673855  0.029899093 
number of iterations: 13850 
    1200    8.2031627      119          119            0 1.1396391e-13            0          0.1 0.0090005553 0.0010213866  0.029899075 
number of iterations: 10749 
    1300    8.3681632      121          121            0 1.1614314e-13            0          0.1 0.0090005629 0.0014436034  0.029899063 
number of iterations: 13886 
    1400    8.5616813      124          124            0 1.1836405e-13            0          0.1 0.0090005737 0.0019427144  0.029899045 
number of iterations: 13976 
    1500    8.7544883      124          124            0 1.2062742e-13            0          0.1 0.0090005846 0.0025175097  0.029899027 
number of iterations: 14037 
    1600     8.943749      127          127            0 1.2293408e-13            0          0.1 0.0090005958 0.0031670262  0.029899008 
number of iterations: 14098 
    1700    9.1310428      129          129            0 1.2528484e-13            0          0.1 0.0090006072 0.0038902785  0.029898989 
number of iterations: 14159 
    1800    9.3176627      131          131            0 1.2768056e-13            0          0.1 0.0090006188 0.0046860766   0.02989897 
number of iterations: 14220 
    1900     9.503951      134          134            0 1.3012208e-13            0          0.1 0.0090006307   0.00555314   0.02989895 
number of iterations: 14281 
    2000    9.7198707      137          137            0 1.326103e-13            0          0.1 0.0090006427 0.0064901375   0.02989893 
number of iterations: 14342 
    2100     9.911027      139          139            0 1.3514609e-13            0          0.1 0.0090006552 0.0074971658  0.029898909 
number of iterations: 14403 
    2200     10.09907      139          139            0 1.3773037e-13            0          0.1 0.0090006678 0.0085723451  0.029898888 
number of iterations: 14464 
    2300    10.285708      141          141            0 1.4036407e-13            0          0.1 0.0090006805 0.0097147307  0.029898867 
number of iterations: 14525 
    2400    10.474349      144          144            0 1.4304814e-13            0          0.1 0.0090006935  0.010923912  0.029898845 
number of iterations: 14586 
    2500    10.662156      147          147            0 1.4578352e-13            0          0.1 0.0090007068  0.012186797  0.029898823 
number of iterations: 14234 
    2600     10.84339      149          149            0 1.4857122e-13            0          0.1 0.0090007203  0.013500769  0.029898801 
number of iterations: 14702 
    2700    11.030135      149          149            0 1.5141222e-13            0          0.1 0.0090007341  0.014865375  0.029898778 
number of iterations: 14762 
    2800    11.216392      150          150            0 1.5430754e-13            0          0.1 0.0090007481  0.016281047  0.029898754 
number of iterations: 14823 
    2900    11.407069      152          152            0 1.5725823e-13            0          0.1 0.0090007624  0.017747786  0.029898731 
number of iterations: 14884 
    3000    11.595979      154          154            0 1.6026535e-13            0          0.1  0.009000777  0.019266167  0.029898706 
number of iterations: 14945 
    3100    11.786351      155          155            0 1.6332997e-13            0          0.1 0.0090007922  0.020837963  0.029898681 
number of iterations: 15007 
    3200    11.978069      159          159            0 1.6645318e-13            0          0.1 0.0090008076  0.022462734  0.029898655 
number of iterations: 15068 
    3300    12.168396      165          165            0 1.6963613e-13            0          0.1  0.009000823  0.024140334   0.02989863 
number of iterations: 15129 
    3400    12.359344      172          172            0 1.7287993e-13            0          0.1 0.0090008387  0.025871442  0.029898603 
number of iterations: 15190 
    3500    12.551082      176          176            0 1.7618577e-13            0          0.1 0.0090008548  0.027656657  0.029898577 
number of iterations: 15251 
    3600    12.741332      177          177            0 1.7955482e-13            0          0.1 0.0090008711  0.029496492   0.02989855 
number of iterations: 15344 
    3700    12.961334      180          180            0 1.8298829e-13            0          0.1 0.0090008894  0.031392632  0.029898519 
number of iterations: 15374 
    3800    13.153198      181          181            0 1.8648742e-13            0          0.1 0.0090009064  0.033344884  0.029898491 
number of iterations: 15435 
    3900    13.345747      183          183            0 1.9005346e-13            0          0.1 0.0090009238  0.035354458  0.029898462 
number of iterations: 15496 
    4000    13.539856      185          185            0 1.9368769e-13            0          0.1 0.0090009415  0.037421841  0.029898432 
number of iterations: 15557 
    4100    13.733722      190          190            0 1.9739141e-13            0          0.1 0.0090009595  0.039547565  0.029898402 
number of iterations: 15618 
    4200    13.928444      193          193            0 2.0116596e-13            0          0.1 0.0090009778  0.041732979  0.029898372 
number of iterations: 15679 
    4300    14.125194      196          196            0 2.0501268e-13            0          0.1 0.0090009965  0.043978561  0.029898341 
number of iterations: 15656 
    4400    14.320543      201          201            0 2.0893296e-13            0          0.1 0.0090010153  0.046285583   0.02989831 
number of iterations: 15800 
    4500    14.517684      207          207            0 2.1292821e-13            0          0.1 0.0090010347  0.048654948  0.029898277 
number of iterations: 15964 
    4600    14.716392      209          209            0 2.1699985e-13            0          0.1 0.0090010572  0.051099678   0.02989824 
number of iterations: 15784 
    4700    14.912919      212          212            0 2.2114935e-13            0          0.1 0.0090010733  0.053608356  0.029898213 
number of iterations: 15982 
    4800    15.110553      216          216            0 2.253782e-13            0          0.1 0.0090010935  0.056182624  0.029898179 
number of iterations: 16093 
    4900    15.309732      224          224            0 2.2968792e-13            0          0.1 0.0090011149   0.05882492  0.029898144 
number of iterations: 16106 
    5000    15.510468      226          226            0 2.3408004e-13            0          0.1 0.0090011363  0.061535967  0.029898108 
number of iterations: 16167 
    5100    15.708633      232          232            0 2.3855615e-13            0          0.1  0.009001158  0.064317069  0.029898072 
number of iterations: 16228 
    5200    15.907826      239          239            0 2.4311786e-13            0          0.1 0.0090011801  0.067168952  0.029898035 
number of iterations: 17461 
    5300    16.121524      248          248            0 2.4776679e-13            0          0.1 0.0090012083   0.07009431  0.029897988 
number of iterations: 16377 
    5400    16.324952      254          254            0 2.5250462e-13            0          0.1 0.0090012314  0.073092955   0.02989795 
number of iterations: 16582 
    5500    16.529381      258          258            0 2.5733305e-13            0          0.1  0.009001255  0.076166794   0.02989791 
number of iterations: 16609 
    5600    16.734671      267          267            0 2.6225381e-13            0          0.1 0.0090012801   0.07931679  0.029897869 
number of iterations: 16565 
    5700    16.939342      272          272            0 2.6726867e-13            0          0.1 0.0090013046  0.082544602  0.029897828 
number of iterations: 16626 
    5800    17.143387      275          275            0 2.7237941e-13            0          0.1 0.0090013295  0.085851519  0.029897786 
number of iterations: 16632 
    5900     17.34833      280          280            0 2.7758789e-13            0          0.1 0.0090013531  0.089227101  0.029897747 
number of iterations: 16747 
    6000    17.555468      286          286            0 2.8289597e-13            0          0.1  0.009001379  0.092684059  0.029897704 
number of iterations: 16809 
    6100     17.76169      292          292            0 2.8830554e-13            0          0.1 0.0090014054  0.096223656   0.02989766 
number of iterations: 16870 
    6200    17.968424      298          298            0 2.9381856e-13            0          0.1 0.0090014323  0.099847921  0.029897615 
number of iterations: 16060 
    6300    18.168459      301          301            0  2.99437e-13            0          0.1 0.0090014537   0.10355766  0.029897579 
number of iterations: 16978 
    6400    18.376806      305          305            0 3.0516288e-13            0          0.1 0.0090014815   0.10735551  0.029897533 
number of iterations: 17039 
    6500    18.586069      306          306            0 3.1099825e-13            0          0.1 0.0090015099   0.11124278  0.029897486 
number of iterations: 17100 
    6600    18.796257      313          313            0 3.169452e-13            0          0.1 0.0090015387   0.11522074  0.029897438 
number of iterations: 17161 
    6700    19.008202      321          321            0 3.2300587e-13            0          0.1 0.0090015681   0.11929156  0.029897389 
number of iterations: 17222 
    6800    19.218778      324          324            0 3.2918243e-13            0          0.1 0.0090015981   0.12345655  0.029897339 
number of iterations: 17283 
    6900    19.430352      328          328            0 3.354771e-13            0          0.1 0.0090016287   0.12771792  0.029897288 
number of iterations: 17345 
    7000     19.64334      334          334            0 3.4189214e-13            0          0.1 0.0090016598   0.13207509  0.029897236 
number of iterations: 18136 
    7100    19.911579      337          337            0 3.4842985e-13            0          0.1 0.0090016944   0.13651558  0.029897179 
number of iterations: 17459 
    7200    20.126345      344          344            0 3.5509257e-13            0          0.1 0.0090017252   0.14104097  0.029897127 
number of iterations: 17567 
    7300    20.341555      352          352            0 3.618827e-13            0          0.1 0.0090017598    0.1456529   0.02989707 
number of iterations: 17605 
    7400    20.558073      358          358            0 3.6880267e-13            0          0.1 0.0090017935   0.15035303  0.029897014 
number of iterations: 17666 
    7500    20.775526      362          362            0 3.7585497e-13            0          0.1 0.0090018278   0.15514408  0.029896957 
number of iterations: 17729 
    7600     20.99278      371          371            0 3.8304212e-13            0          0.1 0.0090018631   0.16002674  0.029896898 
number of iterations: 17788 
    7700    21.211071      375          375            0 3.903667e-13            0          0.1 0.0090018986   0.16500277  0.029896839 
number of iterations: 17849 
    7800    21.427828      383          383            0 3.9783135e-13            0          0.1 0.0090019347   0.17007395  0.029896779 
number of iterations: 17758 
    7900    21.645097      388          388            0 4.0543873e-13            0          0.1 0.0090019752   0.17524211  0.029896711 
number of iterations: 17969 
    8000    21.865833      391          391            0 4.1319159e-13            0          0.1 0.0090020129   0.18050909  0.029896648 
number of iterations: 18030 
    8100    22.086239      401          401            0 4.210927e-13            0          0.1 0.0090020509   0.18587679  0.029896585 
number of iterations: 18091 
    8200    22.307409      415          415            0 4.2914489e-13            0          0.1 0.0090020901   0.19134714   0.02989652 
number of iterations: 18094 
    8300    22.530047      424          424            0 4.3735105e-13            0          0.1 0.0090021301   0.19692208  0.029896453 
number of iterations: 19286 
    8400    22.792402      431          431            0 4.4571414e-13            0          0.1 0.0090021786   0.20260363  0.029896373 
number of iterations: 18297 
    8500    23.017388      436          436            0 4.5423715e-13            0          0.1 0.0090022202   0.20839383  0.029896303 
number of iterations: 18359 
    8600    23.243333      445          445            0 4.6292313e-13            0          0.1 0.0090022627   0.21429475  0.029896232 
number of iterations: 18218 
    8700    23.466713      459          459            0 4.7177521e-13            0          0.1 0.0090023034    0.2203085  0.029896165 
Loop time of 23.4667 on 32 procs for 8700 steps with 459 atoms

Performance: 320317271.645 tau/day, 370.738 timesteps/s
98.4% CPU use with 32 MPI tasks x no OpenMP threads

MPI task timing breakdown:
Section |  min time  |  avg time  |  max time  |%varavg| %total
---------------------------------------------------------------
Pair    | 0.00094321 | 0.0024913  | 0.004868   |   2.0 |  0.01
Neigh   | 0.0011699  | 0.0020191  | 0.0046268  |   1.6 |  0.01
Comm    | 0.0096346  | 0.03594    | 0.058133   |   7.0 |  0.15
Output  | 0.8901     | 0.89045    | 0.89178    |   0.0 |  3.79
Modify  | 22.483     | 22.487     | 22.492     |   0.0 | 95.82
Other   |            | 0.04884    |            |       |  0.21

Nlocal:    14.3438 ave 38 max 2 min
Histogram: 4 4 8 7 1 3 3 0 1 1
Nghost:    7.03125 ave 19 max 0 min
Histogram: 5 5 3 7 3 2 2 3 0 2
Neighs:    15.4062 ave 38 max 2 min
Histogram: 4 4 3 11 2 2 4 0 0 2

Total # of neighbors = 493
Ave neighs/atom = 1.07407
Neighbor list builds = 102
Dangerous builds = 0
Total wall time: 0:00:23
