LAMMPS (20 Nov 2019)
Reading data file ...
  orthogonal box = (0 0 0) to (0.0001 0.0001 1e-05)
  8 by 4 by 1 MPI processor grid
  reading atoms ...
  100 atoms
  4 nutrients
Lattice spacing in x,y,z = 100 100 100
50 atoms in group CYANO
50 atoms in group ECW
Model is defined as a closed system. 
Neighbor list info ...
  update every 1 steps, delay 0 steps, check yes
  max neighbors/atom: 5000, page size: 100000
  master list distance cutoff = 2.44e-06
  ghost atom cutoff = 2.44e-06
  binsize = 1.22e-06, bins = 82 82 9
  1 neighbor lists, perpetual/occasional/extra = 1 0 0
  (1) pair gran/hooke/history, perpetual
      attributes: half, newton off, size, history
      pair build: half/size/bin/newtoff
      stencil: half/bin/3d/newtoff
      bin: standard
Setting up Verlet run ...
  Unit style    : lj
  Current step  : 0
  Time step     : 10
Per MPI rank memory allocation (min/avg/max) = 6.792 | 10.52 | 12.11 Mbytes
Step CPU Atoms c_myNtypes[1] c_myNtypes[2] c_myMass[1] c_myMass[2] c_myCon[1] c_myCon[2] c_myCon[3] c_myCon[4] 
       0            0      100           50           50 4.3942617e-14 8.7906247e-15          0.1        0.009     3.42e-20       0.0299 
number of iterations: 322749 
     100    15.847904      132           50           82 4.4524954e-14 8.7845683e-15          0.1 0.0090007099  0.035300082  0.029898818 
number of iterations: 3567 
     200    16.176197      145           50           95 4.5115009e-14 8.7799361e-15          0.1 0.0090007192  0.069933964  0.029898802 
number of iterations: 2260 
     300    16.409135      145           50           95 4.5712883e-14 8.776707e-15          0.1 0.0090007287   0.10499225  0.029898786 
number of iterations: 1826 
     400     16.65615      146           51           95 4.631868e-14 8.7748637e-15          0.1 0.0090007383   0.14048329   0.02989877 
number of iterations: 1548 
     500    16.855164      146           51           95 4.6932505e-14 8.7743938e-15          0.1  0.009000748   0.17641384  0.029898754 
number of iterations: 1363 
     600    17.078735      147           52           95 4.7554465e-14 8.7752863e-15          0.1 0.0090007578   0.21279048  0.029898737 
number of iterations: 1480 
     700    17.286872      148           53           95 4.8184667e-14 8.7775303e-15          0.1 0.0090007694   0.24961979  0.029898718 
number of iterations: 1363 
     800    17.474142      148           53           95 4.882322e-14 8.7811183e-15          0.1 0.0090007796    0.2869084  0.029898701 
number of iterations: 1366 
     900    17.644869      148           53           95 4.9470236e-14 8.7860431e-15          0.1 0.0090007898   0.32466298  0.029898684 
number of iterations: 1571 
    1000    17.893194      149           54           95 5.0125826e-14 8.7922969e-15          0.1 0.0090008052   0.36289018  0.029898658 
number of iterations: 1371 
    1100    18.083955      150           55           95 5.0790105e-14 8.7998739e-15          0.1 0.0090008158   0.40159688   0.02989864 
number of iterations: 1374 
    1200    18.278575      150           55           95 5.1463186e-14 8.8087682e-15          0.1 0.0090008266   0.44078996  0.029898622 
number of iterations: 1377 
    1300    18.481254      150           55           95 5.2145187e-14 8.8189744e-15          0.1 0.0090008375   0.48047637  0.029898604 
number of iterations: 1380 
    1400    18.674927      150           55           95 5.2836226e-14 8.8304878e-15          0.1 0.0090008485   0.52066315  0.029898586 
number of iterations: 1383 
    1500    18.868998      150           55           95 5.3536423e-14 8.8433042e-15          0.1 0.0090008597   0.56135741  0.029898567 
number of iterations: 1386 
    1600    19.042036      150           55           95 5.4245899e-14 8.8574199e-15          0.1  0.009000871   0.60256635  0.029898548 
number of iterations: 1389 
    1700    19.211507      152           57           95 5.4964778e-14 8.8728331e-15          0.1 0.0090008812   0.64429727  0.029898531 
number of iterations: 1391 
    1800    19.387915      152           57           95 5.5693183e-14  8.88954e-15          0.1 0.0090008929   0.68655749  0.029898511 
number of iterations: 1394 
    1900    19.595638      152           57           95 5.6431241e-14 8.9075385e-15          0.1 0.0090009046   0.72935446  0.029898492 
number of iterations: 1500 
    2000    19.817604      154           59           95 5.7179079e-14 8.9268259e-15          0.1  0.009000917   0.77269571  0.029898471 
number of iterations: 1349 
    2100     20.00081      156           61           95 5.7936829e-14 8.9474026e-15          0.1 0.0090009211   0.81658886  0.029898464 
number of iterations: 1411 
    2200    20.222353      157           62           95 5.870462e-14 8.9692674e-15          0.1 0.0090009332   0.86104161  0.029898444 
number of iterations: 1404 
    2300    20.442029      158           62           96 5.9482586e-14 8.9924206e-15          0.1 0.0090009455   0.90606177  0.029898423 
number of iterations: 1407 
    2400    20.638321      158           62           96 6.0270862e-14 9.0168627e-15          0.1  0.009000958   0.95165721  0.029898402 
number of iterations: 1640 
    2500    20.820938      159           63           96 6.1069584e-14 9.0425952e-15          0.1 0.0090009756   0.99783594  0.029898373 
number of iterations: 1492 
    2600    20.992227      162           66           96 6.1878891e-14 9.0696201e-15          0.1 0.0090009902    1.0446059  0.029898349 
number of iterations: 1579 
    2700    21.190597      165           68           97 6.2698924e-14 9.0979394e-15          0.1 0.0090010065    1.0919756  0.029898321 
number of iterations: 1424 
    2800    21.386257      165           68           97 6.3529823e-14 9.127554e-15          0.1 0.0090010198     1.139953  0.029898299 
number of iterations: 1427 
    2900    21.588921      165           68           97 6.4371734e-14 9.1584667e-15          0.1 0.0090010333    1.1885466  0.029898277 
number of iterations: 1733 
    3000    21.832725      168           70           98 6.5224802e-14 9.1906783e-15          0.1 0.0090010552     1.237765   0.02989824 
number of iterations: 1604 
    3100    22.032801      169           71           98 6.6089175e-14 9.2241946e-15          0.1 0.0090010741    1.2876166  0.029898209 
number of iterations: 1436 
    3200     22.20345      169           71           98 6.6965002e-14 9.2590198e-15          0.1 0.0090010883    1.3381101  0.029898185 
number of iterations: 1439 
    3300     22.37448      169           71           98 6.7852437e-14 9.2951586e-15          0.1 0.0090011027    1.3892543  0.029898161 
number of iterations: 1442 
    3400    22.567693      169           71           98 6.8751631e-14 9.332616e-15          0.1 0.0090011172    1.4410582  0.029898136 
number of iterations: 1444 
    3500    22.748934      170           71           99 6.9662742e-14 9.3713974e-15          0.1  0.009001132    1.4935306  0.029898112 
number of iterations: 1531 
    3600    22.922323      172           71          101 7.0585928e-14 9.4115063e-15          0.1  0.009001147    1.5466808  0.029898087 
number of iterations: 1608 
    3700    23.122409      173           72          101 7.1521347e-14 9.4529514e-15          0.1 0.0090011682     1.600518  0.029898051 
number of iterations: 1454 
    3800    23.331588      174           72          102 7.2469163e-14 9.4957384e-15          0.1 0.0090011837    1.6550514  0.029898026 
number of iterations: 1457 
    3900    23.546386      175           72          103 7.342954e-14 9.5398755e-15          0.1 0.0090011993    1.7102907  0.029897999 
number of iterations: 1460 
    4000    23.740168      175           72          103 7.4402643e-14  9.58537e-15          0.1 0.0090012152    1.7662453  0.029897973 
number of iterations: 1462 
    4100     23.91938      176           72          104 7.5388643e-14 9.6322301e-15          0.1 0.0090012312     1.822925  0.029897946 
number of iterations: 1465 
    4200    24.108348      176           72          104 7.6387709e-14 9.6804639e-15          0.1 0.0090012475    1.8803396  0.029897919 
number of iterations: 1622 
    4300     24.30745      177           72          105 7.7400014e-14 9.7300805e-15          0.1 0.0090012681     1.938499  0.029897885 
number of iterations: 1573 
    4400    24.506002      182           76          106 7.8425736e-14 9.7810919e-15          0.1  0.009001278    1.9974133  0.029897868 
number of iterations: 1434 
    4500    24.707533      184           78          106 7.946505e-14 9.833505e-15          0.1 0.0090012897    2.0570927  0.029897848 
number of iterations: 1618 
    4600    24.896969      185           79          106 8.0518137e-14 9.8873299e-15          0.1 0.0090013072    2.1175476  0.029897819 
number of iterations: 1484 
    4700    25.078883      186           80          106 8.158518e-14 9.9425761e-15          0.1 0.0090013228    2.1787883  0.029897793 
number of iterations: 1487 
    4800    25.289569      187           80          107 8.2666364e-14 9.9992552e-15          0.1 0.0090013403    2.2408255  0.029897764 
number of iterations: 1489 
    4900    25.483532      189           81          108 8.3761876e-14 1.0057379e-14          0.1 0.0090013529    2.3036699  0.029897743 
number of iterations: 1487 
    5000    25.714697      191           82          109 8.4871906e-14 1.0116959e-14          0.1 0.0090013659    2.3673323  0.029897721 
number of iterations: 1557 
    5100    25.901795      193           84          109 8.5996646e-14 1.017801e-14          0.1 0.0090013871    2.4318238  0.029897686 
number of iterations: 1499 
    5200    26.102287      193           84          109 8.7136291e-14 1.0240542e-14          0.1 0.0090014054    2.4971554  0.029897655 
number of iterations: 1502 
    5300    26.295801      193           84          109 8.8291039e-14 1.0304569e-14          0.1  0.009001424    2.5633384  0.029897624 
number of iterations: 1561 
    5400    26.475914      195           86          109 8.946109e-14 1.0370103e-14          0.1 0.0090014462    2.6303842  0.029897587 
number of iterations: 1507 
    5500      26.6553      195           86          109 9.0646647e-14 1.0437159e-14          0.1 0.0090014653    2.6983043  0.029897555 
number of iterations: 1712 
    5600    26.840978      199           89          110 9.1847915e-14 1.0505751e-14          0.1 0.0090014913    2.7671106  0.029897512 
number of iterations: 1781 
    5700    27.048844      201           90          111 9.3065103e-14 1.0575894e-14          0.1 0.0090015205    2.8368148  0.029897463 
number of iterations: 1437 
    5800    27.230054      204           92          112 9.4298421e-14 1.0647601e-14          0.1 0.0090015318     2.907429  0.029897444 
number of iterations: 1642 
    5900    27.426406      207           93          114 9.5548083e-14 1.0720888e-14          0.1 0.0090015424    2.9789653  0.029897426 
number of iterations: 1526 
    6000    27.607328      209           95          114 9.6814306e-14 1.0795772e-14          0.1 0.0090015628    3.0514362  0.029897392 
number of iterations: 1523 
    6100     27.82135      211           97          114 9.8097309e-14 1.0872269e-14          0.1 0.0090015835    3.1248541  0.029897358 
number of iterations: 1454 
    6200    28.012878      214           99          115 9.9397314e-14 1.0950398e-14          0.1 0.0090015979    3.1992318  0.029897333 
number of iterations: 1647 
    6300    28.203966      216           99          117 1.0071455e-13 1.1030175e-14          0.1 0.0090016265    3.2745816  0.029897286 
number of iterations: 1553 
    6400    28.406328      219          101          118 1.0204924e-13 1.1111616e-14          0.1  0.009001648    3.3509168   0.02989725 
number of iterations: 1507 
    6500    28.599279      221          102          119 1.0340162e-13 1.1194742e-14          0.1 0.0090016659    3.4282506   0.02989722 
number of iterations: 1634 
    6600    28.788585      223          104          119 1.0477191e-13 1.1279573e-14          0.1 0.0090016897    3.5065963   0.02989718 
number of iterations: 1500 
    6700    28.989376      226          107          119 1.0616037e-13 1.1366124e-14          0.1 0.0090017062    3.5859671  0.029897152 
number of iterations: 1537 
    6800    29.175243      227          107          120 1.0756723e-13 1.1454418e-14          0.1 0.0090017288    3.6663769  0.029897115 
number of iterations: 1497 
    6900    29.341514      230          108          122 1.0899274e-13 1.1544473e-14          0.1 0.0090017465    3.7478396  0.029897085 
number of iterations: 1714 
    7000    29.526764      233          111          122 1.1043713e-13 1.1636311e-14          0.1 0.0090017681    3.8303688  0.029897049 
number of iterations: 1611 
    7100     29.74397      237          112          125 1.1190066e-13 1.1729951e-14          0.1  0.009001791    3.9139793  0.029897011 
number of iterations: 1593 
    7200    29.939132      240          114          126 1.1338359e-13 1.182542e-14          0.1 0.0090018177    3.9986854  0.029896966 
number of iterations: 1699 
    7300    30.151439      243          117          126 1.1488618e-13 1.1922735e-14          0.1  0.009001842    4.0845007  0.029896926 
number of iterations: 1481 
    7400    30.331054      246          118          128 1.1640867e-13 1.2021921e-14          0.1  0.009001844    4.1714408  0.029896922 
number of iterations: 1562 
    7500    30.529977      251          120          131 1.1795134e-13 1.2122998e-14          0.1 0.0090018673    4.2595204  0.029896883 
number of iterations: 1515 
    7600    30.819666      254          121          133 1.1951446e-13 1.2225991e-14          0.1  0.009001886    4.3487552  0.029896852 
number of iterations: 1651 
    7700    31.004393      259          124          135 1.2109829e-13 1.2330925e-14          0.1 0.0090019106      4.43916  0.029896811 
number of iterations: 1602 
    7800    31.185663      261          126          135 1.2270311e-13 1.2437825e-14          0.1  0.009001937    4.5307505  0.029896767 
number of iterations: 1565 
    7900    31.379922      262          126          136 1.2432919e-13 1.2546715e-14          0.1 0.0090019627    4.6235423  0.029896724 
number of iterations: 1568 
    8000    31.583889      264          126          138 1.2597683e-13 1.265762e-14          0.1 0.0090019887    4.7175513  0.029896681 
number of iterations: 1571 
    8100     31.79852      265          126          139 1.276463e-13 1.2770565e-14          0.1  0.009002015    4.8127938  0.029896637 
number of iterations: 1573 
    8200    31.973119      266          126          140 1.293379e-13 1.2885578e-14          0.1 0.0090020417    4.9092859  0.029896592 
number of iterations: 1582 
    8300    32.188849      270          129          141 1.3105191e-13 1.3002685e-14          0.1 0.0090020687    5.0070446  0.029896547 
number of iterations: 1582 
    8400    32.394876      271          129          142 1.3278863e-13 1.3121913e-14          0.1 0.0090020961    5.1060863  0.029896501 
number of iterations: 1654 
    8500    32.595442      278          134          144 1.3454837e-13 1.3243296e-14          0.1 0.0090021254    5.2064281  0.029896452 
number of iterations: 1597 
    8600    32.805053      279          134          145 1.3633144e-13 1.3366856e-14          0.1 0.0090021535    5.3080872  0.029896405 
number of iterations: 1587 
    8700    33.007682      280          134          146 1.3813813e-13 1.3492625e-14          0.1 0.0090021821     5.411081  0.029896358 
number of iterations: 1588 
    8800    33.206885      285          137          148 1.3996876e-13 1.3620631e-14          0.1 0.0090022109    5.5154269  0.029896309 
number of iterations: 1591 
    8900     33.43375      289          140          149 1.4182366e-13 1.3750907e-14          0.1 0.0090022416    5.6211432  0.029896258 
number of iterations: 1649 
    9000    33.630759      292          143          149 1.4370313e-13 1.3883483e-14          0.1 0.0090022748    5.7282479  0.029896203 
number of iterations: 1640 
    9100      33.8306      295          144          151 1.4560751e-13 1.4018389e-14          0.1 0.0090023073    5.8367594  0.029896148 
number of iterations: 1667 
    9200    34.013035      300          146          154 1.4753713e-13 1.415566e-14          0.1  0.009002342    5.9466962   0.02989609 
number of iterations: 1752 
    9300    34.206615      303          148          155 1.4949233e-13 1.4295327e-14          0.1 0.0090023754    6.0580772  0.029896035 
number of iterations: 1626 
    9400      34.4185      305          149          156 1.5147343e-13 1.4437424e-14          0.1 0.0090024069    6.1709215  0.029895982 
number of iterations: 1545 
    9500    34.613323      309          152          157 1.5348078e-13 1.4581986e-14          0.1 0.0090024285    6.2852484  0.029895946 
number of iterations: 1573 
    9600    34.788757      314          156          158 1.5551474e-13 1.4729049e-14          0.1 0.0090024503    6.4010775  0.029895909 
number of iterations: 1629 
    9700    35.021098      316          157          159 1.5757565e-13 1.4878644e-14          0.1 0.0090024799    6.5184289   0.02989586 
number of iterations: 1648 
    9800    35.216383      322          161          161 1.5966388e-13 1.503081e-14          0.1 0.0090025155    6.6373226    0.0298958 
number of iterations: 1731 
    9900    35.421984      326          163          163 1.6177977e-13 1.5185584e-14          0.1 0.0090025576    6.7577788   0.02989573 
number of iterations: 1623 
   10000    35.609251      327          163          164 1.6392371e-13 1.5343004e-14          0.1 0.0090025914    6.8798182  0.029895674 
number of iterations: 1658 
   10100      36.0789      331          164          167 1.6609606e-13 1.5503105e-14          0.1 0.0090026299    7.0034616  0.029895609 
number of iterations: 1632 
   10200    36.256753      334          165          169 1.682972e-13 1.5665928e-14          0.1 0.0090026661    7.1287302  0.029895549 
number of iterations: 1660 
   10300    36.494589      337          166          171 1.705275e-13 1.5831511e-14          0.1 0.0090027055    7.2556455  0.029895483 
number of iterations: 1626 
   10400    36.694251      341          169          172 1.7278737e-13 1.5999893e-14          0.1 0.0090027315    7.3842292   0.02989544 
number of iterations: 1638 
   10500    36.874399      345          172          173 1.7507718e-13 1.6171119e-14          0.1 0.0090027675    7.5145033   0.02989538 
number of iterations: 1631 
   10600    37.079347      348          174          174 1.7739734e-13 1.6345229e-14          0.1 0.0090028012      7.64649  0.029895323 
number of iterations: 1733 
   10700    37.263797      349          175          174 1.7974824e-13 1.6522267e-14          0.1 0.0090028418    7.7802121  0.029895255 
number of iterations: 1684 
   10800    37.449786      354          178          176 1.821303e-13 1.6702274e-14          0.1  0.009002883    7.9156923  0.029895187 
number of iterations: 1662 
   10900    37.641688      360          182          178 1.8454393e-13 1.6885292e-14          0.1 0.0090029223     8.052954  0.029895121 
number of iterations: 1655 
   11000    37.836888      363          183          180 1.8698954e-13 1.7071368e-14          0.1 0.0090029565    8.1920203  0.029895064 
number of iterations: 1658 
   11100    38.040578      365          185          180 1.8946756e-13 1.7260548e-14          0.1 0.0090029927     8.332915  0.029895003 
number of iterations: 1672 
   11200    38.247298      369          187          182 1.9197842e-13 1.7452878e-14          0.1  0.009003037    8.4756625  0.029894929 
number of iterations: 1653 
   11300     38.43738      373          189          184 1.9452255e-13 1.7648404e-14          0.1  0.009003074     8.620287  0.029894868 
number of iterations: 1666 
   11400    38.627499      377          192          185 1.971004e-13 1.7847174e-14          0.1 0.0090031144    8.7668138    0.0298948 
number of iterations: 1664 
   11500    38.809624      383          195          188 1.9971242e-13 1.8049236e-14          0.1 0.0090031502    8.9152675   0.02989474 
number of iterations: 1730 
   11600    39.027365      388          198          190 2.0235904e-13 1.8254641e-14          0.1 0.0090031976    9.0656734  0.029894661 
number of iterations: 1680 
   11700     39.21544      395          201          194 2.0504074e-13 1.8463439e-14          0.1   0.00900324    9.2180576   0.02989459 
number of iterations: 1677 
   11800    39.415546      401          203          198 2.0775798e-13 1.8675685e-14          0.1 0.0090032829    9.3724458  0.029894519 
number of iterations: 1794 
   11900    39.622258      408          208          200 2.1051123e-13 1.8891425e-14          0.1 0.0090033412    9.5288648  0.029894421 
number of iterations: 1721 
   12000    39.818608      414          210          204 2.1330097e-13 1.9110715e-14          0.1 0.0090033912     9.687341  0.029894338 
number of iterations: 1687 
   12100    40.058582      416          210          206 2.1612767e-13 1.9333607e-14          0.1  0.009003436    9.8479016  0.029894263 
number of iterations: 1694 
   12200    40.260715      419          213          206 2.1899184e-13 1.9560158e-14          0.1 0.0090034838    10.010574  0.029894183 
number of iterations: 1658 
   12300    40.448331      428          219          209 2.2189396e-13 1.9790421e-14          0.1 0.0090035213    10.175386   0.02989412 
number of iterations: 1824 
   12400    40.667087      435          223          212 2.2483454e-13 2.0024456e-14          0.1 0.0090035668    10.342367  0.029894044 
number of iterations: 1684 
   12500    41.059155      441          227          214 2.2781409e-13 2.0262316e-14          0.1 0.0090036085    10.511543  0.029893975 
number of iterations: 1699 
   12600    41.254892      442          228          214 2.3083312e-13 2.0504063e-14          0.1 0.0090036542    10.682946  0.029893898 
number of iterations: 1658 
   12700     41.45374      448          230          218 2.3389216e-13 2.0749756e-14          0.1 0.0090036932    10.856602  0.029893833 
number of iterations: 1721 
   12800    41.661908      456          234          222 2.3699175e-13 2.0999454e-14          0.1 0.0090037461    11.032544  0.029893745 
number of iterations: 1684 
   12900    41.842447      460          237          223 2.4013241e-13 2.125322e-14          0.1 0.0090037898    11.210799  0.029893672 
number of iterations: 1719 
   13000    42.047364      464          240          224 2.4331468e-13 2.151112e-14          0.1 0.0090038351    11.391399  0.029893596 
number of iterations: 1697 
   13100    42.277696      471          245          226 2.4653914e-13 2.1773215e-14          0.1  0.009003876    11.574375  0.029893527 
number of iterations: 1709 
   13200    42.470932      473          246          227 2.4980632e-13 2.203957e-14          0.1 0.0090039184    11.759757  0.029893457 
number of iterations: 1709 
   13300     42.70296      479          250          229 2.531168e-13 2.2310252e-14          0.1 0.0090039693    11.947579  0.029893372 
number of iterations: 1694 
   13400    42.904358      483          253          230 2.5647115e-13 2.2585326e-14          0.1 0.0090040184    12.137871  0.029893289 
number of iterations: 1726 
   13500    43.096913      492          255          237 2.5986995e-13 2.2864862e-14          0.1 0.0090040716    12.330666  0.029893201 
number of iterations: 1753 
   13600     43.33362      502          259          243 2.6331379e-13 2.3148927e-14          0.1 0.0090041352    12.525997  0.029893094 
number of iterations: 1777 
   13700    43.532773      510          261          249 2.6680328e-13 2.3437593e-14          0.1 0.0090041897    12.723897  0.029893003 
number of iterations: 1761 
   13800    43.738527      521          267          254  2.70339e-13 2.3730933e-14          0.1 0.0090042479    12.924401  0.029892906 
number of iterations: 1751 
   13900    43.934329      527          269          258 2.7392158e-13 2.4029017e-14          0.1 0.0090043141    13.127542  0.029892796 
number of iterations: 1786 
   14000    44.128376      530          271          259 2.7755164e-13 2.4331922e-14          0.1 0.0090043723    13.333355  0.029892698 
number of iterations: 1765 
   14100    44.336614      540          276          264 2.8122981e-13 2.4639723e-14          0.1 0.0090044358    13.541875  0.029892592 
number of iterations: 1743 
   14200    44.537448      549          279          270 2.8495671e-13 2.4952495e-14          0.1 0.0090044923    13.753138  0.029892498 
number of iterations: 1728 
   14300     44.74527      560          285          275 2.8873301e-13 2.5270317e-14          0.1 0.0090045419     13.96718  0.029892415 
number of iterations: 1769 
   14400    44.927954      566          289          277 2.9255935e-13 2.5593266e-14          0.1 0.0090046054    14.184037  0.029892309 
number of iterations: 1747 
   14500    45.126707      571          292          279 2.964364e-13 2.5921425e-14          0.1 0.0090046671    14.403746  0.029892206 
number of iterations: 1758 
   14600    45.314119      580          294          286 3.0036483e-13 2.6254875e-14          0.1 0.0090047196    14.626345  0.029892118 
number of iterations: 1759 
   14700    45.531836      590          299          291 3.0434532e-13 2.6593698e-14          0.1 0.0090047838    14.851871  0.029892011 
number of iterations: 1747 
   14800    45.741837      602          306          296 3.0837856e-13 2.6937981e-14          0.1 0.0090048371    15.080364  0.029891922 
number of iterations: 1850 
   14900    46.250315      614          314          300 3.1246524e-13 2.7287811e-14          0.1 0.0090049266    15.311862  0.029891772 
number of iterations: 1773 
   15000    46.480118      621          319          302 3.1660609e-13 2.7643273e-14          0.1 0.0090049846    15.546405  0.029891675 
number of iterations: 1778 
   15100    46.674888      623          319          304 3.2080181e-13 2.8004455e-14          0.1 0.0090050441    15.784033  0.029891576 
number of iterations: 1792 
   15200    46.880971      628          321          307 3.2505313e-13 2.837145e-14          0.1  0.009005119    16.024785  0.029891451 
number of iterations: 1768 
   15300    47.067401      633          324          309 3.2936079e-13 2.8744347e-14          0.1 0.0090051844    16.268704  0.029891341 
number of iterations: 1791 
   15400     47.25937      641          328          313 3.3372554e-13 2.9123239e-14          0.1 0.0090052562    16.515831  0.029891221 
number of iterations: 1780 
   15500    47.455526      649          332          317 3.3814813e-13 2.9508223e-14          0.1 0.0090053259    16.766206  0.029891105 
number of iterations: 1860 
   15600    47.668151      655          338          317 3.4262932e-13 2.9899396e-14          0.1  0.009005407    17.019875  0.029890969 
number of iterations: 1812 
   15700    47.872952      658          340          318 3.4716991e-13 3.0296856e-14          0.1 0.0090054758    17.276879  0.029890854 
number of iterations: 1771 
   15800    48.082853      663          343          320 3.5177066e-13 3.0700702e-14          0.1 0.0090055378    17.537262  0.029890751 
number of iterations: 1812 
   15900     48.27246      672          347          325 3.5643239e-13 3.1111035e-14          0.1 0.0090056105     17.80107  0.029890629 
number of iterations: 1810 
   16000    48.542476      680          352          328 3.6115589e-13 3.1527958e-14          0.1 0.0090056792    18.068347  0.029890514 
number of iterations: 1812 
   16100     48.73861      692          358          334 3.6594199e-13 3.1951575e-14          0.1 0.0090057576    18.339138  0.029890383 
number of iterations: 1821 
   16200    48.926865      703          364          339 3.7079151e-13 3.2381996e-14          0.1 0.0090058364     18.61349  0.029890252 
number of iterations: 1774 
   16300    49.124466      708          367          341 3.757053e-13 3.2819326e-14          0.1 0.0090059052     18.89145  0.029890137 
number of iterations: 1808 
   16400    49.335843      723          375          348 3.8068421e-13 3.3263674e-14          0.1 0.0090059724    19.173065  0.029890024 
number of iterations: 1926 
   16500    49.545069      731          379          352 3.8572911e-13 3.3715153e-14          0.1 0.0090060636    19.458382  0.029889872 
number of iterations: 1853 
   16600    49.739464      743          385          358 3.9084085e-13 3.4173877e-14          0.1 0.0090061424    19.747451   0.02988974 
number of iterations: 1830 
   16700    49.933882      757          391          366 3.9602034e-13 3.4639961e-14          0.1 0.0090062326    20.040321   0.02988959 
number of iterations: 1809 
   16800    50.161697      767          392          375 4.0126847e-13 3.5113523e-14          0.1 0.0090063122    20.337042  0.029889457 
number of iterations: 1866 
   16900    50.384248      780          402          378 4.0658614e-13 3.5594681e-14          0.1 0.0090063984    20.637663  0.029889312 
number of iterations: 1778 
   17000    50.608966      786          406          380 4.1197429e-13 3.6083554e-14          0.1 0.0090064704    20.942236  0.029889192 
number of iterations: 1777 
   17100    50.838052      800          411          389 4.1743384e-13 3.6580264e-14          0.1 0.0090065308    21.250814  0.029889091 
number of iterations: 1826 
   17200    51.093319      810          414          396 4.2296574e-13 3.7084941e-14          0.1 0.0090066182    21.563449  0.029888945 
number of iterations: 1803 
   17300    51.285637      818          421          397 4.2857095e-13 3.759771e-14          0.1 0.0090066947    21.880193  0.029888817 
number of iterations: 1879 
   17400     51.49472      830          427          403 4.3425044e-13  3.81187e-14          0.1 0.0090068034    22.201102  0.029888635 
number of iterations: 1857 
   17500    51.690437      841          432          409 4.400052e-13 3.8648045e-14          0.1 0.0090068975    22.526228  0.029888478 
number of iterations: 1836 
   17600    51.894138      850          437          413 4.4583622e-13 3.9185875e-14          0.1  0.009006987    22.855628  0.029888328 
number of iterations: 1896 
   17700    52.115084      867          443          424 4.5174451e-13 3.9732329e-14          0.1 0.0090070909    23.189358  0.029888155 
number of iterations: 1848 
   17800     52.31791      879          449          430 4.577311e-13 4.0287541e-14          0.1 0.0090071766    23.527474  0.029888012 
number of iterations: 1863 
   17900    52.544422      888          455          433 4.6379703e-13 4.0851653e-14          0.1 0.0090072779    23.870034  0.029887842 
number of iterations: 1866 
   18000    52.736655      905          466          439 4.6994334e-13 4.1424808e-14          0.1 0.0090073807    24.217097   0.02988767 
number of iterations: 1874 
   18100    52.954839      914          473          441 4.761711e-13 4.200715e-14          0.1 0.0090074878    24.568721  0.029887492 
number of iterations: 1909 
   18200    53.156326      924          477          447 4.824814e-13 4.2598828e-14          0.1 0.0090076101    24.924967  0.029887287 
number of iterations: 1886 
   18300    53.437508      933          483          450 4.8887531e-13 4.3199989e-14          0.1 0.0090077114    25.285895  0.029887118 
number of iterations: 1818 
   18400    53.664284      948          490          458 4.9535396e-13 4.3810788e-14          0.1 0.0090077899    25.651567  0.029886986 
number of iterations: 1850 
   18500    53.862356      967          496          471 5.0191847e-13 4.4431378e-14          0.1 0.0090078835    26.022044   0.02988683 
number of iterations: 1893 
   18600    54.063126      985          506          479 5.0856997e-13 4.5061917e-14          0.1 0.0090079913     26.39739   0.02988665 
number of iterations: 1844 
   18700     54.27559      997          510          487 5.1530962e-13 4.5702565e-14          0.1 0.0090080883    26.777669  0.029886488 
number of iterations: 1881 
   18800    54.484947     1013          518          495 5.2213858e-13 4.6353484e-14          0.1 0.0090082066    27.162945   0.02988629 
number of iterations: 1920 
   18900    54.730641     1029          527          502 5.2905804e-13 4.7014837e-14          0.1 0.0090083301    27.553283  0.029886084 
number of iterations: 1890 
   19000    54.928864     1044          533          511 5.3606919e-13 4.768679e-14          0.1 0.0090084309     27.94875  0.029885915 
number of iterations: 1967 
   19100    55.158647     1055          537          518 5.4317326e-13 4.8369518e-14          0.1 0.0090085653    28.349413   0.02988569 
number of iterations: 1940 
   19200    55.362334     1075          549          526 5.5037147e-13 4.9063191e-14          0.1  0.009008689     28.75534  0.029885484 
number of iterations: 1882 
   19300    55.573689     1091          561          530 5.5766508e-13 4.9767988e-14          0.1 0.0090088042      29.1666  0.029885291 
number of iterations: 1864 
   19400    55.776744     1110          570          540 5.6505533e-13 5.0484084e-14          0.1 0.0090089114    29.583264  0.029885112 
number of iterations: 1888 
   19500    56.153195     1123          576          547 5.7254353e-13 5.121166e-14          0.1 0.0090090253    30.005403  0.029884921 
number of iterations: 1961 
   19600    56.384309     1135          581          554 5.8013096e-13 5.1950903e-14          0.1 0.0090091566    30.433087  0.029884702 
number of iterations: 1938 
   19700    56.592704     1150          586          564 5.8781894e-13 5.2702002e-14          0.1 0.0090092946     30.86639  0.029884471 
number of iterations: 1898 
   19800    56.811947     1164          592          572 5.956088e-13 5.3465146e-14          0.1 0.0090094166    31.305385  0.029884267 
number of iterations: 1886 
   19900    57.007472     1180          598          582 6.0350189e-13 5.424053e-14          0.1 0.0090095371    31.750148  0.029884066 
number of iterations: 1920 
   20000    57.207966     1193          603          590 6.1149958e-13 5.502835e-14          0.1 0.0090096482    32.200752   0.02988388 
number of iterations: 1911 
   20100    57.414864     1202          608          594 6.1960326e-13 5.5828807e-14          0.1  0.009009786    32.657276   0.02988365 
number of iterations: 1933 
   20200    57.616398     1218          617          601 6.2781433e-13 5.6642103e-14          0.1 0.0090099102    33.119797  0.029883442 
number of iterations: 1891 
   20300    57.805257     1234          623          611 6.3613421e-13 5.7468444e-14          0.1 0.0090100374    33.588393  0.029883229 
number of iterations: 1912 
   20400    58.025059     1245          628          617 6.4456435e-13 5.8308044e-14          0.1 0.0090101555    34.063144  0.029883032 
number of iterations: 1931 
   20500    58.238004     1267          639          628 6.531062e-13 5.9161113e-14          0.1 0.0090102847     34.54413  0.029882816 
number of iterations: 1917 
   20600    58.458196     1282          646          636 6.6176125e-13 6.0027871e-14          0.1 0.0090104084    35.031434  0.029882609 
number of iterations: 1951 
   20700    58.704872     1299          655          644  6.70531e-13 6.0908538e-14          0.1 0.0090105481    35.525138  0.029882375 
number of iterations: 1940 
   20800    58.907664     1317          661          656 6.7941697e-13 6.1803336e-14          0.1 0.0090106968    36.025325  0.029882127 
number of iterations: 1959 
   20900    59.123869     1335          671          664 6.8842069e-13 6.2712496e-14          0.1 0.0090108436    36.532082  0.029881881 
number of iterations: 1902 
   21000    59.329863     1350          683          667 6.9754373e-13 6.3636247e-14          0.1 0.0090109677    37.045493  0.029881674 
number of iterations: 1943 
   21100    59.528837     1372          698          674 7.0678767e-13 6.4574824e-14          0.1 0.0090111049    37.565646  0.029881444 
number of iterations: 1974 
   21200    59.764617     1391          705          686 7.1615411e-13 6.5528471e-14          0.1 0.0090112521     38.09263  0.029881198 
number of iterations: 1954 
   21300    59.977656     1423          721          702 7.2564468e-13 6.6497426e-14          0.1 0.0090113972    38.626532  0.029880955 
number of iterations: 1949 
   21400    60.208956     1442          727          715 7.3526101e-13 6.7481938e-14          0.1 0.0090115579    39.167445  0.029880687 
number of iterations: 1973 
   21500    60.426298     1466          738          728 7.4500479e-13 6.8482261e-14          0.1 0.0090117288    39.715459  0.029880401 
number of iterations: 1936 
   21600    60.723321     1484          748          736 7.5487768e-13 6.9498646e-14          0.1 0.0090118767    40.270668  0.029880154 
number of iterations: 1960 
   21700    61.105163     1499          756          743 7.6488141e-13 7.0531356e-14          0.1 0.0090120363    40.833166  0.029879887 
number of iterations: 1990 
   21800    61.337243     1518          765          753 7.7501772e-13 7.158065e-14          0.1 0.0090122165    41.403049  0.029879586 
number of iterations: 1990 
   21900    61.583097     1542          777          765 7.8528835e-13 7.2646796e-14          0.1 0.0090123742    41.980414  0.029879322 
number of iterations: 1924 
   22000    61.790501     1568          786          782 7.9569508e-13 7.3730068e-14          0.1 0.0090125225    42.565357  0.029879074 
number of iterations: 1977 
   22100    62.013808     1591          796          795 8.0623973e-13 7.4830742e-14          0.1 0.0090126943     43.15798  0.029878787 
number of iterations: 1963 
   22200    62.229967     1610          807          803 8.1692411e-13 7.5949099e-14          0.1 0.0090128646     43.75838  0.029878502 
number of iterations: 1953 
   22300    62.452859     1625          814          811 8.2775009e-13 7.7085426e-14          0.1 0.0090130205    44.366662  0.029878241 
number of iterations: 1980 
   22400    62.683786     1648          821          827 8.3871953e-13 7.8240011e-14          0.1 0.0090131944    44.982929   0.02987795 
number of iterations: 1957 
   22500    62.924657     1676          837          839 8.4983434e-13 7.9413153e-14          0.1 0.0090133587    45.607283  0.029877675 
number of iterations: 1978 
   22600    63.154325     1695          845          850 8.6109644e-13 8.0605151e-14          0.1 0.0090135208    46.239832  0.029877404 
number of iterations: 1968 
   22700    63.397738     1721          858          863 8.7250779e-13 8.1816306e-14          0.1 0.0090136909    46.880683  0.029877119 
number of iterations: 2026 
   22800    63.638854     1747          870          877 8.8407036e-13 8.3046931e-14          0.1 0.0090138778    47.529945  0.029876807 
number of iterations: 2021 
   22900    63.850901     1777          884          893 8.9578616e-13 8.4297339e-14          0.1 0.0090140575    48.187727  0.029876506 
number of iterations: 2014 
   23000    64.076566     1803          897          906 9.0765722e-13 8.5567852e-14          0.1 0.0090142496    48.854141  0.029876185 
number of iterations: 2042 
   23100    64.288809     1835          912          923 9.1968559e-13 8.6858797e-14          0.1 0.0090144429      49.5293  0.029875862 
number of iterations: 2013 
   23200    64.503508     1855          924          931 9.3187336e-13  8.81705e-14          0.1 0.0090146375    50.213319  0.029875536 
number of iterations: 2063 
   23300    64.750476     1883          935          948 9.4422265e-13 8.9503303e-14          0.1  0.009014852    50.906313  0.029875177 
number of iterations: 1986 
   23400    65.000171     1910          949          961 9.5673558e-13 9.0857543e-14          0.1  0.009015043      51.6084  0.029874858 
number of iterations: 2009 
   23500    65.232248     1935          958          977 9.6941434e-13 9.2233567e-14          0.1 0.0090152505    52.319699  0.029874511 
number of iterations: 1987 
   23600    65.459568     1973          969         1004 9.8226112e-13 9.3631727e-14          0.1 0.0090154362    53.040331    0.0298742 
number of iterations: 2017 
   23700     65.71115     1997          982         1015 9.9527815e-13 9.5052382e-14          0.1 0.0090156324    53.770417  0.029873872 
number of iterations: 2044 
   23800    66.186467     2039         1008         1031 1.0084677e-12 9.6495894e-14          0.1 0.0090158423    54.510081  0.029873521 
number of iterations: 2053 
   23900    66.433194     2065         1023         1042 1.021832e-12 9.7962634e-14          0.1 0.0090160802    55.259448  0.029873123 
number of iterations: 1986 
   24000    66.644506     2088         1034         1054 1.0353734e-12 9.9452976e-14          0.1  0.009016272    56.018645  0.029872803 
number of iterations: 2025 
   24100    66.870573     2116         1047         1069 1.0490943e-12 1.009673e-13          0.1 0.0090164945    56.787802   0.02987243 
number of iterations: 2025 
   24200     67.10353     2148         1056         1092 1.062997e-12  1.02506e-13          0.1  0.009016707    57.567048  0.029872075 
number of iterations: 2062 
   24300    67.341801     2174         1065         1109 1.0770839e-12 1.0406947e-13          0.1 0.0090169417    58.356514  0.029871683 
number of iterations: 2038 
   24400    67.562187     2203         1081         1122 1.0913575e-12 1.0565811e-13          0.1 0.0090171666    59.156336  0.029871306 
number of iterations: 2028 
   24500    67.779079     2242         1096         1146 1.1058203e-12 1.0727233e-13          0.1 0.0090173876    59.966648  0.029870937 
number of iterations: 2051 
   24600    67.998662     2264         1108         1156 1.1204747e-12 1.0891254e-13          0.1  0.009017615    60.787587  0.029870556 
number of iterations: 2058 
   24700    68.209755     2301         1120         1181 1.1353233e-12 1.1057916e-13          0.1 0.0090178589    61.619293  0.029870148 
number of iterations: 2033 
   24800    68.455308     2328         1131         1197 1.1503688e-12 1.1227262e-13          0.1 0.0090180959    62.461907  0.029869752 
number of iterations: 2048 
   24900    68.706491     2356         1144         1212 1.1656135e-12 1.1399336e-13          0.1 0.0090183499    63.315571  0.029869327 
number of iterations: 2084 
   25000     68.94772     2402         1166         1236 1.1810603e-12 1.1574182e-13          0.1 0.0090186021    64.180429  0.029868905 
number of iterations: 2068 
   25100    69.201383     2441         1180         1261 1.1967119e-12 1.1751844e-13          0.1 0.0090188682    65.056627   0.02986846 
number of iterations: 2083 
   25200    69.433525     2467         1195         1272 1.2125708e-12 1.1932369e-13          0.1 0.0090191398    65.944315  0.029868006 
number of iterations: 2056 
   25300    69.671813     2497         1215         1282 1.2286399e-12 1.2115802e-13          0.1 0.0090193862    66.843642  0.029867594 
number of iterations: 2041 
   25400    69.906644     2532         1234         1298 1.2449219e-12 1.2302192e-13          0.1  0.009019627    67.754762   0.02986719 
number of iterations: 2062 
   25500    70.180145     2570         1253         1317 1.2614197e-12 1.2491585e-13          0.1 0.0090198574    68.677828  0.029866805 
number of iterations: 2088 
   25600    70.452559     2605         1271         1334 1.2781361e-12 1.268403e-13          0.1 0.0090201396    69.612996  0.029866333 
number of iterations: 2074 
   25700    70.698046     2640         1281         1359 1.2950741e-12 1.2879578e-13          0.1 0.0090204082    70.560424  0.029865883 
number of iterations: 2050 
   25800    71.082336     2681         1296         1385 1.3122365e-12 1.3078277e-13          0.1 0.0090206665    71.520272  0.029865451 
number of iterations: 2101 
   25900    71.317887     2716         1308         1408 1.3296263e-12 1.3280179e-13          0.1  0.009020937    72.492705  0.029864998 
number of iterations: 2058 
   26000    71.563707     2747         1324         1423 1.3472466e-12 1.3485336e-13          0.1 0.0090211898    73.477884  0.029864575 
number of iterations: 2079 
   26100    71.796242     2793         1343         1450 1.3638243e-12 1.3693801e-13          0.1 0.0090214334    74.475001  0.029864167 
number of iterations: 2072 
   26200     72.03457     2826         1358         1468 1.3818978e-12 1.3905626e-13          0.1 0.0090217223    75.485186  0.029863684 
number of iterations: 2089 
   26300    72.252615     2865         1374         1491 1.4002108e-12 1.4120867e-13          0.1 0.0090219911     76.50861  0.029863234 
number of iterations: 2058 
   26400    72.493171     2906         1397         1509 1.4187665e-12 1.433958e-13          0.1 0.0090222621    77.545447   0.02986278 
number of iterations: 2077 
   26500    72.738007     2944         1413         1531 1.437568e-12 1.4561819e-13          0.1 0.0090225524    78.595873  0.029862295 
number of iterations: 2102 
   26600    72.973995     2993         1443         1550 1.4566188e-12 1.4787644e-13          0.1 0.0090228307    79.660064  0.029861829 
number of iterations: 2100 
   26700     73.20591     3029         1460         1569 1.475922e-12 1.5017111e-13          0.1 0.0090231513    80.738202  0.029861293 
number of iterations: 2120 
   26800    73.502111     3065         1476         1589 1.495481e-12 1.525028e-13          0.1 0.0090234635    81.830468   0.02986077 
number of iterations: 2101 
   26900    73.752039     3115         1495         1620 1.5152992e-12 1.548721e-13          0.1 0.0090237584    82.937046  0.029860277 
number of iterations: 2110 
   27000    74.001682     3168         1517         1651  1.53538e-12 1.5727964e-13          0.1 0.0090240865    84.058123  0.029859728 
number of iterations: 2124 
   27100    74.268973     3220         1535         1685 1.5557269e-12 1.5972602e-13          0.1  0.009024417    85.193887  0.029859175 
number of iterations: 2132 
   27200    74.502468     3276         1557         1719 1.5763435e-12 1.6221189e-13          0.1 0.0090247713    86.344532  0.029858582 
number of iterations: 2141 
   27300    74.770587     3325         1576         1749 1.5972333e-12 1.6473787e-13          0.1   0.00902512    87.510252  0.029857999 
number of iterations: 2148 
   27400     75.02201     3379         1601         1778 1.6183999e-12 1.6730462e-13          0.1 0.0090254511    88.691245  0.029857445 
number of iterations: 2117 
   27500    75.310717     3424         1624         1800 1.639847e-12 1.6991281e-13          0.1 0.0090257949    89.887709  0.029856869 
number of iterations: 2111 
   27600    75.555622     3479         1647         1832 1.6615783e-12 1.725631e-13          0.1 0.0090261246    91.099847  0.029856318 
number of iterations: 2137 
   27700    75.804946     3524         1662         1862 1.6835976e-12 1.7525618e-13          0.1 0.0090264519    92.327861  0.029855769 
number of iterations: 2132 
   27800    76.229253     3563         1677         1886 1.7059087e-12 1.7799273e-13          0.1 0.0090267995    93.571961  0.029855188 
number of iterations: 2121 
   27900    76.477858     3615         1701         1914 1.7285154e-12 1.8077347e-13          0.1 0.0090271309    94.832356  0.029854633 
number of iterations: 2158 
   28000    76.725754     3654         1719         1935 1.7514218e-12 1.8359912e-13          0.1 0.0090275057    96.109259  0.029854006 
number of iterations: 2133 
   28100    76.967186     3714         1742         1972 1.7746317e-12 1.864704e-13          0.1 0.0090278516    97.402885  0.029853427 
number of iterations: 2122 
   28200    77.215964     3772         1768         2004 1.7981491e-12 1.8938805e-13          0.1 0.0090282041    98.713454  0.029852837 
number of iterations: 2139 
   28300    77.533777     3850         1801         2049 1.8219783e-12 1.9235283e-13          0.1   0.00902858    100.04118  0.029852207 
number of iterations: 2147 
   28400    77.781356     3902         1823         2079 1.8461232e-12 1.9536549e-13          0.1 0.0090289573     101.3863  0.029851576 
number of iterations: 2146 
   28500     78.00725     3953         1837         2116 1.870588e-12 1.9842682e-13          0.1 0.0090293405    102.74903  0.029850934 
number of iterations: 2162 
   28600    78.271907     4007         1859         2148 1.8953771e-12 2.015376e-13          0.1 0.0090297327    104.12961  0.029850278 
number of iterations: 2119 
   28700    78.524086     4072         1886         2186 1.9204947e-12 2.0469864e-13          0.1 0.0090300743    105.52826  0.029849706 
number of iterations: 2163 
   28800    78.825594     4129         1911         2218 1.9447269e-12 2.0791075e-13          0.1 0.0090304657    106.94429   0.02984905 
number of iterations: 2170 
   28900    79.066747     4186         1937         2249 1.9704984e-12 2.1117476e-13          0.1 0.0090308908    108.37886  0.029848339 
number of iterations: 2169 
   29000    79.362561     4235         1958         2277 1.9966115e-12 2.1449152e-13          0.1 0.0090312768    109.83221  0.029847692 
number of iterations: 2185 
   29100    79.626888     4310         1993         2317 2.0230706e-12 2.1786188e-13          0.1 0.0090317408    111.30459  0.029846916 
number of iterations: 2132 
   29200    79.870686     4377         2027         2350 2.0498803e-12 2.2128672e-13          0.1 0.0090321253    112.79625  0.029846272 
number of iterations: 2185 
   29300    80.229126     4446         2054         2392 2.0770454e-12 2.2476692e-13          0.1 0.0090325483    114.30743  0.029845563 
number of iterations: 2182 
   29400    80.483326     4509         2085         2424 2.1045704e-12 2.2830337e-13          0.1 0.0090329613     115.8384  0.029844872 
number of iterations: 2195 
   29500    80.739283     4581         2121         2460 2.1324601e-12 2.3189699e-13          0.1  0.009033446     117.3894  0.029844061 
number of iterations: 2196 
   29600    81.180545     4629         2141         2488 2.1607195e-12 2.3554871e-13          0.1 0.0090338888     118.9607   0.02984332 
number of iterations: 2210 
   29700    81.444769     4685         2161         2524 2.1882015e-12 2.3925947e-13          0.1 0.0090343308    120.55169  0.029842579 
number of iterations: 2160 
   29800    81.722471     4748         2187         2561 2.2171996e-12 2.4303022e-13          0.1 0.0090347494    122.16349  0.029841878 
number of iterations: 2203 
   29900    81.981125     4827         2222         2605 2.2465819e-12 2.4686195e-13          0.1 0.0090352164    123.79639  0.029841097 
number of iterations: 2187 
   30000     82.27256     4910         2258         2652 2.2746447e-12 2.5075563e-13          0.1   0.00903565    125.44936   0.02984037 
number of iterations: 2237 
   30100    82.545112     4981         2288         2693 2.3047882e-12 2.5471228e-13          0.1 0.0090361383    127.12396  0.029839553 
number of iterations: 2199 
   30200    82.795401     5046         2316         2730 2.3353313e-12 2.5861636e-13          0.1 0.0090365967    128.82051  0.029838785 
number of iterations: 2230 
   30300    83.053832     5127         2350         2777 2.366279e-12 2.6270019e-13          0.1 0.0090370978    130.53926  0.029837946 
number of iterations: 2205 
   30400    83.317268     5202         2380         2822 2.3976369e-12 2.6685007e-13          0.1 0.0090375772    132.28051  0.029837143 
number of iterations: 2217 
   30500    83.635452     5261         2402         2859 2.4286637e-12 2.7106709e-13          0.1 0.0090380892    134.04396  0.029836286 
number of iterations: 2232 
   30600    83.908095     5312         2426         2886 2.4608483e-12 2.7535233e-13          0.1 0.0090386154    135.83048  0.029835406 
number of iterations: 2249 
   30700    84.184934     5385         2448         2937 2.4934593e-12 2.797069e-13          0.1 0.0090391884    137.64037  0.029834446 
number of iterations: 2224 
   30800    84.445178     5467         2485         2982 2.5265026e-12 2.8413194e-13          0.1 0.0090397473    139.47393  0.029833511 
number of iterations: 2196 
   30900    84.733766     5552         2520         3032 2.5599837e-12 2.8862857e-13          0.1 0.0090402286    141.33148  0.029832704 
number of iterations: 2235 
   31000     84.99769     5639         2549         3090 2.5939085e-12 2.9319796e-13          0.1 0.0090407515    143.21333  0.029831829 
number of iterations: 2223 
   31100         85.3     5729         2582         3147 2.6282829e-12 2.9784129e-13          0.1 0.0090412948    145.11979  0.029830919 
number of iterations: 2227 
   31200    85.575575     5820         2616         3204 2.6631128e-12 3.0245283e-13          0.1 0.0090418386    147.05122  0.029830009 
number of iterations: 2232 
   31300    85.865641     5908         2652         3256 2.6984042e-12 3.0724597e-13          0.1  0.009042373    149.00792  0.029829114 
number of iterations: 2245 
   31400    86.230619     5979         2677         3302 2.7341633e-12 3.1198021e-13          0.1 0.0090429611    150.99026   0.02982813 
number of iterations: 2230 
   31500    86.502787     6058         2709         3349 2.7703963e-12 3.1692762e-13          0.1 0.0090435279    152.99852   0.02982718 
number of iterations: 2250 
   31600    86.774955     6140         2741         3399 2.8071095e-12 3.219551e-13          0.1 0.0090441055    155.03304  0.029826213 
number of iterations: 2271 
   31700    87.047548     6227         2774         3453 2.8430409e-12 3.2706397e-13          0.1 0.0090446973    157.09319  0.029825222 
number of iterations: 2253 
   31800    87.386322     6319         2808         3511 2.8807167e-12 3.3225556e-13          0.1 0.0090453194    159.18028   0.02982418 
number of iterations: 2251 
   31900    87.680034     6428         2853         3575 2.9188918e-12 3.3753119e-13          0.1  0.009045945    161.29465  0.029823133 
number of iterations: 2239 
   32000    87.958628     6539         2911         3628 2.9575727e-12 3.4289225e-13          0.1 0.0090465427    163.43667  0.029822132 
number of iterations: 2269 
   32100    88.247854     6633         2946         3687 2.9967663e-12 3.483401e-13          0.1 0.0090471267    165.60669  0.029821153 
number of iterations: 2270 
   32200    88.555967     6743         2995         3748 3.0364792e-12 3.5387617e-13          0.1 0.0090478077    167.80508  0.029820013 
number of iterations: 2266 
   32300    88.840368     6847         3040         3807 3.0767184e-12 3.5950189e-13          0.1  0.009048406    170.03221  0.029819011 
number of iterations: 2243 
   32400    89.117315     6942         3087         3855 3.1174908e-12 3.6521872e-13          0.1  0.009049034    172.28845  0.029817959 
number of iterations: 2250 
   32500    89.382838     7053         3127         3926 3.1588035e-12 3.7102813e-13          0.1 0.0090496376    174.57419  0.029816948 
number of iterations: 2257 
   32600    89.649106     7157         3166         3991 3.2006637e-12 3.7680845e-13          0.1  0.009050284    176.88985  0.029815865 
number of iterations: 2276 
   32700    89.944185     7272         3211         4061 3.2430786e-12 3.8280561e-13          0.1 0.0090509722    179.23577  0.029814713 
number of iterations: 2291 
   32800    90.250298     7372         3254         4118 3.2833051e-12 3.8889992e-13          0.1 0.0090516032    181.61025  0.029813655 
number of iterations: 2277 
   32900    90.536106     7485         3286         4199 3.3268152e-12 3.9509296e-13          0.1 0.0090523005    184.01576  0.029812488 
number of iterations: 2296 
   33000    90.839576     7597         3331         4266 3.3709018e-12 4.0138633e-13          0.1 0.0090529762     186.4527  0.029811356 
number of iterations: 2309 
   33100    91.304526     7689         3374         4315 3.4142598e-12 4.0778166e-13          0.1  0.009053742    188.92048  0.029810073 
number of iterations: 2279 
   33200    91.617566     7787         3410         4377 3.4557011e-12 4.1428059e-13          0.1  0.009054347     191.4176  0.029809059 
number of iterations: 2307 
   33300    91.907081     7913         3457         4456 3.5004837e-12 4.2088481e-13          0.1 0.0090550278    193.94658  0.029807918 
number of iterations: 2305 
   33400    92.187709     8038         3501         4537 3.5455333e-12 4.2759604e-13          0.1 0.0090557902    196.50758  0.029806641 
number of iterations: 2332 
   33500    92.484622     8156         3534         4622 3.5925183e-12 4.3441603e-13          0.1 0.0090565781    199.10204  0.029805322 
number of iterations: 2306 
   33600    92.782086     8270         3573         4697 3.6401259e-12 4.4134653e-13          0.1  0.009057375    201.73039  0.029803987 
number of iterations: 2291 
   33700     93.07558     8405         3630         4775 3.6883644e-12 4.4838935e-13          0.1 0.0090581033    204.39308  0.029802767 
number of iterations: 2309 
   33800    93.419319     8518         3675         4843 3.7372421e-12 4.5554633e-13          0.1 0.0090589047    207.09056  0.029801424 
number of iterations: 2295 
   33900    93.723875     8646         3726         4920 3.7846167e-12 4.6281928e-13          0.1 0.0090596426    209.82162  0.029800188 
number of iterations: 2305 
   34000    94.043544     8765         3778         4987 3.8347699e-12 4.7021013e-13          0.1 0.0090604545    212.58836  0.029798828 
number of iterations: 2328 
   34100    94.365256     8900         3822         5078 3.8844976e-12 4.777208e-13          0.1 0.0090613062    215.39039  0.029797401 
number of iterations: 2330 
   34200    94.659239     9012         3861         5151 3.9348448e-12 4.8523244e-13          0.1 0.0090620942    218.22821  0.029796081 
number of iterations: 2299 
   34300    94.961152     9148         3918         5230 3.9869887e-12 4.9287479e-13          0.1 0.0090628682    221.10313  0.029794784 
number of iterations: 2307 
   34400    95.263749     9259         3969         5290 4.0387773e-12 5.0075293e-13          0.1 0.0090637247    224.01479  0.029793349 
number of iterations: 2305 
   34500    95.569835     9382         4017         5365 4.091378e-12 5.0866868e-13          0.1 0.0090645547    226.96379  0.029791958 
number of iterations: 2339 
   34600    95.873879     9515         4067         5448 4.1455963e-12 5.1680291e-13          0.1 0.0090654179    229.95128  0.029790512 
number of iterations: 2317 
   34700     96.32093     9672         4125         5547 4.1991771e-12 5.2506903e-13          0.1 0.0090662161    232.97675  0.029789174 
number of iterations: 2354 
   34800      96.6096     9820         4197         5623 4.2548239e-12 5.3336596e-13          0.1 0.0090671482    236.04176  0.029787612 
number of iterations: 2354 
   34900    96.910711     9952         4259         5693 4.310295e-12 5.4168929e-13          0.1  0.009068024    239.14619  0.029786145 
number of iterations: 2353 
   35000    97.225317    10090         4311         5779 4.3674143e-12 5.5026353e-13          0.1 0.0090689267    242.29118  0.029784633 
Loop time of 97.2254 on 32 procs for 35000 steps with 10090 atoms

Performance: 311029965.987 tau/day, 359.988 timesteps/s
92.0% CPU use with 32 MPI tasks x no OpenMP threads

MPI task timing breakdown:
Section |  min time  |  avg time  |  max time  |%varavg| %total
---------------------------------------------------------------
Pair    | 0.037399   | 0.13614    | 0.38123    |  20.8 |  0.14
Neigh   | 0.012836   | 0.051275   | 0.15069    |  13.5 |  0.05
Comm    | 0.048074   | 0.25681    | 0.35661    |  13.3 |  0.26
Output  | 25.894     | 25.894     | 25.902     |   0.0 | 26.63
Modify  | 70.216     | 70.273     | 70.391     |   0.5 | 72.28
Other   |            | 0.6137     |            |       |  0.63

Nlocal:    315.312 ave 765 max 103 min
Histogram: 6 5 7 5 3 2 2 0 1 1
Nghost:    198.594 ave 435 max 5 min
Histogram: 1 3 4 7 5 1 7 2 1 1
Neighs:    1501.53 ave 4067 max 280 min
Histogram: 4 5 10 4 3 2 2 0 1 1

Total # of neighbors = 48049
Ave neighs/atom = 4.76204
Neighbor list builds = 691
Dangerous builds = 0
Total wall time: 0:01:37
