LAMMPS (20 Nov 2019)
Reading data file ...
  orthogonal box = (0 0 0) to (0.0001 0.0001 5e-05)
  2 by 2 by 2 MPI processor grid
  reading atoms ...
  50 atoms
  4 nutrients
Lattice spacing in x,y,z = 100 100 100
50 atoms in group CYANO
0 atoms in group ECW
Model is defined as a closed system. 
Neighbor list info ...
  update every 1 steps, delay 0 steps, check yes
  max neighbors/atom: 5000, page size: 100000
  master list distance cutoff = 2.42e-06
  ghost atom cutoff = 2.42e-06
  binsize = 1.21e-06, bins = 83 83 42
  1 neighbor lists, perpetual/occasional/extra = 1 0 0
  (1) pair gran/hooke/history, perpetual
      attributes: half, newton off, size, history
      pair build: half/size/bin/newtoff
      stencil: half/bin/3d/newtoff
      bin: standard
Setting up Verlet run ...
  Unit style    : lj
  Current step  : 0
  Time step     : 10
Per MPI rank memory allocation (min/avg/max) = 6.973 | 9.615 | 12.35 Mbytes
Step CPU Atoms c_myNtypes[1] c_myNtypes[2] c_myMass[1] c_myMass[2] c_myCon[1] c_myCon[2] c_myCon[3] c_myCon[4] 
       0            0       50           50            0 4.5493938e-14            0          0.1        0.009     3.42e-20       0.0299 
number of iterations: 39362 
     100    0.8514996       50           50            0 4.6417687e-14            0          0.1 0.0090009431     3.42e-20   0.02989843 
number of iterations: 19194 
     200      1.32537       50           50            0 4.7360192e-14            0          0.1 0.0090009623     3.42e-20  0.029898398 
number of iterations: 19281 
     300    1.7983968       50           50            0 4.8321836e-14            0          0.1 0.0090009818     3.42e-20  0.029898366 
number of iterations: 19369 
     400    2.2790744       50           50            0 4.9303005e-14            0          0.1 0.0090010018     3.42e-20  0.029898333 
number of iterations: 19476 
     500    2.7611723       51           51            0 5.0304097e-14            0          0.1 0.0090010221     3.42e-20  0.029898299 
number of iterations: 19545 
     600    3.2586957       53           53            0 5.1325515e-14            0          0.1 0.0090010429     3.42e-20  0.029898264 
number of iterations: 19633 
     700    3.7622412       54           54            0 5.2367674e-14            0          0.1  0.009001064     3.42e-20  0.029898229 
number of iterations: 19721 
     800    4.2713974       54           54            0 5.3430993e-14            0          0.1 0.0090010856     3.42e-20  0.029898193 
number of iterations: 19808 
     900    4.8002662       54           54            0 5.4515903e-14            0          0.1 0.0090011077     3.42e-20  0.029898156 
number of iterations: 19896 
    1000    5.3886905       55           55            0 5.5622842e-14            0          0.1 0.0090011302     3.42e-20  0.029898119 
number of iterations: 19984 
    1100     5.917418       57           57            0 5.6752258e-14            0          0.1 0.0090011531     3.42e-20   0.02989808 
number of iterations: 20072 
    1200    6.4169352       58           58            0 5.7904605e-14            0          0.1 0.0090011766     3.42e-20  0.029898042 
number of iterations: 20160 
    1300    6.9245692       60           60            0 5.9080351e-14            0          0.1 0.0090012005     3.42e-20  0.029898002 
number of iterations: 20262 
    1400    7.4185606       63           63            0 6.0279971e-14            0          0.1 0.0090012248     3.42e-20  0.029897961 
number of iterations: 20337 
    1500    7.9376645       64           64            0 6.1503949e-14            0          0.1 0.0090012497     3.42e-20   0.02989792 
number of iterations: 20425 
    1600    8.4366092       65           65            0 6.2752779e-14            0          0.1 0.0090012751     3.42e-20  0.029897877 
number of iterations: 20513 
    1700    8.9687785       65           65            0 6.4026967e-14            0          0.1  0.009001301     3.42e-20  0.029897834 
number of iterations: 20601 
    1800    9.5159238       66           66            0 6.5327027e-14            0          0.1 0.0090013274     3.42e-20   0.02989779 
number of iterations: 20689 
    1900     10.13898       66           66            0 6.6653484e-14            0          0.1 0.0090013544     3.42e-20  0.029897745 
number of iterations: 20778 
    2000    10.658039       67           67            0 6.8006875e-14            0          0.1 0.0090013819     3.42e-20    0.0298977 
number of iterations: 20869 
    2100    11.177162       69           69            0 6.9387746e-14            0          0.1 0.0090014099     3.42e-20  0.029897653 
number of iterations: 21330 
    2200    11.710968       71           71            0 7.0796656e-14            0          0.1 0.0090014406     3.42e-20  0.029897602 
number of iterations: 21050 
    2300    12.235524       73           73            0 7.2234174e-14            0          0.1 0.0090014698     3.42e-20  0.029897553 
number of iterations: 21139 
    2400     12.77326       74           74            0 7.370088e-14            0          0.1 0.0090014997     3.42e-20  0.029897503 
number of iterations: 21227 
    2500      13.3072       78           78            0 7.5197367e-14            0          0.1 0.0090015301     3.42e-20  0.029897453 
number of iterations: 21966 
    2600    13.871721       79           79            0 7.6724241e-14            0          0.1 0.0090015656     3.42e-20  0.029897394 
number of iterations: 21417 
    2700     14.40871       79           79            0 7.8282117e-14            0          0.1 0.0090015974     3.42e-20  0.029897341 
number of iterations: 21506 
    2800    14.984195       79           79            0 7.9871626e-14            0          0.1 0.0090016299     3.42e-20  0.029897287 
number of iterations: 21594 
    2900    15.526398       81           81            0 8.149341e-14            0          0.1  0.009001663     3.42e-20  0.029897232 
number of iterations: 21683 
    3000    16.075389       81           81            0 8.3148123e-14            0          0.1 0.0090016967     3.42e-20  0.029897175 
number of iterations: 21771 
    3100      16.6118       81           81            0 8.4836436e-14            0          0.1 0.0090017312     3.42e-20  0.029897118 
number of iterations: 21608 
    3200     17.14165       83           83            0 8.6559029e-14            0          0.1 0.0090017648     3.42e-20  0.029897062 
number of iterations: 21943 
    3300    17.679772       83           83            0 8.8316599e-14            0          0.1 0.0090018007     3.42e-20  0.029897002 
number of iterations: 22032 
    3400    18.236746       83           83            0 9.0109857e-14            0          0.1 0.0090018372     3.42e-20  0.029896941 
number of iterations: 22120 
    3500    18.787314       83           83            0 9.1939527e-14            0          0.1 0.0090018746     3.42e-20  0.029896879 
number of iterations: 22209 
    3600    19.330959       83           83            0 9.3806347e-14            0          0.1 0.0090019126     3.42e-20  0.029896816 
number of iterations: 22313 
    3700    19.928433       87           87            0 9.5711074e-14            0          0.1 0.0090019515     3.42e-20  0.029896751 
number of iterations: 22417 
    3800    20.492937       89           89            0 9.7654475e-14            0          0.1 0.0090019911     3.42e-20  0.029896685 
number of iterations: 22523 
    3900    21.059894       94           94            0 9.9637337e-14            0          0.1 0.0090020315     3.42e-20  0.029896618 
number of iterations: 22629 
    4000    21.620785       95           95            0 1.0166046e-13            0          0.1 0.0090020728     3.42e-20  0.029896549 
number of iterations: 22733 
    4100    22.188571       98           98            0 1.0372466e-13            0          0.1 0.0090021149     3.42e-20  0.029896479 
number of iterations: 22862 
    4200    22.768264      101          101            0 1.0583078e-13            0          0.1 0.0090021578     3.42e-20  0.029896408 
number of iterations: 23837 
    4300    23.371226      105          105            0 1.0797966e-13            0          0.1 0.0090022096     3.42e-20  0.029896321 
number of iterations: 23053 
    4400    23.946913      111          111            0 1.1017217e-13            0          0.1 0.0090022545     3.42e-20  0.029896247 
number of iterations: 23184 
    4500    24.515712      112          112            0 1.1240921e-13            0          0.1 0.0090023002     3.42e-20   0.02989617 
number of iterations: 22732 
    4600    25.108804      114          114            0 1.1469166e-13            0          0.1 0.0090023431     3.42e-20  0.029896099 
number of iterations: 23380 
    4700    25.688231      117          117            0 1.1702046e-13            0          0.1 0.0090023907     3.42e-20   0.02989602 
number of iterations: 23486 
    4800    26.274256      120          120            0 1.1939655e-13            0          0.1 0.0090024392     3.42e-20  0.029895939 
number of iterations: 23592 
    4900    26.884713      121          121            0 1.2182088e-13            0          0.1 0.0090024887     3.42e-20  0.029895857 
number of iterations: 23703 
    5000    27.476832      124          124            0 1.2429443e-13            0          0.1 0.0090025393     3.42e-20  0.029895772 
number of iterations: 23811 
    5100    28.061808      129          129            0 1.2681822e-13            0          0.1 0.0090025908     3.42e-20  0.029895687 
number of iterations: 23911 
    5200    28.653737      130          130            0 1.2939324e-13            0          0.1 0.0090026435     3.42e-20  0.029895599 
number of iterations: 24034 
    5300    29.264699      132          132            0 1.3202056e-13            0          0.1 0.0090026971     3.42e-20   0.02989551 
number of iterations: 24124 
    5400    29.874532      135          135            0 1.3470122e-13            0          0.1 0.0090027519     3.42e-20  0.029895418 
number of iterations: 24228 
    5500    30.473937      137          137            0 1.3743631e-13            0          0.1 0.0090028078     3.42e-20  0.029895325 
number of iterations: 24339 
    5600    31.072415      139          139            0 1.4022693e-13            0          0.1 0.0090028648     3.42e-20   0.02989523 
number of iterations: 24444 
    5700    31.663014      143          143            0 1.4307422e-13            0          0.1  0.009002923     3.42e-20  0.029895134 
number of iterations: 25006 
    5800    32.267228      146          146            0 1.4597933e-13            0          0.1 0.0090029869     3.42e-20  0.029895027 
number of iterations: 24666 
    5900    32.871291      152          152            0 1.4894342e-13            0          0.1 0.0090030476     3.42e-20  0.029894926 
number of iterations: 24773 
    6000    33.484381      153          153            0 1.5196769e-13            0          0.1 0.0090031094     3.42e-20  0.029894823 
number of iterations: 24880 
    6100    34.099941      154          154            0 1.5505338e-13            0          0.1 0.0090031726     3.42e-20  0.029894718 
number of iterations: 24987 
    6200     34.75589      155          155            0 1.5820172e-13            0          0.1  0.009003237     3.42e-20  0.029894611 
number of iterations: 25094 
    6300     35.38675      157          157            0 1.6141398e-13            0          0.1 0.0090033027     3.42e-20  0.029894501 
number of iterations: 25200 
    6400    36.006687      158          158            0 1.6469147e-13            0          0.1 0.0090033698     3.42e-20   0.02989439 
number of iterations: 25498 
    6500    36.633058      161          161            0 1.6803551e-13            0          0.1 0.0090034402     3.42e-20  0.029894272 
number of iterations: 25413 
    6600    37.284188      163          163            0 1.7144745e-13            0          0.1   0.00900351     3.42e-20  0.029894156 
number of iterations: 25525 
    6700    37.878569      165          165            0 1.7492866e-13            0          0.1 0.0090035813     3.42e-20  0.029894037 
number of iterations: 25145 
    6800    38.504042      170          170            0 1.7848057e-13            0          0.1 0.0090036483     3.42e-20  0.029893926 
number of iterations: 25729 
    6900    39.337109      176          176            0 1.8210459e-13            0          0.1 0.0090037224     3.42e-20  0.029893802 
number of iterations: 24576 
    7000     40.00745      179          179            0 1.858022e-13            0          0.1 0.0090037831     3.42e-20  0.029893701 
number of iterations: 25921 
    7100    40.642258      181          181            0 1.8957489e-13            0          0.1 0.0090038599     3.42e-20  0.029893574 
number of iterations: 26027 
    7200    41.262288      185          185            0 1.9342418e-13            0          0.1 0.0090039383     3.42e-20  0.029893443 
number of iterations: 26135 
    7300    41.896658      190          190            0 1.9735163e-13            0          0.1 0.0090040182     3.42e-20   0.02989331 
number of iterations: 26242 
    7400    42.539683      192          192            0 2.0135883e-13            0          0.1 0.0090040998     3.42e-20  0.029893174 
number of iterations: 26615 
    7500    43.188787      198          198            0 2.0544739e-13            0          0.1 0.0090041866     3.42e-20   0.02989303 
number of iterations: 26461 
    7600     43.83459      200          200            0 2.0961897e-13            0          0.1 0.0090042716     3.42e-20  0.029892888 
number of iterations: 26568 
    7700    44.472167      205          205            0 2.1387525e-13            0          0.1 0.0090043583     3.42e-20  0.029892744 
number of iterations: 27301 
    7800    45.157401      209          209            0 2.1821796e-13            0          0.1 0.0090044573     3.42e-20  0.029892579 
number of iterations: 26796 
    7900    45.798613      218          218            0 2.2264885e-13            0          0.1 0.0090045478     3.42e-20  0.029892428 
number of iterations: 26902 
    8000    46.447931      222          222            0 2.271697e-13            0          0.1 0.0090046402     3.42e-20  0.029892274 
number of iterations: 27012 
    8100    47.103236      228          228            0 2.3178235e-13            0          0.1 0.0090047344     3.42e-20  0.029892117 
number of iterations: 27112 
    8200    47.753489      232          232            0 2.3648865e-13            0          0.1 0.0090048305     3.42e-20  0.029891957 
number of iterations: 27222 
    8300    48.426802      237          237            0 2.4129052e-13            0          0.1 0.0090049286     3.42e-20  0.029891794 
number of iterations: 27220 
    8400    49.091008      247          247            0 2.4618989e-13            0          0.1 0.0090050271     3.42e-20   0.02989163 
number of iterations: 27437 
    8500     49.76467      252          252            0 2.5118874e-13            0          0.1 0.0090051292     3.42e-20   0.02989146 
number of iterations: 27545 
    8600    50.444836      255          255            0 2.5628909e-13            0          0.1 0.0090052333     3.42e-20  0.029891287 
number of iterations: 27652 
    8700     51.13976      261          261            0  2.61493e-13            0          0.1 0.0090053396     3.42e-20   0.02989111 
number of iterations: 27592 
    8800    51.831634      267          267            0 2.6680258e-13            0          0.1 0.0090054453     3.42e-20  0.029890934 
number of iterations: 27860 
    8900    52.537523      274          274            0 2.7221996e-13            0          0.1 0.0090055558     3.42e-20   0.02989075 
number of iterations: 27970 
    9000    53.258915      283          283            0 2.7774735e-13            0          0.1 0.0090056686     3.42e-20  0.029890562 
number of iterations: 28081 
    9100    53.981748      285          285            0 2.8338697e-13            0          0.1 0.0090057837     3.42e-20   0.02989037 
number of iterations: 28075 
    9200    54.715452      293          293            0 2.891411e-13            0          0.1 0.0090058994     3.42e-20  0.029890178 
number of iterations: 28181 
    9300    55.485675      296          296            0 2.9501206e-13            0          0.1 0.0090060173     3.42e-20  0.029889981 
number of iterations: 28396 
    9400     56.21713      300          300            0 3.0100224e-13            0          0.1 0.0090061395     3.42e-20  0.029889778 
number of iterations: 28501 
    9500    56.949519      302          302            0 3.0711404e-13            0          0.1 0.0090062641     3.42e-20   0.02988957 
number of iterations: 28614 
    9600    57.682232      307          307            0 3.1334994e-13            0          0.1 0.0090063913     3.42e-20  0.029889358 
number of iterations: 28717 
    9700     58.40631      312          312            0 3.1971246e-13            0          0.1 0.0090065211     3.42e-20  0.029889142 
number of iterations: 29019 
    9800    59.170207      315          315            0 3.2620418e-13            0          0.1 0.0090066579     3.42e-20  0.029888915 
number of iterations: 28653 
    9900    59.918341      323          323            0 3.328277e-13            0          0.1 0.0090067869     3.42e-20    0.0298887 
number of iterations: 28963 
   10000    60.657468      329          329            0 3.3958571e-13            0          0.1 0.0090069231     3.42e-20  0.029888473 
Loop time of 60.6575 on 8 procs for 10000 steps with 329 atoms

Performance: 142439067.825 tau/day, 164.860 timesteps/s
85.5% CPU use with 8 MPI tasks x no OpenMP threads

MPI task timing breakdown:
Section |  min time  |  avg time  |  max time  |%varavg| %total
---------------------------------------------------------------
Pair    | 0.0091246  | 0.011993   | 0.015253   |   1.8 |  0.02
Neigh   | 0.0080253  | 0.0092183  | 0.010491   |   0.9 |  0.02
Comm    | 0.035108   | 0.047488   | 0.062238   |   4.3 |  0.08
Output  | 13.046     | 13.047     | 13.049     |   0.0 | 21.51
Modify  | 47.467     | 47.471     | 47.477     |   0.0 | 78.26
Other   |            | 0.07081    |            |       |  0.12

Nlocal:    41.125 ave 74 max 12 min
Histogram: 1 0 0 4 0 1 0 0 0 2
Nghost:    6 ave 12 max 3 min
Histogram: 3 1 1 0 0 1 0 1 0 1
Neighs:    52.875 ave 97 max 14 min
Histogram: 1 0 0 4 0 1 0 0 1 1

Total # of neighbors = 423
Ave neighs/atom = 1.28571
Neighbor list builds = 120
Dangerous builds = 0
Total wall time: 0:01:00
