ITEM: TIMESTEP
0
ITEM: NUMBER OF ATOMS
50
ITEM: BOX BOUNDS ff ff ff
0.0000000000000000e+00 1.0000000000000000e-04
0.0000000000000000e+00 1.0000000000000000e-04
0.0000000000000000e+00 5.0000000000000002e-05
ITEM: ATOMS id type diameter x y z 
1 1 1.41e-06 3.78e-05 4.8e-05 1.65e-06 
33 1 1.81e-06 4.58e-05 2.72e-05 2.12e-06 
49 1 1.72e-06 2.71e-05 4.49e-05 2.12e-06 
15 1 1.69e-06 3.92e-05 4.27e-05 7.52e-06 
40 1 1.6e-06 2.31e-05 2.4e-05 9.33e-06 
41 1 1.89e-06 4.51e-05 3.36e-05 1.28e-05 
18 1 1.68e-06 1.91e-05 4.55e-05 1.34e-05 
38 1 1.83e-06 1.19e-05 2.59e-05 1.43e-05 
47 1 1.48e-06 3.6e-05 1.39e-05 1.5e-05 
23 1 1.49e-06 3.26e-05 2.19e-05 1.59e-05 
11 1 1.85e-06 3.94e-05 2.27e-05 1.67e-05 
16 1 1.78e-06 4.81e-05 3.46e-05 2.47e-05 
14 1 1.55e-06 2.43e-05 4.01e-05 2.9e-05 
8 1 1.66e-06 2.97e-05 1.16e-05 3.02e-05 
12 1 1.8e-06 7.55e-06 7.16e-06 3.28e-05 
20 1 1.72e-06 2.28e-05 1.05e-05 3.77e-05 
26 1 1.9e-06 1.19e-05 2.74e-05 4.05e-05 
37 1 1.68e-06 2.7e-05 4.72e-05 4.26e-05 
48 1 1.7e-06 7.99e-06 3.1e-05 4.47e-05 
3 1 1.44e-06 1.49e-05 2.95e-05 4.6e-05 
2 1 1.54e-06 2.37e-05 2.94e-05 4.67e-05 
36 1 1.79e-06 4.4e-05 5.9e-05 2.41e-06 
7 1 1.47e-06 2.13e-05 8.76e-05 6.35e-06 
19 1 1.52e-06 2.39e-05 5.28e-05 1.64e-05 
6 1 1.52e-06 3.42e-05 5.29e-05 1.65e-05 
46 1 1.47e-06 2.26e-05 7.99e-05 1.7e-05 
5 1 1.49e-06 1.89e-05 6.26e-05 1.79e-05 
28 1 1.45e-06 3.99e-05 6.13e-05 1.98e-05 
10 1 1.47e-06 4.36e-05 6.07e-05 2.43e-05 
27 1 1.63e-06 1.32e-05 7.41e-05 3.85e-05 
9 1 1.8e-06 8.42e-05 4.38e-05 5.9e-06 
4 1 1.71e-06 6.86e-05 2.67e-05 8.62e-06 
30 1 1.71e-06 5.66e-05 2.61e-05 1e-05 
34 1 1.54e-06 9.65e-05 1.97e-05 1.61e-05 
29 1 1.42e-06 7.24e-05 2.99e-05 1.76e-05 
25 1 1.84e-06 9.34e-05 4.67e-05 2.39e-05 
31 1 1.8e-06 6.06e-05 2.83e-05 3.26e-05 
17 1 1.52e-06 6.55e-05 4.32e-06 4.41e-05 
32 1 1.63e-06 6.46e-05 2.69e-06 4.53e-05 
39 1 1.6e-06 6.81e-05 3.4e-05 4.62e-05 
21 1 1.9e-06 8.4e-05 9.18e-06 4.66e-05 
13 1 1.92e-06 7.14e-05 8e-05 2.75e-06 
44 1 1.67e-06 5.12e-05 7.52e-05 6.83e-06 
50 1 1.68e-06 5.44e-05 7.19e-05 8.03e-06 
42 1 1.84e-06 7.94e-05 6.3e-05 1.19e-05 
22 1 1.73e-06 6.28e-05 5.11e-05 2.8e-05 
24 1 1.46e-06 8.05e-05 6.75e-05 3.49e-05 
45 1 1.7e-06 8.19e-05 7.82e-05 3.64e-05 
43 1 1.82e-06 8.16e-05 6.93e-05 3.75e-05 
35 1 1.76e-06 6.34e-05 8.71e-05 4.59e-05 
ITEM: TIMESTEP
100
ITEM: NUMBER OF ATOMS
50
ITEM: BOX BOUNDS ff ff ff
0.0000000000000000e+00 1.0000000000000000e-04
0.0000000000000000e+00 1.0000000000000000e-04
0.0000000000000000e+00 5.0000000000000002e-05
ITEM: ATOMS id type diameter x y z 
1 1 1.41948e-06 3.78e-05 4.8e-05 1.65e-06 
33 1 1.82217e-06 4.58e-05 2.72e-05 2.12e-06 
49 1 1.73156e-06 2.71e-05 4.49e-05 2.12e-06 
15 1 1.70136e-06 3.92e-05 4.27e-05 7.52e-06 
40 1 1.61076e-06 2.31e-05 2.4e-05 9.33e-06 
41 1 1.90271e-06 4.51e-05 3.36e-05 1.28e-05 
18 1 1.69129e-06 1.91e-05 4.55e-05 1.34e-05 
38 1 1.8423e-06 1.19e-05 2.59e-05 1.43e-05 
47 1 1.48995e-06 3.6e-05 1.39e-05 1.5e-05 
23 1 1.50002e-06 3.26e-05 2.19e-05 1.59e-05 
11 1 1.86244e-06 3.94e-05 2.27e-05 1.67e-05 
16 1 1.79197e-06 4.81e-05 3.46e-05 2.47e-05 
14 1 1.56042e-06 2.43e-05 4.01e-05 2.9e-05 
8 1 1.67116e-06 2.97e-05 1.16e-05 3.02e-05 
12 1 1.8121e-06 7.55e-06 7.16e-06 3.28e-05 
20 1 1.73156e-06 2.28e-05 1.05e-05 3.77e-05 
26 1 1.91277e-06 1.19e-05 2.74e-05 4.05e-05 
37 1 1.69129e-06 2.7e-05 4.72e-05 4.26e-05 
48 1 1.71143e-06 7.99e-06 3.1e-05 4.47e-05 
3 1 1.44968e-06 1.49e-05 2.95e-05 4.6e-05 
2 1 1.55035e-06 2.37e-05 2.94e-05 4.67e-05 
36 1 1.80203e-06 4.4e-05 5.9e-05 2.41e-06 
7 1 1.47988e-06 2.13e-05 8.76e-05 6.35e-06 
19 1 1.53022e-06 2.39e-05 5.28e-05 1.64e-05 
6 1 1.53022e-06 3.42e-05 5.29e-05 1.65e-05 
46 1 1.47988e-06 2.26e-05 7.99e-05 1.7e-05 
5 1 1.50002e-06 1.89e-05 6.26e-05 1.79e-05 
28 1 1.45975e-06 3.99e-05 6.13e-05 1.98e-05 
10 1 1.47988e-06 4.36e-05 6.07e-05 2.43e-05 
27 1 1.64096e-06 1.32e-05 7.41e-05 3.85e-05 
9 1 1.8121e-06 8.42e-05 4.38e-05 5.9e-06 
4 1 1.7215e-06 6.86e-05 2.67e-05 8.62e-06 
30 1 1.7215e-06 5.66e-05 2.61e-05 1e-05 
34 1 1.55035e-06 9.65e-05 1.97e-05 1.61e-05 
29 1 1.42955e-06 7.24e-05 2.99e-05 1.76e-05 
25 1 1.85237e-06 9.34e-05 4.67e-05 2.39e-05 
31 1 1.8121e-06 6.06e-05 2.83e-05 3.26e-05 
17 1 1.53022e-06 6.55e-05 4.32e-06 4.41e-05 
32 1 1.64096e-06 6.46e-05 2.69e-06 4.53e-05 
39 1 1.61076e-06 6.81e-05 3.4e-05 4.62e-05 
21 1 1.91277e-06 8.4e-05 9.18e-06 4.66e-05 
13 1 1.93291e-06 7.14e-05 8e-05 2.75e-06 
44 1 1.68123e-06 5.12e-05 7.52e-05 6.83e-06 
50 1 1.69129e-06 5.44e-05 7.19e-05 8.03e-06 
42 1 1.85237e-06 7.94e-05 6.3e-05 1.19e-05 
22 1 1.74163e-06 6.28e-05 5.11e-05 2.8e-05 
24 1 1.46982e-06 8.05e-05 6.75e-05 3.49e-05 
45 1 1.71143e-06 8.19e-05 7.82e-05 3.64e-05 
43 1 1.83224e-06 8.16e-05 6.93e-05 3.75e-05 
35 1 1.77183e-06 6.34e-05 8.71e-05 4.59e-05 
ITEM: TIMESTEP
200
ITEM: NUMBER OF ATOMS
50
ITEM: BOX BOUNDS ff ff ff
0.0000000000000000e+00 1.0000000000000000e-04
0.0000000000000000e+00 1.0000000000000000e-04
0.0000000000000000e+00 5.0000000000000002e-05
ITEM: ATOMS id type diameter x y z 
1 1 1.42902e-06 3.78e-05 4.8e-05 1.65e-06 
33 1 1.83442e-06 4.58e-05 2.72e-05 2.12e-06 
49 1 1.7432e-06 2.71e-05 4.49e-05 2.12e-06 
15 1 1.7128e-06 3.92e-05 4.27e-05 7.52e-06 
40 1 1.62159e-06 2.31e-05 2.4e-05 9.33e-06 
41 1 1.9155e-06 4.51e-05 3.36e-05 1.28e-05 
18 1 1.70267e-06 1.91e-05 4.55e-05 1.34e-05 
38 1 1.85469e-06 1.19e-05 2.59e-05 1.43e-05 
47 1 1.49997e-06 3.6e-05 1.39e-05 1.5e-05 
23 1 1.5101e-06 3.26e-05 2.19e-05 1.59e-05 
11 1 1.87496e-06 3.94e-05 2.27e-05 1.67e-05 
16 1 1.80401e-06 4.81e-05 3.46e-05 2.47e-05 
14 1 1.57091e-06 2.43e-05 4.01e-05 2.9e-05 
8 1 1.6824e-06 2.97e-05 1.16e-05 3.02e-05 
12 1 1.82428e-06 7.55e-06 7.16e-06 3.28e-05 
20 1 1.7432e-06 2.28e-05 1.05e-05 3.77e-05 
26 1 1.92563e-06 1.19e-05 2.74e-05 4.05e-05 
37 1 1.70267e-06 2.7e-05 4.72e-05 4.26e-05 
48 1 1.72294e-06 7.99e-06 3.1e-05 4.47e-05 
3 1 1.45943e-06 1.49e-05 2.95e-05 4.6e-05 
2 1 1.56078e-06 2.37e-05 2.94e-05 4.67e-05 
36 1 1.81415e-06 4.4e-05 5.9e-05 2.41e-06 
7 1 1.48983e-06 2.13e-05 8.76e-05 6.35e-06 
19 1 1.54051e-06 2.39e-05 5.28e-05 1.64e-05 
6 1 1.54051e-06 3.42e-05 5.29e-05 1.65e-05 
46 1 1.48983e-06 2.26e-05 7.99e-05 1.7e-05 
5 1 1.5101e-06 1.89e-05 6.26e-05 1.79e-05 
28 1 1.46956e-06 3.99e-05 6.13e-05 1.98e-05 
10 1 1.48983e-06 4.36e-05 6.07e-05 2.43e-05 
27 1 1.65199e-06 1.32e-05 7.41e-05 3.85e-05 
9 1 1.82428e-06 8.42e-05 4.38e-05 5.9e-06 
4 1 1.73307e-06 6.86e-05 2.67e-05 8.62e-06 
30 1 1.73307e-06 5.66e-05 2.61e-05 1e-05 
34 1 1.56078e-06 9.65e-05 1.97e-05 1.61e-05 
29 1 1.43916e-06 7.24e-05 2.99e-05 1.76e-05 
25 1 1.86482e-06 9.34e-05 4.67e-05 2.39e-05 
31 1 1.82428e-06 6.06e-05 2.83e-05 3.26e-05 
17 1 1.54051e-06 6.55e-05 4.32e-06 4.41e-05 
32 1 1.65199e-06 6.46e-05 2.69e-06 4.53e-05 
39 1 1.62159e-06 6.81e-05 3.4e-05 4.62e-05 
21 1 1.92563e-06 8.4e-05 9.18e-06 4.66e-05 
13 1 1.9459e-06 7.14e-05 8e-05 2.75e-06 
44 1 1.69253e-06 5.12e-05 7.52e-05 6.83e-06 
50 1 1.70267e-06 5.44e-05 7.19e-05 8.03e-06 
42 1 1.86482e-06 7.94e-05 6.3e-05 1.19e-05 
22 1 1.75334e-06 6.28e-05 5.11e-05 2.8e-05 
24 1 1.4797e-06 8.05e-05 6.75e-05 3.49e-05 
45 1 1.72294e-06 8.19e-05 7.82e-05 3.64e-05 
43 1 1.84455e-06 8.16e-05 6.93e-05 3.75e-05 
35 1 1.78374e-06 6.34e-05 8.71e-05 4.59e-05 
ITEM: TIMESTEP
300
ITEM: NUMBER OF ATOMS
50
ITEM: BOX BOUNDS ff ff ff
0.0000000000000000e+00 1.0000000000000000e-04
0.0000000000000000e+00 1.0000000000000000e-04
0.0000000000000000e+00 5.0000000000000002e-05
ITEM: ATOMS id type diameter x y z 
1 1 1.43863e-06 3.78e-05 4.8e-05 1.65e-06 
33 1 1.84675e-06 4.58e-05 2.72e-05 2.12e-06 
49 1 1.75492e-06 2.71e-05 4.49e-05 2.12e-06 
15 1 1.72432e-06 3.92e-05 4.27e-05 7.52e-06 
40 1 1.63249e-06 2.31e-05 2.4e-05 9.33e-06 
41 1 1.92838e-06 4.51e-05 3.36e-05 1.28e-05 
18 1 1.71411e-06 1.91e-05 4.55e-05 1.34e-05 
38 1 1.86716e-06 1.19e-05 2.59e-05 1.43e-05 
47 1 1.51005e-06 3.6e-05 1.39e-05 1.5e-05 
23 1 1.52025e-06 3.26e-05 2.19e-05 1.59e-05 
11 1 1.88756e-06 3.94e-05 2.27e-05 1.67e-05 
16 1 1.81614e-06 4.81e-05 3.46e-05 2.47e-05 
14 1 1.58147e-06 2.43e-05 4.01e-05 2.9e-05 
8 1 1.69371e-06 2.97e-05 1.16e-05 3.02e-05 
12 1 1.83655e-06 7.55e-06 7.16e-06 3.28e-05 
20 1 1.75492e-06 2.28e-05 1.05e-05 3.77e-05 
26 1 1.93858e-06 1.19e-05 2.74e-05 4.05e-05 
37 1 1.71411e-06 2.7e-05 4.72e-05 4.26e-05 
48 1 1.73452e-06 7.99e-06 3.1e-05 4.47e-05 
3 1 1.46924e-06 1.49e-05 2.95e-05 4.6e-05 
2 1 1.57127e-06 2.37e-05 2.94e-05 4.67e-05 
36 1 1.82635e-06 4.4e-05 5.9e-05 2.41e-06 
7 1 1.49985e-06 2.13e-05 8.76e-05 6.35e-06 
19 1 1.55086e-06 2.39e-05 5.28e-05 1.64e-05 
6 1 1.55086e-06 3.42e-05 5.29e-05 1.65e-05 
46 1 1.49985e-06 2.26e-05 7.99e-05 1.7e-05 
5 1 1.52025e-06 1.89e-05 6.26e-05 1.79e-05 
28 1 1.47944e-06 3.99e-05 6.13e-05 1.98e-05 
10 1 1.49985e-06 4.36e-05 6.07e-05 2.43e-05 
27 1 1.6631e-06 1.32e-05 7.41e-05 3.85e-05 
9 1 1.83655e-06 8.42e-05 4.38e-05 5.9e-06 
4 1 1.74472e-06 6.86e-05 2.67e-05 8.62e-06 
30 1 1.74472e-06 5.66e-05 2.61e-05 1e-05 
34 1 1.57127e-06 9.65e-05 1.97e-05 1.61e-05 
29 1 1.44883e-06 7.24e-05 2.99e-05 1.76e-05 
25 1 1.87736e-06 9.34e-05 4.67e-05 2.39e-05 
31 1 1.83655e-06 6.06e-05 2.83e-05 3.26e-05 
17 1 1.55086e-06 6.55e-05 4.32e-06 4.41e-05 
32 1 1.6631e-06 6.46e-05 2.69e-06 4.53e-05 
39 1 1.63249e-06 6.81e-05 3.4e-05 4.62e-05 
21 1 1.93858e-06 8.4e-05 9.18e-06 4.66e-05 
13 1 1.95899e-06 7.14e-05 8e-05 2.75e-06 
44 1 1.70391e-06 5.12e-05 7.52e-05 6.83e-06 
50 1 1.71411e-06 5.44e-05 7.19e-05 8.03e-06 
42 1 1.87736e-06 7.94e-05 6.3e-05 1.19e-05 
22 1 1.76513e-06 6.28e-05 5.11e-05 2.8e-05 
24 1 1.48965e-06 8.05e-05 6.75e-05 3.49e-05 
45 1 1.73452e-06 8.19e-05 7.82e-05 3.64e-05 
43 1 1.85695e-06 8.16e-05 6.93e-05 3.75e-05 
35 1 1.79574e-06 6.34e-05 8.71e-05 4.59e-05 
ITEM: TIMESTEP
400
ITEM: NUMBER OF ATOMS
50
ITEM: BOX BOUNDS ff ff ff
0.0000000000000000e+00 1.0000000000000000e-04
0.0000000000000000e+00 1.0000000000000000e-04
0.0000000000000000e+00 5.0000000000000002e-05
ITEM: ATOMS id type diameter x y z 
1 1 1.4483e-06 3.78e-05 4.8e-05 1.65e-06 
33 1 1.85917e-06 4.58e-05 2.72e-05 2.12e-06 
49 1 1.76672e-06 2.71e-05 4.49e-05 2.12e-06 
15 1 1.73591e-06 3.92e-05 4.27e-05 7.52e-06 
40 1 1.64346e-06 2.31e-05 2.4e-05 9.33e-06 
41 1 1.94134e-06 4.51e-05 3.36e-05 1.28e-05 
18 1 1.72564e-06 1.91e-05 4.55e-05 1.34e-05 
38 1 1.87971e-06 1.19e-05 2.59e-05 1.43e-05 
47 1 1.5202e-06 3.6e-05 1.39e-05 1.5e-05 
23 1 1.53047e-06 3.26e-05 2.19e-05 1.59e-05 
11 1 1.90025e-06 3.94e-05 2.27e-05 1.67e-05 
16 1 1.82835e-06 4.81e-05 3.46e-05 2.47e-05 
14 1 1.5921e-06 2.43e-05 4.01e-05 2.9e-05 
8 1 1.70509e-06 2.97e-05 1.16e-05 3.02e-05 
12 1 1.8489e-06 7.55e-06 7.16e-06 3.28e-05 
20 1 1.76672e-06 2.28e-05 1.05e-05 3.77e-05 
26 1 1.95161e-06 1.19e-05 2.74e-05 4.05e-05 
37 1 1.72564e-06 2.7e-05 4.72e-05 4.26e-05 
48 1 1.74618e-06 7.99e-06 3.1e-05 4.47e-05 
3 1 1.47912e-06 1.49e-05 2.95e-05 4.6e-05 
2 1 1.58183e-06 2.37e-05 2.94e-05 4.67e-05 
36 1 1.83862e-06 4.4e-05 5.9e-05 2.41e-06 
7 1 1.50993e-06 2.13e-05 8.76e-05 6.35e-06 
19 1 1.56129e-06 2.39e-05 5.28e-05 1.64e-05 
6 1 1.56129e-06 3.42e-05 5.29e-05 1.65e-05 
46 1 1.50993e-06 2.26e-05 7.99e-05 1.7e-05 
5 1 1.53047e-06 1.89e-05 6.26e-05 1.79e-05 
28 1 1.48939e-06 3.99e-05 6.13e-05 1.98e-05 
10 1 1.50993e-06 4.36e-05 6.07e-05 2.43e-05 
27 1 1.67428e-06 1.32e-05 7.41e-05 3.85e-05 
9 1 1.8489e-06 8.42e-05 4.38e-05 5.9e-06 
4 1 1.75645e-06 6.86e-05 2.67e-05 8.62e-06 
30 1 1.75645e-06 5.66e-05 2.61e-05 1e-05 
34 1 1.58183e-06 9.65e-05 1.97e-05 1.61e-05 
29 1 1.45857e-06 7.24e-05 2.99e-05 1.76e-05 
25 1 1.88998e-06 9.34e-05 4.67e-05 2.39e-05 
31 1 1.8489e-06 6.06e-05 2.83e-05 3.26e-05 
17 1 1.56129e-06 6.55e-05 4.32e-06 4.41e-05 
32 1 1.67428e-06 6.46e-05 2.69e-06 4.53e-05 
39 1 1.64346e-06 6.81e-05 3.4e-05 4.62e-05 
21 1 1.95161e-06 8.4e-05 9.18e-06 4.66e-05 
13 1 1.97216e-06 7.14e-05 8e-05 2.75e-06 
44 1 1.71536e-06 5.12e-05 7.52e-05 6.83e-06 
50 1 1.72564e-06 5.44e-05 7.19e-05 8.03e-06 
42 1 1.88998e-06 7.94e-05 6.3e-05 1.19e-05 
22 1 1.77699e-06 6.28e-05 5.11e-05 2.8e-05 
24 1 1.49966e-06 8.05e-05 6.75e-05 3.49e-05 
45 1 1.74618e-06 8.19e-05 7.82e-05 3.64e-05 
43 1 1.86944e-06 8.16e-05 6.93e-05 3.75e-05 
35 1 1.80781e-06 6.34e-05 8.71e-05 4.59e-05 
ITEM: TIMESTEP
500
ITEM: NUMBER OF ATOMS
51
ITEM: BOX BOUNDS ff ff ff
0.0000000000000000e+00 1.0000000000000000e-04
0.0000000000000000e+00 1.0000000000000000e-04
0.0000000000000000e+00 5.0000000000000002e-05
ITEM: ATOMS id type diameter x y z 
1 1 1.45804e-06 3.78e-05 4.8e-05 1.65e-06 
33 1 1.87167e-06 4.58e-05 2.72e-05 2.12e-06 
49 1 1.7786e-06 2.71e-05 4.49e-05 2.12e-06 
15 1 1.74758e-06 3.92e-05 4.27e-05 7.52e-06 
40 1 1.65451e-06 2.31e-05 2.4e-05 9.33e-06 
41 1 1.95439e-06 4.51e-05 3.36e-05 1.28e-05 
18 1 1.73724e-06 1.91e-05 4.55e-05 1.34e-05 
38 1 1.89235e-06 1.19e-05 2.59e-05 1.43e-05 
47 1 1.53042e-06 3.6e-05 1.39e-05 1.5e-05 
23 1 1.54076e-06 3.26e-05 2.19e-05 1.59e-05 
11 1 1.91303e-06 3.94e-05 2.27e-05 1.67e-05 
16 1 1.84064e-06 4.81e-05 3.46e-05 2.47e-05 
14 1 1.60281e-06 2.43e-05 4.01e-05 2.9e-05 
8 1 1.71656e-06 2.97e-05 1.16e-05 3.02e-05 
12 1 1.86133e-06 7.55e-06 7.16e-06 3.28e-05 
20 1 1.7786e-06 2.28e-05 1.05e-05 3.77e-05 
26 1 1.96473e-06 1.19e-05 2.74e-05 4.05e-05 
37 1 1.73724e-06 2.7e-05 4.72e-05 4.26e-05 
48 1 1.75792e-06 7.99e-06 3.1e-05 4.47e-05 
3 1 1.48906e-06 1.49e-05 2.95e-05 4.6e-05 
2 1 1.59247e-06 2.37e-05 2.94e-05 4.67e-05 
36 1 1.85099e-06 4.4e-05 5.9e-05 2.41e-06 
7 1 1.52008e-06 2.13e-05 8.76e-05 6.35e-06 
19 1 1.57179e-06 2.39e-05 5.28e-05 1.64e-05 
6 1 1.57179e-06 3.42e-05 5.29e-05 1.65e-05 
46 1 1.52008e-06 2.26e-05 7.99e-05 1.7e-05 
5 1 1.54076e-06 1.89e-05 6.26e-05 1.79e-05 
28 1 1.4994e-06 3.99e-05 6.13e-05 1.98e-05 
10 1 1.52008e-06 4.36e-05 6.07e-05 2.43e-05 
27 1 1.68553e-06 1.32e-05 7.41e-05 3.85e-05 
9 1 1.86133e-06 8.42e-05 4.38e-05 5.9e-06 
4 1 1.76826e-06 6.86e-05 2.67e-05 8.62e-06 
30 1 1.76826e-06 5.66e-05 2.61e-05 1e-05 
34 1 1.59247e-06 9.65e-05 1.97e-05 1.61e-05 
29 1 1.46838e-06 7.24e-05 2.99e-05 1.76e-05 
25 1 1.90269e-06 9.34e-05 4.67e-05 2.39e-05 
31 1 1.86133e-06 6.06e-05 2.83e-05 3.26e-05 
17 1 1.57179e-06 6.55e-05 4.32e-06 4.41e-05 
32 1 1.68553e-06 6.46e-05 2.69e-06 4.53e-05 
39 1 1.65451e-06 6.81e-05 3.4e-05 4.62e-05 
21 1 1.96473e-06 8.4e-05 9.18e-06 4.66e-05 
13 1 1.54765e-06 7.06549e-05 7.98521e-05 2.60953e-06 
44 1 1.7269e-06 5.12e-05 7.52e-05 6.83e-06 
50 1 1.73724e-06 5.44e-05 7.19e-05 8.03e-06 
42 1 1.90269e-06 7.94e-05 6.3e-05 1.19e-05 
51 1 1.60303e-06 7.21718e-05 8.01532e-05 2.8955e-06 
22 1 1.78894e-06 6.28e-05 5.11e-05 2.8e-05 
24 1 1.50974e-06 8.05e-05 6.75e-05 3.49e-05 
45 1 1.75792e-06 8.19e-05 7.82e-05 3.64e-05 
43 1 1.88201e-06 8.16e-05 6.93e-05 3.75e-05 
35 1 1.81996e-06 6.34e-05 8.71e-05 4.59e-05 
ITEM: TIMESTEP
600
ITEM: NUMBER OF ATOMS
53
ITEM: BOX BOUNDS ff ff ff
0.0000000000000000e+00 1.0000000000000000e-04
0.0000000000000000e+00 1.0000000000000000e-04
0.0000000000000000e+00 5.0000000000000002e-05
ITEM: ATOMS id type diameter x y z 
1 1 1.46784e-06 3.78e-05 4.8e-05 1.65e-06 
33 1 1.88425e-06 4.58e-05 2.72e-05 2.12e-06 
49 1 1.79056e-06 2.71e-05 4.49e-05 2.12e-06 
15 1 1.75933e-06 3.92e-05 4.27e-05 7.52e-06 
40 1 1.66564e-06 2.31e-05 2.4e-05 9.33e-06 
41 1 1.96753e-06 4.51e-05 3.36e-05 1.28e-05 
18 1 1.74892e-06 1.91e-05 4.55e-05 1.34e-05 
38 1 1.90507e-06 1.19e-05 2.59e-05 1.43e-05 
47 1 1.54071e-06 3.6e-05 1.39e-05 1.5e-05 
23 1 1.55112e-06 3.26e-05 2.19e-05 1.59e-05 
11 1 1.92589e-06 3.94e-05 2.27e-05 1.67e-05 
16 1 1.85302e-06 4.81e-05 3.46e-05 2.47e-05 
14 1 1.61358e-06 2.43e-05 4.01e-05 2.9e-05 
8 1 1.7281e-06 2.97e-05 1.16e-05 3.02e-05 
12 1 1.87384e-06 7.55e-06 7.16e-06 3.28e-05 
20 1 1.79056e-06 2.28e-05 1.05e-05 3.77e-05 
26 1 1.54182e-06 1.11577e-05 2.72527e-05 4.03601e-05 
37 1 1.74892e-06 2.7e-05 4.72e-05 4.26e-05 
48 1 1.76974e-06 7.99e-06 3.1e-05 4.47e-05 
3 1 1.49907e-06 1.49e-05 2.95e-05 4.6e-05 
2 1 1.60317e-06 2.37e-05 2.94e-05 4.67e-05 
52 1 1.597e-06 1.26688e-05 2.75526e-05 4.0645e-05 
36 1 1.86343e-06 4.4e-05 5.9e-05 2.41e-06 
7 1 1.5303e-06 2.13e-05 8.76e-05 6.35e-06 
19 1 1.58235e-06 2.39e-05 5.28e-05 1.64e-05 
6 1 1.58235e-06 3.42e-05 5.29e-05 1.65e-05 
46 1 1.5303e-06 2.26e-05 7.99e-05 1.7e-05 
5 1 1.55112e-06 1.89e-05 6.26e-05 1.79e-05 
28 1 1.50948e-06 3.99e-05 6.13e-05 1.98e-05 
10 1 1.5303e-06 4.36e-05 6.07e-05 2.43e-05 
27 1 1.69687e-06 1.32e-05 7.41e-05 3.85e-05 
9 1 1.87384e-06 8.42e-05 4.38e-05 5.9e-06 
4 1 1.78015e-06 6.86e-05 2.67e-05 8.62e-06 
30 1 1.78015e-06 5.66e-05 2.61e-05 1e-05 
34 1 1.60317e-06 9.65e-05 1.97e-05 1.61e-05 
29 1 1.47825e-06 7.24e-05 2.99e-05 1.76e-05 
25 1 1.91548e-06 9.34e-05 4.67e-05 2.39e-05 
31 1 1.87384e-06 6.06e-05 2.83e-05 3.26e-05 
17 1 1.58235e-06 6.55e-05 4.32e-06 4.41e-05 
32 1 1.69687e-06 6.46e-05 2.69e-06 4.53e-05 
39 1 1.66564e-06 6.81e-05 3.4e-05 4.62e-05 
21 1 1.54182e-06 8.32577e-05 9.03269e-06 4.64601e-05 
53 1 1.597e-06 8.47688e-05 9.33259e-06 4.6745e-05 
13 1 1.55805e-06 7.06549e-05 7.98521e-05 2.60953e-06 
44 1 1.73851e-06 5.12e-05 7.52e-05 6.83e-06 
50 1 1.74892e-06 5.44e-05 7.19e-05 8.03e-06 
42 1 1.91548e-06 7.94e-05 6.3e-05 1.19e-05 
51 1 1.61381e-06 7.21718e-05 8.01532e-05 2.8955e-06 
22 1 1.80097e-06 6.28e-05 5.11e-05 2.8e-05 
24 1 1.51989e-06 8.05e-05 6.75e-05 3.49e-05 
45 1 1.76974e-06 8.19e-05 7.82e-05 3.64e-05 
43 1 1.89466e-06 8.16e-05 6.93e-05 3.75e-05 
35 1 1.8322e-06 6.34e-05 8.71e-05 4.59e-05 
ITEM: TIMESTEP
700
ITEM: NUMBER OF ATOMS
54
ITEM: BOX BOUNDS ff ff ff
0.0000000000000000e+00 1.0000000000000000e-04
0.0000000000000000e+00 1.0000000000000000e-04
0.0000000000000000e+00 5.0000000000000002e-05
ITEM: ATOMS id type diameter x y z 
1 1 1.47771e-06 3.78e-05 4.8e-05 1.65e-06 
33 1 1.89692e-06 4.58e-05 2.72e-05 2.12e-06 
49 1 1.8026e-06 2.71e-05 4.49e-05 2.12e-06 
15 1 1.77116e-06 3.92e-05 4.27e-05 7.52e-06 
40 1 1.67683e-06 2.31e-05 2.4e-05 9.33e-06 
41 1 1.54402e-06 4.43567e-05 3.34525e-05 1.26599e-05 
18 1 1.76068e-06 1.91e-05 4.55e-05 1.34e-05 
38 1 1.91788e-06 1.19e-05 2.59e-05 1.43e-05 
47 1 1.55107e-06 3.6e-05 1.39e-05 1.5e-05 
23 1 1.56155e-06 3.26e-05 2.19e-05 1.59e-05 
11 1 1.93884e-06 3.94e-05 2.27e-05 1.67e-05 
54 1 1.59927e-06 4.58699e-05 3.37528e-05 1.29452e-05 
16 1 1.86548e-06 4.81e-05 3.46e-05 2.47e-05 
14 1 1.62443e-06 2.43e-05 4.01e-05 2.9e-05 
8 1 1.73971e-06 2.97e-05 1.16e-05 3.02e-05 
12 1 1.88644e-06 7.55e-06 7.16e-06 3.28e-05 
20 1 1.8026e-06 2.28e-05 1.05e-05 3.77e-05 
26 1 1.55219e-06 1.11577e-05 2.72527e-05 4.03601e-05 
37 1 1.76068e-06 2.7e-05 4.72e-05 4.26e-05 
48 1 1.78164e-06 7.99e-06 3.1e-05 4.47e-05 
3 1 1.50915e-06 1.49e-05 2.95e-05 4.6e-05 
2 1 1.61395e-06 2.37e-05 2.94e-05 4.67e-05 
52 1 1.60773e-06 1.26688e-05 2.75526e-05 4.0645e-05 
36 1 1.87596e-06 4.4e-05 5.9e-05 2.41e-06 
7 1 1.54059e-06 2.13e-05 8.76e-05 6.35e-06 
19 1 1.59299e-06 2.39e-05 5.28e-05 1.64e-05 
6 1 1.59299e-06 3.42e-05 5.29e-05 1.65e-05 
46 1 1.54059e-06 2.26e-05 7.99e-05 1.7e-05 
5 1 1.56155e-06 1.89e-05 6.26e-05 1.79e-05 
28 1 1.51963e-06 3.99e-05 6.13e-05 1.98e-05 
10 1 1.54059e-06 4.36e-05 6.07e-05 2.43e-05 
27 1 1.70827e-06 1.32e-05 7.41e-05 3.85e-05 
9 1 1.88644e-06 8.42e-05 4.38e-05 5.9e-06 
4 1 1.79212e-06 6.86e-05 2.67e-05 8.62e-06 
30 1 1.79212e-06 5.66e-05 2.61e-05 1e-05 
34 1 1.61395e-06 9.65e-05 1.97e-05 1.61e-05 
29 1 1.48819e-06 7.24e-05 2.99e-05 1.76e-05 
25 1 1.92836e-06 9.34e-05 4.67e-05 2.39e-05 
31 1 1.88644e-06 6.06e-05 2.83e-05 3.26e-05 
17 1 1.59299e-06 6.55e-05 4.32e-06 4.41e-05 
32 1 1.70827e-06 6.46e-05 2.69e-06 4.53e-05 
39 1 1.67683e-06 6.81e-05 3.4e-05 4.62e-05 
21 1 1.55219e-06 8.32577e-05 9.03269e-06 4.64601e-05 
53 1 1.60773e-06 8.47688e-05 9.33259e-06 4.6745e-05 
13 1 1.56853e-06 7.06549e-05 7.98521e-05 2.60953e-06 
44 1 1.75019e-06 5.12e-05 7.52e-05 6.83e-06 
50 1 1.76067e-06 5.44e-05 7.19e-05 8.03e-06 
42 1 1.92836e-06 7.94e-05 6.3e-05 1.19e-05 
51 1 1.62466e-06 7.21718e-05 8.01532e-05 2.8955e-06 
22 1 1.81308e-06 6.28e-05 5.11e-05 2.8e-05 
24 1 1.53011e-06 8.05e-05 6.75e-05 3.49e-05 
45 1 1.78164e-06 8.19e-05 7.82e-05 3.64e-05 
43 1 1.9074e-06 8.16e-05 6.93e-05 3.75e-05 
35 1 1.84452e-06 6.34e-05 8.71e-05 4.59e-05 
ITEM: TIMESTEP
800
ITEM: NUMBER OF ATOMS
54
ITEM: BOX BOUNDS ff ff ff
0.0000000000000000e+00 1.0000000000000000e-04
0.0000000000000000e+00 1.0000000000000000e-04
0.0000000000000000e+00 5.0000000000000002e-05
ITEM: ATOMS id type diameter x y z 
1 1 1.48764e-06 3.78e-05 4.8e-05 1.65e-06 
33 1 1.90967e-06 4.58e-05 2.72e-05 2.12e-06 
49 1 1.81471e-06 2.71e-05 4.49e-05 2.12e-06 
15 1 1.78306e-06 3.92e-05 4.27e-05 7.52e-06 
40 1 1.68811e-06 2.31e-05 2.4e-05 9.33e-06 
41 1 1.5544e-06 4.43567e-05 3.34525e-05 1.26599e-05 
18 1 1.77251e-06 1.91e-05 4.55e-05 1.34e-05 
38 1 1.93077e-06 1.19e-05 2.59e-05 1.43e-05 
47 1 1.5615e-06 3.6e-05 1.39e-05 1.5e-05 
23 1 1.57205e-06 3.26e-05 2.19e-05 1.59e-05 
11 1 1.95187e-06 3.94e-05 2.27e-05 1.67e-05 
54 1 1.61002e-06 4.58699e-05 3.37528e-05 1.29452e-05 
16 1 1.87802e-06 4.81e-05 3.46e-05 2.47e-05 
14 1 1.63535e-06 2.43e-05 4.01e-05 2.9e-05 
8 1 1.75141e-06 2.97e-05 1.16e-05 3.02e-05 
12 1 1.89912e-06 7.55e-06 7.16e-06 3.28e-05 
20 1 1.81471e-06 2.28e-05 1.05e-05 3.77e-05 
26 1 1.56262e-06 1.11577e-05 2.72527e-05 4.03601e-05 
37 1 1.77251e-06 2.7e-05 4.72e-05 4.26e-05 
48 1 1.79361e-06 7.99e-06 3.1e-05 4.47e-05 
3 1 1.5193e-06 1.49e-05 2.95e-05 4.6e-05 
2 1 1.6248e-06 2.37e-05 2.94e-05 4.67e-05 
52 1 1.61854e-06 1.26688e-05 2.75526e-05 4.0645e-05 
36 1 1.88857e-06 4.4e-05 5.9e-05 2.41e-06 
7 1 1.55095e-06 2.13e-05 8.76e-05 6.35e-06 
19 1 1.6037e-06 2.39e-05 5.28e-05 1.64e-05 
6 1 1.6037e-06 3.42e-05 5.29e-05 1.65e-05 
46 1 1.55095e-06 2.26e-05 7.99e-05 1.7e-05 
5 1 1.57205e-06 1.89e-05 6.26e-05 1.79e-05 
28 1 1.52985e-06 3.99e-05 6.13e-05 1.98e-05 
10 1 1.55095e-06 4.36e-05 6.07e-05 2.43e-05 
27 1 1.71976e-06 1.32e-05 7.41e-05 3.85e-05 
9 1 1.89912e-06 8.42e-05 4.38e-05 5.9e-06 
4 1 1.80416e-06 6.86e-05 2.67e-05 8.62e-06 
30 1 1.80416e-06 5.66e-05 2.61e-05 1e-05 
34 1 1.6248e-06 9.65e-05 1.97e-05 1.61e-05 
29 1 1.49819e-06 7.24e-05 2.99e-05 1.76e-05 
25 1 1.94132e-06 9.34e-05 4.67e-05 2.39e-05 
31 1 1.89912e-06 6.06e-05 2.83e-05 3.26e-05 
17 1 1.6037e-06 6.55e-05 4.32e-06 4.41e-05 
32 1 1.71976e-06 6.46e-05 2.69e-06 4.53e-05 
39 1 1.68811e-06 6.81e-05 3.4e-05 4.62e-05 
21 1 1.56262e-06 8.32577e-05 9.03269e-06 4.64601e-05 
53 1 1.61854e-06 8.47688e-05 9.33259e-06 4.6745e-05 
13 1 1.57907e-06 7.06356e-05 7.98483e-05 2.60589e-06 
44 1 1.76196e-06 5.12e-05 7.52e-05 6.83e-06 
50 1 1.77251e-06 5.44e-05 7.19e-05 8.03e-06 
42 1 1.94132e-06 7.94e-05 6.3e-05 1.19e-05 
51 1 1.63558e-06 7.2191e-05 8.0157e-05 2.89913e-06 
22 1 1.82527e-06 6.28e-05 5.11e-05 2.8e-05 
24 1 1.5404e-06 8.05e-05 6.75e-05 3.49e-05 
45 1 1.79361e-06 8.19e-05 7.82e-05 3.64e-05 
43 1 1.92022e-06 8.16e-05 6.93e-05 3.75e-05 
35 1 1.85692e-06 6.34e-05 8.71e-05 4.59e-05 
ITEM: TIMESTEP
900
ITEM: NUMBER OF ATOMS
54
ITEM: BOX BOUNDS ff ff ff
0.0000000000000000e+00 1.0000000000000000e-04
0.0000000000000000e+00 1.0000000000000000e-04
0.0000000000000000e+00 5.0000000000000002e-05
ITEM: ATOMS id type diameter x y z 
1 1 1.49765e-06 3.78e-05 4.8e-05 1.65e-06 
33 1 1.92251e-06 4.58e-05 2.72e-05 2.12e-06 
49 1 1.82691e-06 2.71e-05 4.49e-05 2.12e-06 
15 1 1.79505e-06 3.92e-05 4.27e-05 7.52e-06 
40 1 1.69946e-06 2.31e-05 2.4e-05 9.33e-06 
41 1 1.56485e-06 4.43567e-05 3.34525e-05 1.26599e-05 
18 1 1.78443e-06 1.91e-05 4.55e-05 1.34e-05 
38 1 1.94375e-06 1.19e-05 2.59e-05 1.43e-05 
47 1 1.572e-06 3.6e-05 1.39e-05 1.5e-05 
23 1 1.58262e-06 3.26e-05 2.19e-05 1.59e-05 
11 1 1.965e-06 3.94e-05 2.27e-05 1.67e-05 
54 1 1.62085e-06 4.58699e-05 3.37528e-05 1.29452e-05 
16 1 1.89064e-06 4.81e-05 3.46e-05 2.47e-05 
14 1 1.64635e-06 2.43e-05 4.01e-05 2.9e-05 
8 1 1.76319e-06 2.97e-05 1.16e-05 3.02e-05 
12 1 1.91189e-06 7.55e-06 7.16e-06 3.28e-05 
20 1 1.82692e-06 2.28e-05 1.05e-05 3.77e-05 
26 1 1.57313e-06 1.11384e-05 2.72489e-05 4.03564e-05 
37 1 1.78443e-06 2.7e-05 4.72e-05 4.26e-05 
48 1 1.80567e-06 7.99e-06 3.1e-05 4.47e-05 
3 1 1.52951e-06 1.49e-05 2.95e-05 4.6e-05 
2 1 1.63573e-06 2.37e-05 2.94e-05 4.67e-05 
52 1 1.62942e-06 1.26881e-05 2.75564e-05 4.06486e-05 
36 1 1.90127e-06 4.4e-05 5.9e-05 2.41e-06 
7 1 1.56138e-06 2.13e-05 8.76e-05 6.35e-06 
19 1 1.61448e-06 2.39e-05 5.28e-05 1.64e-05 
6 1 1.61448e-06 3.42e-05 5.29e-05 1.65e-05 
46 1 1.56138e-06 2.26e-05 7.99e-05 1.7e-05 
5 1 1.58262e-06 1.89e-05 6.26e-05 1.79e-05 
28 1 1.54013e-06 3.99e-05 6.13e-05 1.98e-05 
10 1 1.56138e-06 4.36e-05 6.07e-05 2.43e-05 
27 1 1.73132e-06 1.32e-05 7.41e-05 3.85e-05 
9 1 1.91189e-06 8.42e-05 4.38e-05 5.9e-06 
4 1 1.81629e-06 6.86e-05 2.67e-05 8.62e-06 
30 1 1.81629e-06 5.66e-05 2.61e-05 1e-05 
34 1 1.63573e-06 9.65e-05 1.97e-05 1.61e-05 
29 1 1.50827e-06 7.24e-05 2.99e-05 1.76e-05 
25 1 1.95437e-06 9.34e-05 4.67e-05 2.39e-05 
31 1 1.91189e-06 6.06e-05 2.83e-05 3.26e-05 
17 1 1.61448e-06 6.55e-05 4.32e-06 4.41e-05 
32 1 1.73132e-06 6.46e-05 2.69e-06 4.53e-05 
39 1 1.69946e-06 6.81e-05 3.4e-05 4.62e-05 
21 1 1.57313e-06 8.32384e-05 9.02886e-06 4.64564e-05 
53 1 1.62942e-06 8.47881e-05 9.33641e-06 4.67486e-05 
13 1 1.58969e-06 7.06356e-05 7.98483e-05 2.60589e-06 
44 1 1.77381e-06 5.12e-05 7.52e-05 6.83e-06 
50 1 1.78443e-06 5.44e-05 7.19e-05 8.03e-06 
42 1 1.95437e-06 7.94e-05 6.3e-05 1.19e-05 
51 1 1.64657e-06 7.2191e-05 8.0157e-05 2.89913e-06 
22 1 1.83754e-06 6.28e-05 5.11e-05 2.8e-05 
24 1 1.55075e-06 8.05e-05 6.75e-05 3.49e-05 
45 1 1.80567e-06 8.19e-05 7.82e-05 3.64e-05 
43 1 1.93313e-06 8.16e-05 6.93e-05 3.75e-05 
35 1 1.8694e-06 6.34e-05 8.71e-05 4.59e-05 
ITEM: TIMESTEP
1000
ITEM: NUMBER OF ATOMS
55
ITEM: BOX BOUNDS ff ff ff
0.0000000000000000e+00 1.0000000000000000e-04
0.0000000000000000e+00 1.0000000000000000e-04
0.0000000000000000e+00 5.0000000000000002e-05
ITEM: ATOMS id type diameter x y z 
1 1 1.50771e-06 3.78e-05 4.8e-05 1.65e-06 
33 1 1.93543e-06 4.58e-05 2.72e-05 2.12e-06 
49 1 1.8392e-06 2.71e-05 4.49e-05 2.12e-06 
15 1 1.80712e-06 3.92e-05 4.27e-05 7.52e-06 
40 1 1.71088e-06 2.31e-05 2.4e-05 9.33e-06 
41 1 1.57537e-06 4.43374e-05 3.34486e-05 1.26562e-05 
54 1 1.63174e-06 4.58892e-05 3.37566e-05 1.29488e-05 
18 1 1.79643e-06 1.91e-05 4.55e-05 1.34e-05 
38 1 1.95682e-06 1.19e-05 2.59e-05 1.43e-05 
47 1 1.58257e-06 3.6e-05 1.39e-05 1.5e-05 
23 1 1.59326e-06 3.26e-05 2.19e-05 1.59e-05 
11 1 1.62219e-06 3.9456e-05 2.33465e-05 1.62158e-05 
55 1 1.51431e-06 3.93477e-05 2.20964e-05 1.7152e-05 
16 1 1.90336e-06 4.81e-05 3.46e-05 2.47e-05 
14 1 1.65742e-06 2.43e-05 4.01e-05 2.9e-05 
8 1 1.77504e-06 2.97e-05 1.16e-05 3.02e-05 
12 1 1.92474e-06 7.55e-06 7.16e-06 3.28e-05 
20 1 1.8392e-06 2.28e-05 1.05e-05 3.77e-05 
26 1 1.5837e-06 1.11384e-05 2.72489e-05 4.03564e-05 
52 1 1.64038e-06 1.26881e-05 2.75564e-05 4.06486e-05 
37 1 1.79643e-06 2.7e-05 4.72e-05 4.26e-05 
48 1 1.81781e-06 7.99e-06 3.1e-05 4.47e-05 
3 1 1.53979e-06 1.49e-05 2.95e-05 4.6e-05 
2 1 1.64672e-06 2.37e-05 2.94e-05 4.67e-05 
36 1 1.91405e-06 4.4e-05 5.9e-05 2.41e-06 
7 1 1.57187e-06 2.13e-05 8.76e-05 6.35e-06 
19 1 1.62534e-06 2.39e-05 5.28e-05 1.64e-05 
6 1 1.62534e-06 3.42e-05 5.29e-05 1.65e-05 
46 1 1.57187e-06 2.26e-05 7.99e-05 1.7e-05 
5 1 1.59326e-06 1.89e-05 6.26e-05 1.79e-05 
28 1 1.55049e-06 3.99e-05 6.13e-05 1.98e-05 
10 1 1.57187e-06 4.36e-05 6.07e-05 2.43e-05 
27 1 1.74296e-06 1.32e-05 7.41e-05 3.85e-05 
9 1 1.92474e-06 8.42e-05 4.38e-05 5.9e-06 
4 1 1.8285e-06 6.86e-05 2.67e-05 8.62e-06 
30 1 1.8285e-06 5.66e-05 2.61e-05 1e-05 
34 1 1.64672e-06 9.65e-05 1.97e-05 1.61e-05 
29 1 1.51841e-06 7.24e-05 2.99e-05 1.76e-05 
25 1 1.96751e-06 9.34e-05 4.67e-05 2.39e-05 
31 1 1.92474e-06 6.06e-05 2.83e-05 3.26e-05 
17 1 1.62534e-06 6.55e-05 4.32e-06 4.41e-05 
32 1 1.74296e-06 6.46e-05 2.69e-06 4.53e-05 
21 1 1.5837e-06 8.32384e-05 9.02886e-06 4.64564e-05 
39 1 1.71088e-06 6.81e-05 3.4e-05 4.62e-05 
53 1 1.64038e-06 8.47881e-05 9.33641e-06 4.67486e-05 
13 1 1.60037e-06 7.06356e-05 7.98483e-05 2.60589e-06 
51 1 1.65764e-06 7.2191e-05 8.0157e-05 2.89913e-06 
44 1 1.78573e-06 5.12e-05 7.52e-05 6.83e-06 
50 1 1.79643e-06 5.44e-05 7.19e-05 8.03e-06 
42 1 1.96751e-06 7.94e-05 6.3e-05 1.19e-05 
22 1 1.84989e-06 6.28e-05 5.11e-05 2.8e-05 
24 1 1.56118e-06 8.05e-05 6.75e-05 3.49e-05 
45 1 1.81781e-06 8.19e-05 7.82e-05 3.64e-05 
43 1 1.94613e-06 8.16e-05 6.93e-05 3.75e-05 
35 1 1.88197e-06 6.34e-05 8.71e-05 4.59e-05 
ITEM: TIMESTEP
1100
ITEM: NUMBER OF ATOMS
57
ITEM: BOX BOUNDS ff ff ff
0.0000000000000000e+00 1.0000000000000000e-04
0.0000000000000000e+00 1.0000000000000000e-04
0.0000000000000000e+00 5.0000000000000002e-05
ITEM: ATOMS id type diameter x y z 
1 1 1.51785e-06 3.78e-05 4.8e-05 1.65e-06 
33 1 1.94845e-06 4.58e-05 2.72e-05 2.12e-06 
49 1 1.85156e-06 2.71e-05 4.49e-05 2.12e-06 
15 1 1.81927e-06 3.92e-05 4.27e-05 7.52e-06 
40 1 1.72238e-06 2.31e-05 2.4e-05 9.33e-06 
41 1 1.58596e-06 4.43374e-05 3.34486e-05 1.26562e-05 
54 1 1.64271e-06 4.58892e-05 3.37566e-05 1.29488e-05 
18 1 1.8085e-06 1.91e-05 4.55e-05 1.34e-05 
38 1 1.96998e-06 1.19e-05 2.59e-05 1.43e-05 
47 1 1.5932e-06 3.6e-05 1.39e-05 1.5e-05 
23 1 1.60397e-06 3.26e-05 2.19e-05 1.59e-05 
11 1 1.63309e-06 3.9456e-05 2.33465e-05 1.62158e-05 
55 1 1.52449e-06 3.93477e-05 2.20964e-05 1.7152e-05 
16 1 1.91615e-06 4.81e-05 3.46e-05 2.47e-05 
14 1 1.66856e-06 2.43e-05 4.01e-05 2.9e-05 
8 1 1.78697e-06 2.97e-05 1.16e-05 3.02e-05 
12 1 1.93768e-06 7.55e-06 7.16e-06 3.28e-05 
20 1 1.85156e-06 2.28e-05 1.05e-05 3.77e-05 
26 1 1.59435e-06 1.11384e-05 2.72489e-05 4.03564e-05 
52 1 1.65141e-06 1.26881e-05 2.75564e-05 4.06486e-05 
37 1 1.8085e-06 2.7e-05 4.72e-05 4.26e-05 
48 1 1.83003e-06 7.99e-06 3.1e-05 4.47e-05 
3 1 1.55015e-06 1.49e-05 2.95e-05 4.6e-05 
2 1 1.65779e-06 2.37e-05 2.94e-05 4.67e-05 
36 1 1.92692e-06 4.4e-05 5.9e-05 2.41e-06 
7 1 1.58244e-06 2.13e-05 8.76e-05 6.35e-06 
19 1 1.63626e-06 2.39e-05 5.28e-05 1.64e-05 
6 1 1.63626e-06 3.42e-05 5.29e-05 1.65e-05 
46 1 1.58244e-06 2.26e-05 7.99e-05 1.7e-05 
5 1 1.60397e-06 1.89e-05 6.26e-05 1.79e-05 
28 1 1.56091e-06 3.99e-05 6.13e-05 1.98e-05 
10 1 1.58244e-06 4.36e-05 6.07e-05 2.43e-05 
27 1 1.75468e-06 1.32e-05 7.41e-05 3.85e-05 