LAMMPS (20 Nov 2019)
Reading data file ...
  orthogonal box = (0 0 0) to (0.001 0.001 0.0001)
  2 by 3 by 1 MPI processor grid
  reading atoms ...
  2 atoms
  4 nutrients
Lattice spacing in x,y,z = 100 100 100
1 atoms in group CYANO
1 atoms in group ECW
Model is defined as a closed system. 
Neighbor list info ...
  update every 1 steps, delay 0 steps, check yes
  max neighbors/atom: 5000, page size: 100000
  master list distance cutoff = 1.89e-06
  ghost atom cutoff = 1.89e-06
  binsize = 9.45e-07, bins = 1059 1059 106
  1 neighbor lists, perpetual/occasional/extra = 1 0 0
  (1) pair gran/hooke/history, perpetual
      attributes: half, newton off, size, history
      pair build: half/size/bin/newtoff
      stencil: half/bin/3d/newtoff
      bin: standard
Setting up Verlet run ...
  Unit style    : lj
  Current step  : 0
  Time step     : 10
Per MPI rank memory allocation (min/avg/max) = 84.25 | 92.35 | 108.5 Mbytes
Step CPU Atoms c_myNtypes[1] c_myNtypes[2] c_myMass[1] c_myMass[2] c_myCon[1] c_myCon[2] c_myCon[3] c_myCon[4] 
       0            0        2            1            1 5.2028912e-16 1.3941014e-16          0.1        0.009     3.42e-20       0.0299 
number of iterations: 578272 
     100    3.4152852        3            1            2 5.2906587e-16 1.3929094e-16          0.1 0.0090000007 2.9740406e-08  0.029899999 
number of iterations: 265338 
     200    4.9978237        3            1            2 5.3799066e-16 1.3917185e-16          0.1 0.0090000007 1.2274058e-07  0.029899999 
number of iterations: 172173 
     300    6.0149556        3            1            2 5.4706601e-16 1.3905286e-16          0.1 0.0090000007 2.679228e-07  0.029899999 
number of iterations: 147090 
     400    6.9331309        3            1            2 5.5629445e-16 1.3893397e-16          0.1 0.0090000007 4.3528826e-07  0.029899999 
number of iterations: 128084 
     500    7.7527082        3            1            2 5.6567857e-16 1.3881518e-16          0.1 0.0090000007 6.2301935e-07  0.029899999 
number of iterations: 113082 
     600    8.5057506        3            1            2 5.7522099e-16 1.3869649e-16          0.1 0.0090000008 8.2966391e-07  0.029899999 
number of iterations: 100862 
     700    9.1874971        3            1            2 5.8492437e-16 1.3857791e-16          0.1 0.0090000008 1.054064e-06  0.029899999 
number of iterations: 90654 
     800     9.776546        3            1            2 5.9479144e-16 1.3845943e-16          0.1 0.0090000008 1.2952991e-06  0.029899999 
number of iterations: 81956 
     900    10.369846        3            1            2 6.0482496e-16 1.3834105e-16          0.1 0.0090000008 1.5526291e-06  0.029899999 
number of iterations: 74424 
    1000    11.306855        3            1            2 6.1502774e-16 1.3822277e-16          0.1 0.0090000008 1.8254563e-06  0.029899999 
number of iterations: 67811 
    1100    11.793013        3            1            2 6.2540263e-16 1.3810459e-16          0.1 0.0090000008 2.1133007e-06  0.029899999 
number of iterations: 61944 
    1200    12.234975        3            1            2 6.3595252e-16 1.3798652e-16          0.1 0.0090000008 2.4157661e-06  0.029899999 
number of iterations: 56688 
    1300    12.652565        3            1            2 6.4668039e-16 1.3786855e-16          0.1 0.0090000009 2.7325327e-06  0.029899999 
number of iterations: 51940 
    1400    13.035348        3            1            2 6.5758922e-16 1.3775068e-16          0.1 0.0090000009 3.0633443e-06  0.029899999 
number of iterations: 47623 
    1500    13.403186        3            1            2 6.6868208e-16 1.3763291e-16          0.1 0.0090000009 3.4079913e-06  0.029899999 
number of iterations: 43672 
    1600    13.760091        3            1            2 6.7996206e-16 1.3751524e-16          0.1 0.0090000009 3.7663111e-06  0.029899999 
number of iterations: 40040 
    1700    14.118127        3            1            2 6.9143232e-16 1.3739767e-16          0.1 0.0090000009 4.1381706e-06  0.029899999 
number of iterations: 36682 
    1800    14.446395        3            1            2 7.0309607e-16 1.3728021e-16          0.1 0.0090000009 4.5234761e-06  0.029899998 
number of iterations: 33567 
    1900    14.744483        3            1            2 7.1495658e-16 1.3716284e-16          0.1  0.009000001 4.9221553e-06  0.029899998 
number of iterations: 30666 
    2000    15.451072        3            1            2 7.2701716e-16 1.3704558e-16          0.1  0.009000001 5.3341611e-06  0.029899998 
number of iterations: 27955 
    2100    15.739822        3            1            2 7.3928119e-16 1.3692842e-16          0.1  0.009000001 5.7594685e-06  0.029899998 
number of iterations: 25415 
    2200    16.002308        3            1            2 7.517521e-16 1.3681136e-16          0.1  0.009000001 6.1980686e-06  0.029899998 
number of iterations: 23027 
    2300    16.311232        3            1            2 7.6443339e-16 1.366944e-16          0.1  0.009000001 6.6499738e-06  0.029899998 
number of iterations: 20777 
    2400    16.580543        3            1            2 7.773286e-16 1.3657754e-16          0.1  0.009000001 7.1152098e-06  0.029899998 
number of iterations: 18653 
    2500    16.811391        3            1            2 7.9044133e-16 1.3646078e-16          0.1 0.0090000011 7.5938146e-06  0.029899998 
number of iterations: 16643 
    2600    17.015595        3            1            2 8.0377526e-16 1.3634412e-16          0.1 0.0090000011 8.0858406e-06  0.029899998 
number of iterations: 14738 
    2700    17.210142        3            1            2 8.1733412e-16 1.3622757e-16          0.1 0.0090000011 8.5913503e-06  0.029899998 
number of iterations: 12927 
    2800    17.393864        3            1            2 8.3112171e-16 1.3611111e-16          0.1 0.0090000011 9.1104236e-06  0.029899998 
number of iterations: 11206 
    2900    17.589048        3            1            2 8.4514188e-16 1.3599476e-16          0.1 0.0090000011 9.6431406e-06  0.029899998 
number of iterations: 9565 
    3000    18.248801        3            1            2 8.5939855e-16 1.3587851e-16          0.1 0.0090000012  1.01896e-05  0.029899998 
number of iterations: 8000 
    3100    18.418118        3            1            2 8.7389572e-16 1.3576235e-16          0.1 0.0090000012 1.0749904e-05  0.029899998 
number of iterations: 7626 
    3200    18.575075        3            1            2 8.8863745e-16 1.356463e-16          0.1 0.0090000012 1.1324167e-05  0.029899998 
number of iterations: 7710 
    3300    18.740095        3            1            2 9.0362785e-16 1.3553035e-16          0.1 0.0090000012 1.1912508e-05  0.029899998 
number of iterations: 7795 
    3400    18.895495        3            1            2 9.1887112e-16 1.354145e-16          0.1 0.0090000012 1.2515057e-05  0.029899998 
number of iterations: 7879 
    3500    19.053935        3            1            2 9.3437153e-16 1.3529875e-16          0.1 0.0090000013 1.3131948e-05  0.029899998 
number of iterations: 7965 
    3600    19.199784        3            1            2 9.5013342e-16 1.351831e-16          0.1 0.0090000013 1.3763325e-05  0.029899998 
number of iterations: 8052 
    3700    19.328454        3            1            2 9.6616119e-16 1.3506755e-16          0.1 0.0090000013 1.4409069e-05  0.029899998 
number of iterations: 8138 
    3800    19.463024        3            1            2 9.8245934e-16 1.349521e-16          0.1 0.0090000013 1.5065705e-05  0.029899998 
number of iterations: 8226 
    3900    19.601949        3            1            2 9.9903241e-16 1.3483675e-16          0.1 0.0090000013 1.5733417e-05  0.029899998 
number of iterations: 8314 
    4000    20.164811        3            1            2 1.0158851e-15 1.347215e-16          0.1 0.0090000014 1.6412394e-05  0.029899998 
number of iterations: 8402 
    4100    20.313683        3            1            2 1.033022e-15 1.3460635e-16          0.1 0.0090000014 1.7102824e-05  0.029899998 
number of iterations: 8491 
    4200    20.467974        3            1            2 1.050448e-15 1.344913e-16          0.1 0.0090000014 1.7804901e-05  0.029899998 
number of iterations: 8581 
    4300    20.629782        3            1            2 1.068168e-15 1.3437635e-16          0.1 0.0090000014 1.8518821e-05  0.029899998 
number of iterations: 8671 
    4400    20.789051        3            1            2 1.0861869e-15 1.342615e-16          0.1 0.0090000015 1.9244784e-05  0.029899998 
number of iterations: 8762 
    4500    20.944829        3            1            2 1.1045097e-15 1.3414675e-16          0.1 0.0090000015 1.9982993e-05  0.029899998 
number of iterations: 8853 
    4600    21.097338        3            1            2 1.1231417e-15 1.340321e-16          0.1 0.0090000015 2.0733656e-05  0.029899998 
number of iterations: 8945 
    4700    21.248603        3            1            2 1.1420879e-15 1.3391754e-16          0.1 0.0090000015 2.1496981e-05  0.029899997 
number of iterations: 9038 
    4800    21.424627        3            1            2 1.1613538e-15 1.3380309e-16          0.1 0.0090000016 2.2273182e-05  0.029899997 
number of iterations: 9131 
    4900    21.583964        3            1            2 1.1809446e-15 1.3368874e-16          0.1 0.0090000016 2.3062478e-05  0.029899997 
number of iterations: 9224 
    5000     22.19234        3            1            2 1.200866e-15 1.3357449e-16          0.1 0.0090000016 2.3865088e-05  0.029899997 
number of iterations: 9318 
    5100    22.341088        3            1            2 1.2211233e-15 1.3346034e-16          0.1 0.0090000016 2.4681237e-05  0.029899997 
number of iterations: 9413 
    5200    22.490183        3            1            2 1.2417224e-15 1.3334628e-16          0.1 0.0090000017 2.5511153e-05  0.029899997 
number of iterations: 9508 
    5300    22.655518        3            1            2 1.262669e-15 1.3323233e-16          0.1 0.0090000017 2.635507e-05  0.029899997 
number of iterations: 9604 
    5400    22.819255        3            1            2 1.2839689e-15 1.3311847e-16          0.1 0.0090000017 2.7213222e-05  0.029899997 
number of iterations: 9701 
    5500    22.973818        3            1            2 1.3056282e-15 1.3300472e-16          0.1 0.0090000018 2.8085851e-05  0.029899997 
number of iterations: 9797 
    5600    23.116491        3            1            2 1.3276528e-15 1.3289106e-16          0.1 0.0090000018 2.8973204e-05  0.029899997 
number of iterations: 9895 
    5700    23.288306        3            1            2 1.3500489e-15 1.3277751e-16          0.1 0.0090000018 2.9875527e-05  0.029899997 
number of iterations: 9993 
    5800    23.438392        3            1            2 1.3728228e-15 1.3266405e-16          0.1 0.0090000019 3.079307e-05  0.029899997 
number of iterations: 10092 
    5900    23.591949        3            1            2 1.395981e-15 1.3255069e-16          0.1 0.0090000019 3.1726091e-05  0.029899997 
number of iterations: 10191 
    6000    24.196446        3            1            2 1.4195297e-15 1.3243743e-16          0.1 0.0090000019 3.2674852e-05  0.029899997 
number of iterations: 10290 
    6100    24.353732        3            1            2 1.4434757e-15 1.3232427e-16          0.1  0.009000002 3.3639617e-05  0.029899997 
number of iterations: 10391 
    6200    24.503308        3            1            2 1.4678257e-15 1.322112e-16          0.1  0.009000002 3.4620657e-05  0.029899997 
number of iterations: 29889 
    6300    24.840066        4            2            2 1.4925864e-15 1.3209824e-16          0.1 0.0090000019 3.5618243e-05  0.029899997 
number of iterations: 5949 
    6400    24.954368        4            2            2 1.5177648e-15 1.3198537e-16          0.1 0.0090000019 3.6632657e-05  0.029899997 
number of iterations: 7300 
    6500    25.074298        4            2            2 1.5433679e-15 1.3187261e-16          0.1 0.0090000019 3.7664184e-05  0.029899997 
number of iterations: 7680 
    6600    25.197197        4            2            2 1.5694029e-15 1.3175994e-16          0.1  0.009000002 3.8713111e-05  0.029899997 
number of iterations: 8011 
    6700     25.32906        4            2            2 1.5958772e-15 1.3164737e-16          0.1  0.009000002 3.9779733e-05  0.029899997 
number of iterations: 8444 
    6800    25.450894        4            2            2 1.622798e-15 1.315349e-16          0.1  0.009000002 4.0864347e-05  0.029899997 
number of iterations: 8572 
    6900    25.576211        4            2            2 1.6501729e-15 1.3142253e-16          0.1 0.0090000021 4.1967258e-05  0.029899997 
number of iterations: 8682 
    7000    26.116747        4            2            2 1.6780096e-15 1.3131026e-16          0.1 0.0090000021 4.3088774e-05  0.029899997 
number of iterations: 8787 
    7100    26.258892        4            2            2 1.7063159e-15 1.3119808e-16          0.1 0.0090000021 4.4229208e-05  0.029899997 
number of iterations: 8887 
    7200     26.39527        4            2            2 1.7350997e-15  1.31086e-16          0.1 0.0090000022 4.5388881e-05  0.029899996 
number of iterations: 8986 
    7300     26.53222        4            2            2 1.7643691e-15 1.3097402e-16          0.1 0.0090000022 4.6568116e-05  0.029899996 
number of iterations: 9086 
    7400    26.670988        4            2            2 1.7941321e-15 1.3086214e-16          0.1 0.0090000022 4.7767243e-05  0.029899996 
number of iterations: 9185 
    7500    26.816013        4            2            2 1.8243973e-15 1.3075036e-16          0.1 0.0090000023 4.8986598e-05  0.029899996 
number of iterations: 9285 
    7600    26.962192        4            2            2 1.855173e-15 1.3063868e-16          0.1 0.0090000023 5.0226523e-05  0.029899996 
number of iterations: 9385 
    7700    27.107204        4            2            2 1.8864679e-15 1.3052709e-16          0.1 0.0090000024 5.1487364e-05  0.029899996 
number of iterations: 9487 
    7800    27.245592        4            2            2 1.9182906e-15 1.304156e-16          0.1 0.0090000024 5.2769474e-05  0.029899996 
number of iterations: 9588 
    7900    27.403708        4            2            2 1.9506502e-15 1.3030421e-16          0.1 0.0090000024 5.4073212e-05  0.029899996 
number of iterations: 9690 
    8000     28.00585        4            2            2 1.9835557e-15 1.3019292e-16          0.1 0.0090000025 5.5398942e-05  0.029899996 
number of iterations: 9793 
    8100    28.164978        4            2            2 2.0170162e-15 1.3008173e-16          0.1 0.0090000025 5.6747036e-05  0.029899996 
number of iterations: 9897 
    8200    28.319016        4            2            2 2.0510412e-15 1.2997063e-16          0.1 0.0090000026 5.8117871e-05  0.029899996 
number of iterations: 10001 
    8300    28.475578        4            2            2 2.0856402e-15 1.2985963e-16          0.1 0.0090000026 5.9511831e-05  0.029899996 
number of iterations: 10106 
    8400    28.634656        4            2            2 2.1208228e-15 1.2974873e-16          0.1 0.0090000027 6.0929305e-05  0.029899996 
number of iterations: 10211 
    8500    28.805732        4            2            2 2.1565989e-15 1.2963793e-16          0.1 0.0090000027 6.2370691e-05  0.029899996 
number of iterations: 10317 
    8600    28.962442        4            2            2 2.1929785e-15 1.2952723e-16          0.1 0.0090000027 6.3836391e-05  0.029899996 
number of iterations: 10424 
    8700    29.105142        4            2            2 2.2299718e-15 1.2941662e-16          0.1 0.0090000028 6.5326817e-05  0.029899995 
number of iterations: 10532 
    8800    29.261275        4            2            2 2.2675891e-15 1.2930611e-16          0.1 0.0090000028 6.6842384e-05  0.029899995 
number of iterations: 10640 
    8900    29.398637        4            2            2 2.305841e-15 1.291957e-16          0.1 0.0090000029 6.8383517e-05  0.029899995 
number of iterations: 10748 
    9000     29.98845        4            2            2 2.3447382e-15 1.2908538e-16          0.1 0.0090000029 6.9950647e-05  0.029899995 
number of iterations: 10858 
    9100    30.141098        4            2            2 2.3842915e-15 1.2897517e-16          0.1  0.009000003 7.1544214e-05  0.029899995 
number of iterations: 10968 
    9200    30.303075        4            2            2 2.4245121e-15 1.2886505e-16          0.1  0.009000003 7.3164662e-05  0.029899995 
number of iterations: 11078 
    9300    30.471728        4            2            2 2.4654111e-15 1.2875503e-16          0.1 0.0090000031 7.4812445e-05  0.029899995 
number of iterations: 11190 
    9400    30.628286        4            2            2    2.507e-15 1.286451e-16          0.1 0.0090000031 7.6488025e-05  0.029899995 
number of iterations: 11301 
    9500    30.789312        4            2            2 2.5492905e-15 1.2853528e-16          0.1 0.0090000032 7.819187e-05  0.029899995 
number of iterations: 11414 
    9600     30.96667        4            2            2 2.5922945e-15 1.2842555e-16          0.1 0.0090000033 7.9924457e-05  0.029899995 
number of iterations: 11527 
    9700    31.140991        4            2            2 2.6360238e-15 1.2831591e-16          0.1 0.0090000033 8.1686271e-05  0.029899995 
number of iterations: 11641 
    9800    31.315697        4            2            2 2.6804908e-15 1.2820638e-16          0.1 0.0090000034 8.3477805e-05  0.029899994 
number of iterations: 11755 
    9900    31.495608        4            2            2 2.7257079e-15 1.2809694e-16          0.1 0.0090000034 8.5299561e-05  0.029899994 
number of iterations: 11870 
   10000    32.112921        4            2            2 2.7716878e-15 1.279876e-16          0.1 0.0090000035 8.7152047e-05  0.029899994 
number of iterations: 11986 
   10100    32.275857        4            2            2 2.8184433e-15 1.2787836e-16          0.1 0.0090000035 8.9035783e-05  0.029899994 
number of iterations: 12102 
   10200    32.438626        4            2            2 2.8659876e-15 1.2776922e-16          0.1 0.0090000036 9.0951296e-05  0.029899994 
number of iterations: 30593 
   10300    32.791663        5            3            2 2.9143338e-15 1.2766017e-16          0.1 0.0090000036 9.2899118e-05  0.029899994 
number of iterations: 12398 
   10400    32.981486        5            3            2 2.9634957e-15 1.2755122e-16          0.1 0.0090000036 9.4879799e-05  0.029899994 
number of iterations: 13263 
   10500    33.157185        5            3            2 3.0134868e-15 1.2744237e-16          0.1 0.0090000036 9.6893891e-05  0.029899994 
number of iterations: 31703 
   10600     33.54298        6            4            2 3.0643212e-15 1.2733361e-16          0.1 0.0090000038 9.8941961e-05  0.029899994 
number of iterations: 11902 
   10700     33.73942        6            4            2 3.1160131e-15 1.2722495e-16          0.1 0.0090000039 0.00010102458  0.029899994 
number of iterations: 12348 
   10800    33.934459        6            4            2 3.1685771e-15 1.2711639e-16          0.1 0.0090000039 0.00010314233  0.029899993 
number of iterations: 12690 
   10900     34.13008        6            4            2 3.2220277e-15 1.2700792e-16          0.1  0.009000004 0.00010529581  0.029899993 
number of iterations: 12859 
   11000    34.792092        6            4            2  3.27638e-15 1.2689956e-16          0.1 0.0090000041 0.00010748561  0.029899993 
number of iterations: 12974 
   11100     34.98494        6            4            2 3.3316492e-15 1.2679129e-16          0.1 0.0090000042 0.00010971235  0.029899993 
number of iterations: 13090 
   11200    35.182229        6            4            2 3.3878507e-15 1.2668311e-16          0.1 0.0090000042 0.00011197665  0.029899993 
number of iterations: 13208 
   11300    35.362492        6            4            2 3.4450002e-15 1.2657504e-16          0.1 0.0090000043 0.00011427916  0.029899993 
number of iterations: 13326 
   11400     35.59161        6            4            2 3.5031138e-15 1.2646706e-16          0.1 0.0090000044 0.0001166205  0.029899993 
number of iterations: 13445 
   11500    35.800655        6            4            2 3.5622078e-15 1.2635918e-16          0.1 0.0090000044 0.00011900134  0.029899993 
number of iterations: 13564 
   11600    35.997562        6            4            2 3.6222985e-15 1.2625139e-16          0.1 0.0090000045 0.00012142234  0.029899993 
number of iterations: 13684 
   11700    36.238499        6            4            2 3.683403e-15 1.261437e-16          0.1 0.0090000046 0.00012388418  0.029899992 
number of iterations: 13804 
   11800    36.445209        6            4            2 3.7455382e-15 1.2603611e-16          0.1 0.0090000047 0.00012638754  0.029899992 
number of iterations: 13925 
   11900    36.647512        6            4            2 3.8087216e-15 1.2592862e-16          0.1 0.0090000048 0.00012893314  0.029899992 
number of iterations: 14046 
   12000    37.320168        6            4            2 3.8729708e-15 1.2582122e-16          0.1 0.0090000048 0.00013152168  0.029899992 
number of iterations: 14168 
   12100    37.531291        6            4            2 3.9383038e-15 1.2571392e-16          0.1 0.0090000049 0.00013415389  0.029899992 
number of iterations: 14290 
   12200    37.723387        6            4            2 4.004739e-15 1.2560672e-16          0.1  0.009000005 0.00013683049  0.029899992 
number of iterations: 14413 
   12300    37.912966        6            4            2 4.0722948e-15 1.2549961e-16          0.1 0.0090000051 0.00013955225  0.029899992 
number of iterations: 14537 
   12400    38.109883        6            4            2 4.1409902e-15 1.2539261e-16          0.1 0.0090000052 0.00014231993  0.029899991 
number of iterations: 14660 
   12500     38.31346        6            4            2 4.2108445e-15 1.252857e-16          0.1 0.0090000053 0.00014513429  0.029899991 
number of iterations: 14785 
   12600    38.520141        6            4            2 4.2818771e-15 1.2517888e-16          0.1 0.0090000054 0.00014799612  0.029899991 
number of iterations: 14909 
   12700     38.74546        6            4            2 4.3541079e-15 1.2507216e-16          0.1 0.0090000054 0.00015090624  0.029899991 
number of iterations: 15035 
   12800    38.977371        6            4            2 4.4275573e-15 1.2496554e-16          0.1 0.0090000055 0.00015386544  0.029899991 
number of iterations: 15160 
   12900    39.207506        6            4            2 4.5022456e-15 1.2485902e-16          0.1 0.0090000056 0.00015687456  0.029899991 
number of iterations: 15286 
   13000    39.905056        6            4            2 4.5781938e-15 1.2475259e-16          0.1 0.0090000057 0.00015993444  0.029899991 
number of iterations: 15413 
   13100    40.114024        6            4            2 4.6554233e-15 1.2464627e-16          0.1 0.0090000058 0.00016304594   0.02989999 
number of iterations: 15540 
   13200    40.324981        6            4            2 4.7339555e-15 1.2454003e-16          0.1 0.0090000059 0.00016620993   0.02989999 
number of iterations: 15667 
   13300    40.531202        6            4            2 4.8138124e-15 1.244339e-16          0.1  0.009000006 0.00016942729   0.02989999 
number of iterations: 15795 
   13400    40.743308        6            4            2 4.8950165e-15 1.2432786e-16          0.1 0.0090000061 0.00017269892   0.02989999 
number of iterations: 15924 
   13500    40.936732        6            4            2 4.9775904e-15 1.2422192e-16          0.1 0.0090000062 0.00017602574   0.02989999 
number of iterations: 16053 
   13600    41.135961        6            4            2 5.0615572e-15 1.2411608e-16          0.1 0.0090000063 0.00017940869   0.02989999 
number of iterations: 16182 
   13700    41.325675        6            4            2 5.1469405e-15 1.2401033e-16          0.1 0.0090000064 0.0001828487  0.029899989 
number of iterations: 16312 
   13800    41.542647        7            5            2 5.2337641e-15 1.2390469e-16          0.1 0.0090000066 0.00018634674  0.029899989 
number of iterations: 16442 
   13900    41.751289        7            5            2 5.3220523e-15 1.2379913e-16          0.1 0.0090000067 0.00018990378  0.029899989 
number of iterations: 16572 
   14000    42.373507        7            5            2 5.4118298e-15 1.2369368e-16          0.1 0.0090000068 0.00019352083  0.029899989 
number of iterations: 16704 
   14100    42.571786        7            5            2 5.5031218e-15 1.2358832e-16          0.1 0.0090000069 0.0001971989  0.029899989 
number of iterations: 16835 
   14200    42.779282        7            5            2 5.5959538e-15 1.2348306e-16          0.1  0.009000007 0.00020093901  0.029899988 
number of iterations: 16967 
   14300    42.976229        8            6            2 5.6903518e-15 1.233779e-16          0.1 0.0090000071 0.00020474222  0.029899988 
number of iterations: 17099 
   14400    43.181282        8            6            2 5.7863422e-15 1.2327284e-16          0.1 0.0090000072 0.00020860958  0.029899988 
number of iterations: 17233 
   14500    43.389129        8            6            2 5.8839518e-15 1.2316787e-16          0.1 0.0090000074 0.00021254218  0.029899988 
number of iterations: 17375 
   14600      43.6201        8            6            2 5.983208e-15  1.23063e-16          0.1 0.0090000075 0.00021654111  0.029899988 
number of iterations: 17516 
   14700    43.834458        8            6            2 6.0841386e-15 1.2295823e-16          0.1 0.0090000076 0.00022060751  0.029899987 
number of iterations: 17658 
   14800    44.065936        8            6            2 6.1867717e-15 1.2285356e-16          0.1 0.0090000078 0.0002247425  0.029899987 
number of iterations: 17799 
   14900    44.290838        8            6            2 6.2911362e-15 1.2274898e-16          0.1 0.0090000079 0.00022894724  0.029899987 
number of iterations: 17942 
   15000    44.919503        8            6            2 6.3972612e-15 1.226445e-16          0.1  0.009000008 0.00023322292  0.029899987 
number of iterations: 18084 
   15100    45.143591        9            7            2 6.5051764e-15 1.2254012e-16          0.1 0.0090000082 0.00023757072  0.029899987 
number of iterations: 18228 
   15200    45.367012       10            8            2 6.6149121e-15 1.2243584e-16          0.1 0.0090000083 0.00024199186  0.029899986 
number of iterations: 18371 
   15300    45.590899       10            8            2 6.7264988e-15 1.2233165e-16          0.1 0.0090000084 0.00024648758  0.029899986 
number of iterations: 18516 
   15400    45.811388       10            8            2 6.8399679e-15 1.2222756e-16          0.1 0.0090000086 0.00025105915  0.029899986 
number of iterations: 18660 
   15500     46.02617       10            8            2 6.9553511e-15 1.2212357e-16          0.1 0.0090000087 0.00025570782  0.029899986 
number of iterations: 18806 
   15600    46.234882       10            8            2 7.0726808e-15 1.2201968e-16          0.1 0.0090000089 0.00026043492  0.029899985 
number of iterations: 18951 
   15700    46.462357       10            8            2 7.1919896e-15 1.2191589e-16          0.1  0.009000009 0.00026524176  0.029899985 
number of iterations: 19097 
   15800    46.696507       10            8            2 7.3133111e-15 1.2181219e-16          0.1 0.0090000092 0.00027012968  0.029899985 
number of iterations: 19244 
   15900    46.914606       10            8            2 7.4366791e-15 1.2170859e-16          0.1 0.0090000093 0.00027510006  0.029899985 
number of iterations: 19391 
   16000    47.541799       10            8            2 7.5621282e-15 1.2160509e-16          0.1 0.0090000095 0.00028015429  0.029899984 
number of iterations: 19538 
   16100    47.792185       10            8            2 7.6896935e-15 1.2150169e-16          0.1 0.0090000096 0.00028529377  0.029899984 
number of iterations: 19686 
   16200    48.018331       10            8            2 7.8194107e-15 1.2139839e-16          0.1 0.0090000098 0.00029051995  0.029899984 
number of iterations: 19835 
   16300    48.259064       10            8            2 7.9513162e-15 1.2129519e-16          0.1   0.00900001 0.0002958343  0.029899983 
number of iterations: 19983 
   16400    48.486204       10            8            2 8.0854467e-15 1.2119208e-16          0.1 0.0090000101 0.00030123828  0.029899983 
number of iterations: 20133 
   16500     48.77912       10            8            2 8.2218398e-15 1.2108907e-16          0.1 0.0090000103 0.00030673343  0.029899983 
number of iterations: 20282 
   16600    49.048399       10            8            2 8.3605338e-15 1.2098617e-16          0.1 0.0090000105 0.00031232128  0.029899983 
number of iterations: 20433 
   16700    49.286684       10            8            2 8.5015674e-15 1.2088336e-16          0.1 0.0090000107 0.00031800339  0.029899982 
number of iterations: 20583 
   16800    49.521529       10            8            2 8.6449801e-15 1.2078065e-16          0.1 0.0090000108 0.00032378135  0.029899982 
number of iterations: 20734 
   16900    49.762932       10            8            2 8.790812e-15 1.2067803e-16          0.1  0.009000011 0.00032965677  0.029899982 
number of iterations: 33151 
   17000    50.555809       11            9            2 8.939104e-15 1.2057552e-16          0.1 0.0090000114 0.00033563132  0.029899981 
number of iterations: 21363 
   17100    50.843664       11            9            2 9.0898974e-15 1.2047311e-16          0.1 0.0090000115 0.00034170664  0.029899981 
number of iterations: 21673 
   17200    51.089912       11            9            2 9.2432346e-15 1.2037079e-16          0.1 0.0090000117 0.00034788445  0.029899981 
number of iterations: 21833 
   17300    51.354997       11            9            2 9.3991585e-15 1.2026858e-16          0.1 0.0090000119 0.00035416648   0.02989998 
number of iterations: 21986 
   17400     51.63102       11            9            2 9.5577126e-15 1.2016646e-16          0.1 0.0090000121 0.00036055447   0.02989998 
number of iterations: 22138 
   17500    51.915522       11            9            2 9.7189414e-15 1.2006445e-16          0.1 0.0090000123 0.00036705023   0.02989998 
number of iterations: 22291 
   17600    52.208644       11            9            2 9.8828899e-15 1.1996253e-16          0.1 0.0090000126 0.00037365556  0.029899979 
number of iterations: 22444 
   17700    52.487597       11            9            2 1.0049604e-14 1.1986072e-16          0.1 0.0090000128 0.00038037231  0.029899979 
number of iterations: 22598 
   17800    52.756864       11            9            2 1.0219131e-14  1.19759e-16          0.1  0.009000013 0.00038720237  0.029899978 
number of iterations: 22752 
   17900    53.024361       11            9            2 1.0391517e-14 1.1965738e-16          0.1 0.0090000132 0.00039414765  0.029899978 
number of iterations: 22907 
   18000     53.71742       11            9            2 1.0566811e-14 1.1955587e-16          0.1 0.0090000134 0.00040121009  0.029899978 
number of iterations: 23062 
   18100    53.982455       11            9            2 1.0745062e-14 1.1945445e-16          0.1 0.0090000137 0.00040839166  0.029899977 
number of iterations: 23217 
   18200     54.23074       12           10            2 1.092632e-14 1.1935314e-16          0.1 0.0090000139 0.00041569438  0.029899977 
number of iterations: 23372 
   18300     54.47672       12           10            2 1.1110636e-14 1.1925192e-16          0.1 0.0090000141 0.00042312028  0.029899977 
number of iterations: 23529 
   18400     54.74276       12           10            2 1.1298061e-14 1.1915081e-16          0.1 0.0090000144 0.00043067146  0.029899976 
number of iterations: 23685 
   18500    55.012884       12           10            2 1.1488648e-14 1.190498e-16          0.1 0.0090000146 0.00043835002  0.029899976 
number of iterations: 23842 
   18600    55.284814       13           11            2 1.1682449e-14 1.1894888e-16          0.1 0.0090000148 0.0004461581  0.029899975 
number of iterations: 23999 
   18700    55.545522       14           12            2 1.187952e-14 1.1884807e-16          0.1 0.0090000151 0.0004540979  0.029899975 
number of iterations: 24156 
   18800    55.808954       14           12            2 1.2079915e-14 1.1874736e-16          0.1 0.0090000154 0.00046217163  0.029899975 
number of iterations: 24314 
   18900    56.098203       14           12            2 1.2283691e-14 1.1864675e-16          0.1 0.0090000156 0.00047038156  0.029899974 
number of iterations: 24472 
   19000    56.755066       14           12            2 1.2490904e-14 1.1854625e-16          0.1 0.0090000159 0.00047872999  0.029899974 
number of iterations: 24631 
   19100    57.038499       14           12            2 1.2701613e-14 1.1844584e-16          0.1 0.0090000161 0.00048721924  0.029899973 
number of iterations: 24790 
   19200    57.320111       15           13            2 1.2915876e-14 1.1834554e-16          0.1 0.0090000164 0.0004958517  0.029899973 
number of iterations: 30885 
   19300    57.668087       16           14            2 1.3133754e-14 1.1824534e-16          0.1 0.0090000166 0.00050462978  0.029899972 
number of iterations: 23597 
   19400    57.932436       17           15            2 1.3355307e-14 1.1814524e-16          0.1 0.0090000169 0.00051355593  0.029899972 
number of iterations: 24939 
   19500     58.20425       17           15            2 1.3580597e-14 1.1804524e-16          0.1 0.0090000171 0.00052263266  0.029899972 
number of iterations: 25129 
   19600    58.472371       17           15            2 1.3809688e-14 1.1794535e-16          0.1 0.0090000174 0.0005318625  0.029899971 
number of iterations: 25294 
   19700    58.760789       17           15            2 1.4042643e-14 1.1784556e-16          0.1 0.0090000177 0.00054124804  0.029899971 
number of iterations: 25457 
   19800    59.046878       17           15            2 1.4279528e-14 1.1774587e-16          0.1  0.009000018 0.00055079191   0.02989997 
number of iterations: 25619 
   19900    59.320958       17           15            2 1.4520409e-14 1.1764628e-16          0.1 0.0090000183 0.00056049677   0.02989997 
number of iterations: 25782 
   20000    60.009105       18           16            2 1.4765353e-14 1.175468e-16          0.1 0.0090000186 0.00057036534  0.029899969 
number of iterations: 25944 
   20100    60.296445       18           16            2 1.5014429e-14 1.1744742e-16          0.1  0.009000019 0.00058040039  0.029899969 
number of iterations: 26108 
   20200    60.586178       18           16            2 1.5267707e-14 1.1734815e-16          0.1 0.0090000193 0.00059060471  0.029899968 
number of iterations: 26271 
   20300    60.889722       19           17            2 1.5525258e-14 1.1724898e-16          0.1 0.0090000196 0.00060098118  0.029899967 
number of iterations: 26435 
   20400    61.232978       19           17            2 1.5787153e-14 1.1714991e-16          0.1 0.0090000199 0.00061153268  0.029899967 
number of iterations: 26599 
   20500    61.537766       19           17            2 1.6053466e-14 1.1705095e-16          0.1 0.0090000203 0.00062226217  0.029899966 
number of iterations: 26764 
   20600    61.835253       19           17            2 1.6324271e-14 1.169521e-16          0.1 0.0090000206 0.00063317266  0.029899966 
number of iterations: 26929 
   20700    62.124559       19           17            2 1.6599645e-14 1.1685334e-16          0.1  0.009000021 0.0006442672  0.029899965 
number of iterations: 27094 
   20800    62.415581       19           17            2 1.6879664e-14 1.167547e-16          0.1 0.0090000213 0.0006555489  0.029899965 
number of iterations: 27259 
   20900    62.702703       19           17            2 1.7164406e-14 1.1665615e-16          0.1 0.0090000217 0.0006670209  0.029899964 
number of iterations: 27425 
   21000    63.416889       19           17            2 1.7453952e-14 1.1655772e-16          0.1  0.009000022 0.00067868642  0.029899963 
number of iterations: 27591 
   21100     63.73084       19           17            2 1.7748382e-14 1.1645939e-16          0.1 0.0090000224 0.00069054873  0.029899963 
number of iterations: 27758 
   21200    64.042375       19           17            2 1.8047779e-14 1.1636116e-16          0.1 0.0090000228 0.00070261115  0.029899962 
number of iterations: 27925 
   21300    64.372564       19           17            2 1.8352226e-14 1.1626305e-16          0.1 0.0090000232 0.00071487704  0.029899962 
number of iterations: 28092 
   21400    64.677556       19           17            2 1.866181e-14 1.1616504e-16          0.1 0.0090000236 0.00072734985  0.029899961 
number of iterations: 28259 
   21500    64.994355       20           18            2 1.8976615e-14 1.1606713e-16          0.1  0.009000024 0.00074003306   0.02989996 
number of iterations: 28427 
   21600    65.306587       20           18            2 1.9296731e-14 1.1596934e-16          0.1 0.0090000244 0.00075293022   0.02989996 
number of iterations: 28595 
   21700    65.614346       20           18            2 1.9622247e-14 1.1587165e-16          0.1 0.0090000248 0.00076604495  0.029899959 
number of iterations: 28764 
   21800    65.935333       20           18            2 1.9953254e-14 1.1577406e-16          0.1 0.0090000252 0.00077938091  0.029899958 
number of iterations: 28932 
   21900    66.233291       20           18            2 2.0289845e-14 1.1567659e-16          0.1 0.0090000256 0.00079294183  0.029899957 
number of iterations: 29101 
   22000    66.936605       20           18            2 2.0632114e-14 1.1557923e-16          0.1 0.0090000261 0.00080673151  0.029899957 
number of iterations: 29271 
   22100    67.259247       22           20            2 2.0980156e-14 1.1548197e-16          0.1 0.0090000265 0.0008207538  0.029899956 
number of iterations: 29440 
   22200    67.568597       22           20            2 2.133407e-14 1.1538482e-16          0.1  0.009000027 0.00083501264  0.029899955 
number of iterations: 29610 
   22300    67.885836       22           20            2 2.1693953e-14 1.1528778e-16          0.1 0.0090000274 0.00084951201  0.029899954 
number of iterations: 29781 
   22400    68.218361       23           21            2 2.2059908e-14 1.1519086e-16          0.1 0.0090000279 0.00086425597  0.029899954 
number of iterations: 29951 
   22500    68.583369       23           21            2 2.2432036e-14 1.1509404e-16          0.1 0.0090000283 0.00087924865  0.029899953 
number of iterations: 30122 
   22600    68.923239       24           22            2 2.2810441e-14 1.1499733e-16          0.1 0.0090000288 0.00089449424  0.029899952 
number of iterations: 33987 
   22700    69.349125       25           23            2 2.319523e-14 1.1490073e-16          0.1 0.0090000292  0.000909997  0.029899951 
number of iterations: 29634 
   22800    69.684216       25           23            2 2.3586509e-14 1.1480424e-16          0.1 0.0090000297 0.00092576128  0.029899951 
number of iterations: 34035 
   22900     70.05607       26           24            2 2.3984389e-14 1.1470787e-16          0.1   0.00900003 0.00094179148   0.02989995 
number of iterations: 29832 
   23000     70.83052       27           25            2 2.4388981e-14 1.1461161e-16          0.1 0.0090000305 0.00095809209  0.029899949 
number of iterations: 38584 
   23100    71.278559       27           25            2 2.4800398e-14 1.1451545e-16          0.1 0.0090000312 0.00097466768  0.029899948 
number of iterations: 30944 
   23200    71.607453       28           26            2 2.5218755e-14 1.1441942e-16          0.1 0.0090000317 0.00099152289  0.029899947 
number of iterations: 31178 
   23300     71.97129       28           26            2 2.564417e-14 1.1432349e-16          0.1 0.0090000323 0.0010086624  0.029899946 
number of iterations: 31353 
   23400    72.291909       29           27            2 2.607676e-14 1.1422768e-16          0.1 0.0090000328 0.0010260911  0.029899945 
number of iterations: 31527 
   23500    72.651654       31           29            2 2.6516648e-14 1.1413198e-16          0.1 0.0090000334 0.0010438137  0.029899945 
number of iterations: 37897 
   23600     73.11717       31           29            2 2.6963957e-14 1.1403639e-16          0.1 0.0090000341 0.0010618354  0.029899943 
number of iterations: 31977 
   23700    73.465618       31           29            2 2.7418811e-14 1.1394092e-16          0.1 0.0090000347  0.001080161  0.029899942 
number of iterations: 32201 
   23800    73.814879       31           29            2 2.7881338e-14 1.1384557e-16          0.1 0.0090000352 0.0010987958  0.029899941 
number of iterations: 32376 
   23900    74.170276       31           29            2 2.8351667e-14 1.1375033e-16          0.1 0.0090000358 0.0011177449   0.02989994 
number of iterations: 32551 
   24000    74.976969       31           29            2 2.882993e-14 1.136552e-16          0.1 0.0090000364 0.0011370137  0.029899939 
number of iterations: 32727 
   24100    75.314356       31           29            2 2.9316262e-14 1.1356019e-16          0.1 0.0090000371 0.0011566075  0.029899938 
number of iterations: 32902 
   24200    75.661619       32           30            2 2.9810797e-14 1.134653e-16          0.1 0.0090000377 0.0011765318  0.029899937 
number of iterations: 33078 
   24300    76.056491       33           31            2 3.0313674e-14 1.1337053e-16          0.1 0.0090000383 0.0011967923  0.029899936 
number of iterations: 33254 
   24400    76.397795       33           31            2 3.0825034e-14 1.1327587e-16          0.1  0.009000039 0.0012173945  0.029899935 
number of iterations: 33430 
   24500    76.755133       33           31            2 3.1345021e-14 1.1318133e-16          0.1 0.0090000396 0.0012383443  0.029899934 
number of iterations: 33607 
   24600    77.102117       33           31            2 3.1873779e-14 1.1308691e-16          0.1 0.0090000403 0.0012596474  0.029899933 
number of iterations: 39996 
   24700    77.514417       34           32            2 3.2411456e-14 1.1299261e-16          0.1 0.0090000412 0.0012813099  0.029899932 
number of iterations: 34076 
   24800    77.914742       34           32            2 3.2958204e-14 1.1289843e-16          0.1 0.0090000419 0.0013033379   0.02989993 
number of iterations: 34288 
   24900    78.294221       35           33            2 3.3514175e-14 1.1280437e-16          0.1 0.0090000426 0.0013257374  0.029899929 
number of iterations: 34466 
   25000     79.11365       35           33            2 3.4079524e-14 1.1271043e-16          0.1 0.0090000433 0.0013485148  0.029899928 
number of iterations: 34643 
   25100    79.503663       35           33            2 3.4654411e-14 1.1261661e-16          0.1  0.009000044 0.0013716764  0.029899927 
number of iterations: 34821 
   25200    79.869834       35           33            2 3.5238995e-14 1.1252292e-16          0.1 0.0090000448 0.0013952288  0.029899926 
number of iterations: 34999 
   25300    80.238676       36           34            2 3.583344e-14 1.1242934e-16          0.1 0.0090000455 0.0014191784  0.029899924 
number of iterations: 35178 
   25400     80.65967       37           35            2 3.6437913e-14 1.1233589e-16          0.1 0.0090000463 0.0014435321  0.029899923 
number of iterations: 37288 
   25500    81.121015       40           38            2 3.7052583e-14 1.1224256e-16          0.1 0.0090000469 0.0014682965  0.029899922 
number of iterations: 35022 
   25600    81.490093       40           38            2 3.7677622e-14 1.1214936e-16          0.1 0.0090000476 0.0014934787  0.029899921 
number of iterations: 35559 
   25700    81.867145       40           38            2 3.8313204e-14 1.1205628e-16          0.1 0.0090000485 0.0015190857  0.029899919 
number of iterations: 35746 
   25800    82.285617       40           38            2 3.8959508e-14 1.1196332e-16          0.1 0.0090000493 0.0015451247  0.029899918 
number of iterations: 37633 
   25900    82.728408       40           38            2 3.9616715e-14 1.118705e-16          0.1 0.0090000501 0.0015716029  0.029899917 
number of iterations: 38003 
   26000    83.563917       40           38            2 4.0285008e-14 1.117778e-16          0.1 0.0090000508 0.0015985278  0.029899915 
number of iterations: 35818 
   26100    83.948214       40           38            2 4.0964574e-14 1.1168522e-16          0.1 0.0090000516 0.0016259069  0.029899914 
number of iterations: 36343 
   26200    84.318799       41           39            2 4.1655604e-14 1.1159278e-16          0.1 0.0090000525 0.0016537478  0.029899913 
number of iterations: 36531 
   26300    84.776577       43           41            2 4.2358291e-14 1.1150046e-16          0.1 0.0090000534 0.0016820584  0.029899911 
number of iterations: 36713 
   26400    85.156953       43           41            2 4.3072832e-14 1.1140827e-16          0.1 0.0090000543 0.0017108466   0.02989991 
number of iterations: 36895 
   26500    85.596634       45           43            2 4.3799426e-14 1.1131621e-16          0.1 0.0090000552 0.0017401203  0.029899908 
number of iterations: 43228 
   26600    86.135638       46           44            2 4.4538276e-14 1.1122428e-16          0.1 0.0090000564 0.0017698879  0.029899906 
number of iterations: 37384 
   26700    86.569488       46           44            2 4.5289591e-14 1.1113249e-16          0.1 0.0090000573 0.0018001577  0.029899905 
number of iterations: 37588 
   26800    86.970875       46           44            2 4.6053579e-14 1.1104082e-16          0.1 0.0090000583  0.001830938  0.029899903 
number of iterations: 37770 
   26900    87.380651       47           45            2 4.6830456e-14 1.1094929e-16          0.1 0.0090000593 0.0018622376  0.029899901 
number of iterations: 37953 
   27000    88.228414       48           46            2 4.7620437e-14 1.108579e-16          0.1 0.0090000603 0.0018940652    0.0298999 
number of iterations: 41815 
   27100    88.670928       48           46            2 4.8423744e-14 1.1076663e-16          0.1 0.0090000614 0.0019264297  0.029899898 
number of iterations: 38378 
   27200    89.092806       49           47            2 4.9240603e-14 1.106755e-16          0.1 0.0090000625 0.0019593402  0.029899896 
number of iterations: 38578 
   27300    89.544535       51           49            2 5.007124e-14 1.1058451e-16          0.1 0.0090000635 0.0019928058  0.029899894 
number of iterations: 38761 
   27400    89.956844       51           49            2 5.091589e-14 1.1049366e-16          0.1 0.0090000646 0.0020268359  0.029899893 
number of iterations: 38945 
   27500    90.354697       54           52            2 5.1774788e-14 1.1040294e-16          0.1 0.0090000657 0.0020614401  0.029899891 
number of iterations: 39379 
   27600    90.828726       56           54            2 5.2648175e-14 1.1031236e-16          0.1 0.0090000667  0.002096628  0.029899889 
number of iterations: 39062 
   27700    91.290223       57           55            2 5.3536295e-14 1.1022192e-16          0.1 0.0090000678 0.0021324095  0.029899887 
number of iterations: 39407 
   27800    91.699857       59           57            2 5.4439397e-14 1.1013162e-16          0.1 0.0090000689 0.0021687947  0.029899885 
number of iterations: 39595 
   27900    92.171322       59           57            2 5.5357733e-14 1.1004146e-16          0.1 0.0090000701 0.0022057935  0.029899883 
number of iterations: 39780 
   28000    93.020777       60           58            2 5.6291561e-14 1.0995145e-16          0.1 0.0090000713 0.0022434166  0.029899881 
number of iterations: 39888 
   28100     93.50635       60           58            2 5.7241141e-14 1.0986157e-16          0.1 0.0090000723 0.0022816742   0.02989988 
number of iterations: 39957 
   28200    93.990601       61           59            2 5.8206739e-14 1.0977185e-16          0.1 0.0090000735 0.0023205773  0.029899878 
number of iterations: 40262 
   28300    94.442927       62           60            2 5.9188627e-14 1.0968226e-16          0.1 0.0090000748 0.0023601366  0.029899876 
number of iterations: 40451 
   28400    94.945167       62           60            2 6.0187077e-14 1.0959282e-16          0.1  0.009000076 0.0024003632  0.029899874 
number of iterations: 40637 
   28500    95.463344       63           61            2 6.1202371e-14 1.0950353e-16          0.1 0.0090000773 0.0024412684  0.029899871 
number of iterations: 40824 
   28600    95.988675       64           62            2 6.2234791e-14 1.0941439e-16          0.1 0.0090000786 0.0024828636  0.029899869 
number of iterations: 41010 
   28700    96.509894       65           63            2 6.3284627e-14 1.0932539e-16          0.1 0.0090000799 0.0025251605  0.029899867 
number of iterations: 41197 
   28800    97.014726       66           64            2 6.4352173e-14 1.0923655e-16          0.1 0.0090000813 0.0025681709  0.029899865 
number of iterations: 41385 
   28900     97.53765       66           64            2 6.5437727e-14 1.0914785e-16          0.1 0.0090000827 0.0026119069  0.029899863 
number of iterations: 41572 
   29000    98.459925       67           65            2 6.6541593e-14 1.0905931e-16          0.1 0.0090000841 0.0026563806   0.02989986 
number of iterations: 41760 
   29100    98.928923       67           65            2 6.7664081e-14 1.0897092e-16          0.1 0.0090000855 0.0027016045  0.029899858 
number of iterations: 41948 
   29200    99.408922       67           65            2 6.8805503e-14 1.0888268e-16          0.1 0.0090000869 0.0027475914  0.029899855 
number of iterations: 42136 
   29300    99.864738       67           65            2 6.9966181e-14 1.087946e-16          0.1 0.0090000884 0.0027943539  0.029899853 
number of iterations: 42324 
   29400    100.29766       70           68            2 7.1146437e-14 1.0870668e-16          0.1 0.0090000899 0.0028419053   0.02989985 
number of iterations: 44930 
   29500    100.83274       74           72            2 7.2346603e-14 1.0861891e-16          0.1 0.0090000915 0.0028902589  0.029899848 
number of iterations: 42741 
   29600     101.3374       75           73            2 7.3567015e-14 1.0853131e-16          0.1 0.0090000931 0.0029394281  0.029899845 
number of iterations: 42936 
   29700    101.79163       77           75            2 7.4808014e-14 1.0844386e-16          0.1 0.0090000946 0.0029894268  0.029899843 
number of iterations: 43126 
   29800    102.29383       77           75            2 7.6069947e-14 1.0835657e-16          0.1 0.0090000962 0.0030402689   0.02989984 
number of iterations: 43315 
   29900    102.74009       78           76            2 7.7353168e-14 1.0826945e-16          0.1 0.0090000979 0.0030919686  0.029899837 
number of iterations: 43504 
   30000    103.61538       78           76            2 7.8658035e-14 1.0818249e-16          0.1 0.0090000995 0.0031445405  0.029899834 
number of iterations: 43694 
   30100     104.1016       79           77            2 7.9984914e-14 1.080957e-16          0.1 0.0090001012 0.0031979992  0.029899832 
number of iterations: 43884 
   30200    104.56588       80           78            2 8.1334176e-14 1.0800907e-16          0.1 0.0090001029 0.0032523596  0.029899829 
number of iterations: 44075 
   30300    105.07058       81           79            2 8.2706199e-14 1.0792261e-16          0.1 0.0090001046 0.0033076371  0.029899826 
number of iterations: 44265 
   30400    105.52391       82           80            2 8.4101366e-14 1.0783632e-16          0.1 0.0090001064 0.0033638471  0.029899823 
number of iterations: 44456 
   30500     105.9697       84           82            2 8.5520068e-14 1.077502e-16          0.1 0.0090001082 0.0034210052   0.02989982 
number of iterations: 44646 
   30600    106.47231       86           84            2 8.6962703e-14 1.0766425e-16          0.1   0.00900011 0.0034791276  0.029899817 
number of iterations: 47462 
   30700    107.00213       88           86            2 8.8429672e-14 1.0757847e-16          0.1 0.0090001121 0.0035382304  0.029899814 
number of iterations: 45074 
   30800    107.53293       90           88            2 8.9921389e-14 1.0749287e-16          0.1 0.0090001139 0.0035983302   0.02989981 
number of iterations: 45270 
   30900    108.06684       93           91            2 9.1438268e-14 1.0740745e-16          0.1 0.0090001159 0.0036594439  0.029899807 
number of iterations: 45462 
   31000    109.01669       93           91            2 9.2980736e-14 1.073222e-16          0.1 0.0090001178 0.0037215885  0.029899804 
number of iterations: 45654 
   31100    109.49999       93           91            2 9.4549224e-14 1.0723713e-16          0.1 0.0090001198 0.0037847813  0.029899801 
number of iterations: 45845 
   31200    109.97558       97           95            2 9.6144171e-14 1.0715225e-16          0.1 0.0090001218 0.0038490402  0.029899797 
number of iterations: 46038 
   31300     110.5072      100           98            2 9.7766022e-14 1.0706754e-16          0.1 0.0090001239 0.0039143831  0.029899794 
number of iterations: 46230 
   31400    111.03224      101           99            2 9.9415232e-14 1.0698302e-16          0.1  0.009000126 0.0039808282   0.02989979 
number of iterations: 46423 
   31500    111.53004      102          100            2 1.0109226e-13 1.0689869e-16          0.1 0.0090001281 0.0040483942  0.029899787 
number of iterations: 45105 
   31600    112.01974      104          102            2 1.0279758e-13 1.0681454e-16          0.1 0.0090001301 0.0041170999  0.029899783 
number of iterations: 46747 
   31700      112.541      104          102            2 1.0453167e-13 1.0673058e-16          0.1 0.0090001323 0.0041869647   0.02989978 
number of iterations: 46961 
   31800    113.05914      104          102            2 1.0629501e-13 1.0664682e-16          0.1 0.0090001345 0.0042580079  0.029899776 
number of iterations: 47154 
   31900    113.58139      105          103            2 1.080881e-13 1.0656324e-16          0.1 0.0090001368 0.0043302496  0.029899772 
number of iterations: 47348 
   32000    114.65614      109          107            2 1.0991143e-13 1.0647986e-16          0.1 0.0090001391   0.00440371  0.029899769 
number of iterations: 49357 
   32100    115.29664      113          111            2 1.1176552e-13 1.0639668e-16          0.1 0.0090001416 0.0044784095  0.029899764 
number of iterations: 46176 
   32200    115.87748      115          113            2 1.1365089e-13 1.0631369e-16          0.1 0.0090001438 0.0045543692  0.029899761 
number of iterations: 47894 
   32300    116.43615      117          115            2 1.1556806e-13 1.0623091e-16          0.1 0.0090001462 0.0046316102  0.029899757 
number of iterations: 46330 
   32400    116.96904      119          117            2 1.1751757e-13 1.0614832e-16          0.1 0.0090001486 0.0047101541  0.029899753 
number of iterations: 48285 
   32500    117.47645      122          120            2 1.1949997e-13 1.0606594e-16          0.1 0.0090001511 0.0047900231  0.029899749 
number of iterations: 48475 
   32600    118.02938      123          121            2 1.2151581e-13 1.0598377e-16          0.1 0.0090001536 0.0048712393  0.029899744 
number of iterations: 48670 
   32700    118.58383      124          122            2 1.2356565e-13 1.059018e-16          0.1 0.0090001562 0.0049538255   0.02989974 
number of iterations: 50655 
   32800    119.19544      125          123            2 1.2565007e-13 1.0582004e-16          0.1  0.009000159 0.0050378049  0.029899735 
number of iterations: 49092 
   32900     119.7325      127          125            2 1.2776966e-13 1.0573849e-16          0.1 0.0090001617  0.005123201  0.029899731 
number of iterations: 48360 
   33000    120.71868      133          131            2  1.29925e-13 1.0565716e-16          0.1 0.0090001643 0.0052100376  0.029899727 
number of iterations: 48894 
   33100    121.27721      133          131            2 1.3211669e-13 1.0557605e-16          0.1 0.0090001671  0.005298339  0.029899722 
number of iterations: 49658 
   33200    121.83552      133          131            2 1.3434536e-13 1.0549515e-16          0.1 0.0090001699   0.00538813  0.029899717 
number of iterations: 49853 
   33300    122.37122      134          132            2 1.3661163e-13 1.0541447e-16          0.1 0.0090001727 0.0054794356  0.029899713 
number of iterations: 50050 
   33400    123.01821      136          134            2 1.3891612e-13 1.0533402e-16          0.1 0.0090001757 0.0055722815  0.029899708 
number of iterations: 48744 
   33500    123.53095      141          139            2 1.4125949e-13 1.0525379e-16          0.1 0.0090001785 0.0056666936  0.029899703 
number of iterations: 51142 
   33600    124.12536      143          141            2 1.4364239e-13 1.0517378e-16          0.1 0.0090001816 0.0057626983  0.029899698 
number of iterations: 50629 
   33700    124.69816      145          143            2 1.4606548e-13 1.0509401e-16          0.1 0.0090001846 0.0058603225  0.029899693 
number of iterations: 50827 
   33800    125.26499      146          144            2 1.4852945e-13 1.0501447e-16          0.1 0.0090001878 0.0059595935  0.029899688 
number of iterations: 51024 
   33900    125.84119      148          146            2 1.5103499e-13 1.0493516e-16          0.1 0.0090001909 0.0060605391  0.029899682 
number of iterations: 53885 
   34000    126.95937      151          149            2 1.5358279e-13 1.048561e-16          0.1 0.0090001944 0.0061631876  0.029899676 
number of iterations: 51462 
   34100     127.5212      154          152            2 1.5617357e-13 1.0477727e-16          0.1 0.0090001977 0.0062675676  0.029899671 
number of iterations: 49645 
   34200    128.09706      157          155            2 1.5880805e-13 1.0469868e-16          0.1 0.0090002008 0.0063737084  0.029899666 
number of iterations: 53137 
   34300    128.68031      158          156            2 1.6148698e-13 1.0462034e-16          0.1 0.0090002043 0.0064816397   0.02989966 
number of iterations: 49913 
   34400    129.23172      160          158            2 1.6421109e-13 1.0454224e-16          0.1 0.0090002075 0.0065913917  0.029899655 
number of iterations: 52194 
   34500    129.80962      165          163            2 1.6698116e-13 1.0446439e-16          0.1  0.009000211  0.006702995  0.029899649 
number of iterations: 54191 
   34600    130.40832      167          165            2 1.6979795e-13 1.043868e-16          0.1 0.0090002147  0.006816481  0.029899643 
number of iterations: 54935 
   34700    131.02402      172          170            2 1.7266226e-13 1.0430946e-16          0.1 0.0090002186 0.0069318814  0.029899636 
number of iterations: 52908 
   34800    131.64193      176          174            2 1.7557489e-13 1.0423239e-16          0.1 0.0090002223 0.0070492285   0.02989963 
number of iterations: 55495 
   34900    132.26116      178          176            2 1.7853665e-13 1.0415557e-16          0.1 0.0090002264 0.0071685551  0.029899623 
number of iterations: 53417 
   35000    133.33191      182          180            2 1.8154838e-13 1.0407902e-16          0.1 0.0090002302 0.0072898946  0.029899617 
Loop time of 133.332 on 6 procs for 35000 steps with 182 atoms

Performance: 226802338.956 tau/day, 262.503 timesteps/s
94.4% CPU use with 6 MPI tasks x no OpenMP threads

MPI task timing breakdown:
Section |  min time  |  avg time  |  max time  |%varavg| %total
---------------------------------------------------------------
Pair    | 0.024309   | 0.031396   | 0.064308   |   8.3 |  0.02
Neigh   | 14.877     | 15.788     | 17.46      |  29.6 | 11.84
Comm    | 15.108     | 15.11      | 15.11      |   0.0 | 11.33
Output  | 10.915     | 10.917     | 10.918     |   0.0 |  8.19
Modify  | 89.485     | 90.926     | 91.75      |  10.6 | 68.20
Other   |            | 0.5599     |            |       |  0.42

Nlocal:    30.3333 ave 180 max 0 min
Histogram: 5 0 0 0 0 0 0 0 0 1
Nghost:    0 ave 0 max 0 min
Histogram: 6 0 0 0 0 0 0 0 0 0
Neighs:    96.5 ave 579 max 0 min
Histogram: 5 0 0 0 0 0 0 0 0 1

Total # of neighbors = 579
Ave neighs/atom = 3.18132
Neighbor list builds = 409
Dangerous builds = 0
Total wall time: 0:02:14
