 NUFEB Simulation

     100 atoms 
     2 atom types 
     4 nutrients 

  0.0e-4   1.00e-04  xlo xhi 
  0.0e-4   1.00e-04  ylo yhi 
  0.0e-4   1.00e-05  zlo zhi 

 Atoms 

     1 1 1.92e-06  370 2.97e-05 2.76e-05 2.08e-06 1.92e-06 
     2 1 1.87e-06  370 7.57e-05 1.62e-05 3.10e-06 1.87e-06 
     3 1 1.47e-06  370 7.59e-05 4.71e-05 5.73e-06 1.47e-06 
     4 1 1.63e-06  370 2.63e-05 7.81e-05 3.31e-06 1.63e-06 
     5 1 1.69e-06  370 8.20e-05 3.96e-05 7.65e-06 1.69e-06 
     6 1 1.63e-06  370 4.81e-05 1.57e-05 5.90e-06 1.63e-06 
     7 1 1.72e-06  370 5.90e-05 1.17e-05 8.26e-06 1.72e-06 
     8 1 1.46e-06  370 1.93e-05 5.10e-05 4.50e-06 1.46e-06 
     9 1 1.77e-06  370 6.88e-05 4.87e-05 8.10e-06 1.77e-06 
     10 1 1.49e-06  370 5.05e-05 6.91e-05 6.39e-06 1.49e-06 
     11 1 1.74e-06  370 5.54e-05 9.21e-05 3.56e-06 1.74e-06 
     12 1 1.72e-06  370 4.13e-05 7.76e-05 8.27e-06 1.72e-06 
     13 1 1.87e-06  370 8.35e-05 3.10e-06 4.93e-06 1.87e-06 
     14 1 1.89e-06  370 9.50e-05 4.23e-06 5.84e-06 1.89e-06 
     15 1 1.75e-06  370 6.50e-06 2.74e-05 4.72e-06 1.75e-06 
     16 1 1.61e-06  370 7.12e-05 8.34e-05 6.79e-06 1.61e-06 
     17 1 1.80e-06  370 3.87e-05 5.06e-05 4.84e-06 1.80e-06 
     18 1 1.76e-06  370 7.66e-05 3.36e-05 2.47e-06 1.76e-06 
     19 1 1.38e-06  370 4.31e-05 1.39e-05 3.28e-06 1.38e-06 
     20 1 1.75e-06  370 6.34e-06 2.18e-05 6.47e-06 1.75e-06 
     21 1 1.61e-06  370 5.53e-05 8.63e-05 5.38e-06 1.61e-06 
     22 1 1.57e-06  370 7.63e-05 5.79e-05 2.98e-06 1.57e-06 
     23 1 1.38e-06  370 6.03e-05 3.91e-05 4.11e-06 1.38e-06 
     24 1 1.43e-06  370 6.62e-05 8.08e-05 6.81e-06 1.43e-06 
     25 1 1.52e-06  370 4.50e-05 5.47e-05 2.99e-06 1.52e-06 
     26 1 1.49e-06  370 8.95e-05 3.97e-05 1.87e-06 1.49e-06 
     27 1 1.79e-06  370 1.46e-05 4.65e-05 3.59e-06 1.79e-06 
     28 1 1.84e-06  370 8.24e-06 1.70e-05 7.99e-06 1.84e-06 
     29 1 1.73e-06  370 5.31e-05 9.24e-06 2.90e-06 1.73e-06 
     30 1 1.87e-06  370 5.10e-05 8.80e-06 6.32e-06 1.87e-06 
     31 1 1.91e-06  370 4.43e-05 4.11e-05 5.36e-06 1.91e-06 
     32 1 1.82e-06  370 5.65e-05 1.47e-05 5.50e-06 1.82e-06 
     33 1 1.79e-06  370 2.13e-06 9.55e-05 5.02e-06 1.79e-06 
     34 1 1.91e-06  370 3.22e-05 3.33e-05 3.23e-06 1.91e-06 
     35 1 1.89e-06  370 5.02e-05 9.48e-05 4.86e-06 1.89e-06 
     36 1 1.50e-06  370 1.63e-05 3.66e-05 6.01e-06 1.50e-06 
     37 1 1.66e-06  370 6.66e-05 3.90e-05 7.25e-06 1.66e-06 
     38 1 1.72e-06  370 3.33e-05 5.60e-05 3.91e-06 1.72e-06 
     39 1 1.89e-06  370 7.43e-05 9.38e-05 5.58e-06 1.89e-06 
     40 1 1.92e-06  370 7.95e-05 9.39e-05 5.81e-06 1.92e-06 
     41 1 1.43e-06  370 1.81e-05 1.51e-05 5.12e-06 1.43e-06 
     42 1 1.76e-06  370 7.44e-05 6.07e-05 6.62e-06 1.76e-06 
     43 1 1.48e-06  370 1.91e-05 1.96e-05 4.99e-06 1.48e-06 
     44 1 1.78e-06  370 7.24e-05 2.54e-05 4.50e-06 1.78e-06 
     45 1 1.72e-06  370 2.85e-05 3.97e-05 7.88e-06 1.72e-06 
     46 1 1.77e-06  370 8.95e-05 1.71e-05 4.12e-06 1.77e-06 
     47 1 1.87e-06  370 6.45e-05 7.17e-05 7.53e-06 1.87e-06 
     48 1 1.88e-06  370 7.53e-05 3.97e-05 8.04e-06 1.88e-06 
     49 1 1.52e-06  370 9.21e-05 5.46e-05 4.12e-06 1.52e-06 
     50 1 1.56e-06  370 8.83e-05 8.97e-05 4.55e-06 1.56e-06 
     51 2 9.30e-07  230 2.46e-05 6.64e-06 7.07e-06 9.30e-07 
     52 2 1.21e-06  230 2.67e-06 5.08e-05 6.20e-06 1.21e-06 
     53 2 1.26e-06  230 5.79e-06 1.82e-05 1.34e-06 1.26e-06 
     54 2 1.19e-06  230 5.97e-05 5.41e-05 6.11e-06 1.19e-06 
     55 2 1.23e-06  230 9.27e-06 6.96e-05 6.07e-06 1.23e-06 
     56 2 1.09e-06  230 7.55e-05 1.23e-05 1.90e-06 1.09e-06 
     57 2 1.22e-06  230 6.69e-05 1.30e-05 2.59e-06 1.22e-06 
     58 2 1.15e-06  230 1.58e-05 5.12e-05 7.56e-06 1.15e-06 
     59 2 1.14e-06  230 1.16e-06 2.96e-05 1.59e-06 1.14e-06 
     60 2 1.35e-06  230 7.47e-05 4.42e-05 7.76e-06 1.35e-06 
     61 2 1.03e-06  230 3.39e-05 7.04e-05 4.11e-06 1.03e-06 
     62 2 1.33e-06  230 4.92e-05 2.31e-05 2.30e-06 1.33e-06 
     63 2 1.25e-06  230 9.68e-06 4.79e-05 3.93e-06 1.25e-06 
     64 2 1.35e-06  230 1.29e-05 9.48e-05 8.57e-06 1.35e-06 
     65 2 1.17e-06  230 3.20e-05 2.68e-05 3.38e-06 1.17e-06 
     66 2 9.81e-07  230 8.68e-05 4.02e-05 2.71e-06 9.81e-07 
     67 2 1.30e-06  230 4.59e-05 6.39e-05 7.27e-06 1.30e-06 
     68 2 1.17e-06  230 2.08e-05 2.21e-05 1.81e-06 1.17e-06 
     69 2 9.73e-07  230 5.27e-05 2.54e-05 3.23e-06 9.73e-07 
     70 2 1.33e-06  230 3.99e-05 1.41e-05 5.95e-06 1.33e-06 
     71 2 9.35e-07  230 5.66e-05 6.03e-05 6.80e-06 9.35e-07 
     72 2 1.30e-06  230 6.02e-05 9.53e-05 4.87e-06 1.30e-06 
     73 2 1.18e-06  230 5.76e-05 1.81e-05 5.35e-06 1.18e-06 
     74 2 1.38e-06  230 8.19e-05 7.07e-05 4.98e-06 1.38e-06 
     75 2 1.28e-06  230 7.97e-05 6.18e-05 2.33e-06 1.28e-06 
     76 2 9.64e-07  230 8.77e-06 1.32e-05 7.81e-06 9.64e-07 
     77 2 9.16e-07  230 5.28e-06 9.84e-05 6.50e-06 9.16e-07 
     78 2 8.94e-07  230 2.31e-05 4.55e-05 4.13e-06 8.94e-07 
     79 2 1.01e-06  230 7.68e-05 7.37e-05 6.64e-06 1.01e-06 
     80 2 9.48e-07  230 6.27e-05 7.36e-05 3.10e-06 9.48e-07 
     81 2 1.03e-06  230 3.91e-05 8.19e-05 7.30e-06 1.03e-06 
     82 2 1.18e-06  230 2.68e-05 2.06e-05 7.25e-06 1.18e-06 
     83 2 9.87e-07  230 1.57e-05 3.44e-05 1.12e-06 9.87e-07 
     84 2 1.12e-06  230 4.06e-05 5.06e-05 1.72e-06 1.12e-06 
     85 2 9.46e-07  230 8.23e-05 4.77e-05 4.47e-06 9.46e-07 
     86 2 8.85e-07  230 1.05e-05 5.51e-05 2.55e-06 8.85e-07 
     87 2 9.04e-07  230 5.69e-05 3.15e-06 1.09e-06 9.04e-07 
     88 2 9.34e-07  230 8.82e-05 9.08e-05 5.05e-06 9.34e-07 
     89 2 1.23e-06  230 1.20e-05 5.21e-05 3.82e-06 1.23e-06 
     90 2 1.13e-06  230 2.25e-06 4.25e-05 6.36e-06 1.13e-06 
     91 2 1.31e-06  230 3.47e-05 1.46e-05 6.57e-06 1.31e-06 
     92 2 1.17e-06  230 5.44e-05 4.97e-05 7.34e-06 1.17e-06 
     93 2 1.08e-06  230 6.96e-05 7.20e-05 4.94e-06 1.08e-06 
     94 2 9.90e-07  230 1.53e-05 7.72e-06 7.10e-06 9.90e-07 
     95 2 1.12e-06  230 6.43e-05 4.26e-05 5.74e-06 1.12e-06 
     96 2 1.29e-06  230 3.10e-05 8.07e-05 3.53e-06 1.29e-06 
     97 2 1.34e-06  230 7.27e-05 5.04e-06 5.23e-06 1.34e-06 
     98 2 1.21e-06  230 4.76e-05 4.70e-05 1.45e-06 1.21e-06 
     99 2 1.19e-06  230 5.73e-05 8.48e-05 6.07e-06 1.19e-06 
     100 2 1.21e-06  230 4.06e-06 3.69e-05 8.43e-06 1.21e-06 

 Nutrients 

     1 sub g nn nn nn 1.00e-01 1.00e-01 
     2 o2 l nn nn nd 9.00e-03 9.00e-03 
     3 suc l nn nn nn 3.42e-20 3.42e-20 
     4 co2 l nn nn nd 2.99e-02 2.99e-02 

 Type Name 

     1 cyano  
     2 ecw  

 Diffusion Coeffs 

     sub 0 
     o2 2.3e-09 
     suc 5.2e-10 
     co2 1.9e-09 

 Growth Rate 

     cyano 1.67e-05 
     ecw 1.7e-05 

 Ks 

     cyano 0.00035 0.0002 0.01 0.000138 
     ecw 0 0.001 3.6 0.05 

 Yield 

     cyano 0.55 
     ecw 0.43 

 Maintenance 

     cyano 0 
     ecw 9.5e-07 

 Decay 

     cyano 0 
     ecw 0 



