LAMMPS (20 Nov 2019)
Reading data file ...
  orthogonal box = (0 0 0) to (0.0001 0.0001 1e-05)
  8 by 4 by 1 MPI processor grid
  reading atoms ...
  100 atoms
  4 nutrients
Lattice spacing in x,y,z = 100 100 100
50 atoms in group CYANO
50 atoms in group ECW
Model is defined as a closed system. 
Neighbor list info ...
  update every 1 steps, delay 0 steps, check yes
  max neighbors/atom: 5000, page size: 100000
  master list distance cutoff = 2.42e-06
  ghost atom cutoff = 2.42e-06
  binsize = 1.21e-06, bins = 83 83 9
  1 neighbor lists, perpetual/occasional/extra = 1 0 0
  (1) pair gran/hooke/history, perpetual
      attributes: half, newton off, size, history
      pair build: half/size/bin/newtoff
      stencil: half/bin/3d/newtoff
      bin: standard
Setting up Verlet run ...
  Unit style    : lj
  Current step  : 0
  Time step     : 10
Per MPI rank memory allocation (min/avg/max) = 6.793 | 10.51 | 12.11 Mbytes
Step CPU Atoms c_myNtypes[1] c_myNtypes[2] c_myMass[1] c_myMass[2] c_myCon[1] c_myCon[2] c_myCon[3] c_myCon[4] 
       0            0      100           50           50 4.8739875e-14 9.2225696e-15          0.1        0.009     3.42e-20       0.0299 
number of iterations: 327185 
     100    15.720571      133           50           83 4.9385786e-14 9.2162031e-15          0.1 0.0090008079  0.039170702  0.029898654 
number of iterations: 3901 
     200    16.023409      148           50           98 5.0040257e-14 9.2113101e-15          0.1 0.0090008185  0.077586035  0.029898636 
number of iterations: 2393 
     300    16.275629      148           50           98 5.0703401e-14 9.2078724e-15          0.1 0.0090008293    0.1164723  0.029898618 
number of iterations: 1885 
     400    16.510635      148           50           98 5.1375334e-14 9.2058678e-15          0.1 0.0090008402   0.15583998    0.0298986 
number of iterations: 1632 
     500    16.710452      148           50           98 5.2056171e-14 9.205281e-15          0.1 0.0090008513   0.19569701  0.029898582 
number of iterations: 1466 
     600    16.930425      150           52           98 5.274603e-14 9.2060972e-15          0.1 0.0090008638   0.23605083  0.029898561 
number of iterations: 1421 
     700    17.135154      152           54           98 5.3445032e-14 9.2083053e-15          0.1  0.009000872   0.27690888  0.029898547 
number of iterations: 1427 
     800    17.340766      152           54           98 5.4153297e-14 9.2118938e-15          0.1 0.0090008835   0.31827858  0.029898528 
number of iterations: 1430 
     900    17.552383      152           54           98 5.4870948e-14 9.2168519e-15          0.1 0.0090008952   0.36016742  0.029898508 
number of iterations: 1496 
    1000    17.767497      155           57           98 5.559811e-14 9.2231697e-15          0.1 0.0090009022   0.40258288  0.029898496 
number of iterations: 1547 
    1100     17.95425      156           58           98 5.6334908e-14 9.2308394e-15          0.1 0.0090009194   0.44553268  0.029898468 
number of iterations: 1497 
    1200    18.158274      160           62           98 5.708147e-14 9.2398523e-15          0.1 0.0090009315   0.48902438  0.029898447 
number of iterations: 1443 
    1300    18.343245      160           62           98 5.7837926e-14 9.2501993e-15          0.1 0.0090009438   0.53306589  0.029898427 
number of iterations: 1446 
    1400    18.544459      160           62           98 5.8604407e-14 9.261873e-15          0.1 0.0090009563   0.57766507  0.029898406 
number of iterations: 1449 
    1500    18.744695      160           62           98 5.9381045e-14 9.2748664e-15          0.1 0.0090009689      0.62283  0.029898385 
number of iterations: 1588 
    1600    18.938957      161           63           98 6.0167975e-14 9.2891732e-15          0.1 0.0090009757   0.66856858  0.029898373 
number of iterations: 1459 
    1700    19.144914      161           63           98 6.0965334e-14 9.3047859e-15          0.1 0.0090009886   0.71488877  0.029898352 
number of iterations: 1379 
    1800    19.340597      163           64           99 6.177326e-14 9.3217013e-15          0.1  0.009000997   0.76179896  0.029898338 
number of iterations: 1459 
    1900    19.539164      163           64           99 6.2591892e-14 9.3399149e-15          0.1 0.0090010101   0.80930745  0.029898316 
number of iterations: 1462 
    2000    19.780289      163           64           99 6.3421374e-14 9.3594225e-15          0.1 0.0090010235   0.85742266  0.029898294 
number of iterations: 1466 
    2100    19.968994      164           65           99 6.4261847e-14 9.3802203e-15          0.1  0.009001037   0.90615309  0.029898271 
number of iterations: 1468 
    2200    20.161351      166           67           99 6.5113459e-14 9.4023061e-15          0.1 0.0090010507   0.95550725  0.029898248 
number of iterations: 1425 
    2300    20.331309      167           68           99 6.5976356e-14 9.4256764e-15          0.1 0.0090010645     1.005494  0.029898225 
number of iterations: 1473 
    2400    20.528313      167           68           99 6.6850689e-14 9.4503296e-15          0.1 0.0090010786     1.056122  0.029898201 
number of iterations: 1654 
    2500    20.733748      169           70           99 6.7736609e-14 9.4762643e-15          0.1 0.0090011002    1.1074003  0.029898165 
number of iterations: 1526 
    2600    20.936551      171           72           99 6.8634269e-14 9.5034784e-15          0.1  0.009001116     1.159338  0.029898139 
number of iterations: 1603 
    2700    21.109959      174           74          100 6.9543825e-14 9.5319736e-15          0.1 0.0090011344     1.211944  0.029898108 
number of iterations: 1488 
    2800    21.293376      175           74          101 7.0465434e-14 9.5617485e-15          0.1 0.0090011494    1.2652277  0.029898083 
number of iterations: 1491 
    2900    21.480814      176           75          101 7.1399257e-14 9.5928029e-15          0.1 0.0090011614    1.3191987  0.029898063 
number of iterations: 1494 
    3000    21.712093      179           76          103 7.2345455e-14 9.6251394e-15          0.1 0.0090011768    1.3738661  0.029898037 
number of iterations: 1492 
    3100    21.905448      184           80          104 7.3304193e-14 9.6587587e-15          0.1 0.0090011863    1.4292398  0.029898022 
number of iterations: 1500 
    3200    22.093666      184           80          104 7.4275635e-14 9.6936615e-15          0.1  0.009001202    1.4853292  0.029897995 
number of iterations: 1502 
    3300    22.333704      184           80          104 7.5259952e-14 9.7298499e-15          0.1 0.0090012179    1.5421443  0.029897969 
number of iterations: 1505 
    3400    22.518084      184           80          104 7.6257313e-14 9.7673264e-15          0.1 0.0090012339    1.5996949  0.029897942 
number of iterations: 1497 
    3500    22.705097      185           81          104 7.7267891e-14 9.8060941e-15          0.1 0.0090012503    1.6579911  0.029897915 
number of iterations: 1511 
    3600    22.882816      185           81          104 7.8291861e-14 9.846156e-15          0.1 0.0090012668    1.7170431  0.029897887 
number of iterations: 1514 
    3700    23.063151      185           81          104 7.9329401e-14 9.8875159e-15          0.1 0.0090012835    1.7768612  0.029897859 
number of iterations: 1517 
    3800    23.237011      185           81          104 8.0380691e-14 9.9301777e-15          0.1 0.0090013005    1.8374559  0.029897831 
number of iterations: 1519 
    3900    23.421327      186           82          104 8.1445913e-14 9.974146e-15          0.1 0.0090013177    1.8988377  0.029897802 
number of iterations: 1522 
    4000    23.621075      186           82          104 8.2525252e-14 1.0019426e-14          0.1 0.0090013351    1.9610174  0.029897773 
number of iterations: 1525 
    4100    23.800306      186           82          104 8.3618894e-14 1.0066022e-14          0.1 0.0090013528    2.0240058  0.029897743 
number of iterations: 1528 
    4200    23.994278      187           82          105 8.4727029e-14 1.0113942e-14          0.1 0.0090013707    2.0878139  0.029897714 
number of iterations: 1531 
    4300    24.179443      188           82          106 8.5849849e-14 1.0163191e-14          0.1 0.0090013888    2.1524528  0.029897683 
number of iterations: 1510 
    4400    24.358377      190           84          106 8.6987549e-14 1.0213776e-14          0.1 0.0090014072    2.2179339  0.029897653 
number of iterations: 1536 
    4500    24.534246      190           84          106 8.8140326e-14 1.0265702e-14          0.1 0.0090014258    2.2842686  0.029897621 
number of iterations: 1539 
    4600    24.714332      193           86          107 8.930838e-14 1.0318975e-14          0.1 0.0090014446    2.3514682   0.02989759 
number of iterations: 1541 
    4700     24.89682      193           86          107 9.0491913e-14 1.0373604e-14          0.1 0.0090014601    2.4195447  0.029897564 
number of iterations: 1545 
    4800    25.087375      194           86          108 9.1691131e-14 1.0429598e-14          0.1 0.0090014794    2.4885096  0.029897532 
number of iterations: 1543 
    4900    25.256064      194           86          108 9.2906241e-14 1.0486966e-14          0.1  0.009001499    2.5583752  0.029897499 
number of iterations: 1550 
    5000    25.497457      195           86          109 9.4137454e-14 1.0545716e-14          0.1 0.0090015189    2.6291534  0.029897466 
number of iterations: 1552 
    5100    25.675131      197           87          110 9.5384983e-14 1.0605856e-14          0.1  0.009001539    2.7008566  0.029897432 
number of iterations: 1548 
    5200    25.854774      199           88          111 9.6649044e-14 1.0667397e-14          0.1 0.0090015593    2.7734973  0.029897398 
number of iterations: 1559 
    5300    26.040366      199           88          111 9.7929857e-14 1.0730347e-14          0.1   0.00900158     2.847088  0.029897364 
number of iterations: 1561 
    5400    26.223599      202           90          112 9.9227644e-14 1.0794717e-14          0.1 0.0090016009    2.9216412  0.029897329 
number of iterations: 1565 
    5500    26.396277      206           92          114 1.0054263e-13 1.0860516e-14          0.1 0.0090016198    2.9971702  0.029897297 
number of iterations: 1471 
    5600    26.594343      211           94          117 1.0187504e-13 1.0927753e-14          0.1 0.0090016321     3.073688  0.029897277 
number of iterations: 1566 
    5700    26.780567      212           94          118 1.0322511e-13 1.0996443e-14          0.1 0.0090016537    3.1512079  0.029897241 
number of iterations: 1528 
    5800    26.972085      215           96          119 1.0459307e-13 1.1066594e-14          0.1 0.0090016711    3.2297433  0.029897212 
number of iterations: 1579 
    5900    27.158063      218           98          120 1.0597916e-13 1.1138222e-14          0.1 0.0090016932    3.3093083  0.029897175 
number of iterations: 1559 
    6000    27.334856      219           99          120 1.0738362e-13 1.1211336e-14          0.1 0.0090017156    3.3899163  0.029897137 
number of iterations: 1650 
    6100    27.530432      222          102          120 1.0880669e-13 1.128595e-14          0.1 0.0090017359    3.4715816  0.029897104 
number of iterations: 1686 
    6200    27.711282      226          104          122 1.1024862e-13 1.1362078e-14          0.1 0.0090017675    3.5543181  0.029897051 
number of iterations: 1502 
    6300    27.886887      228          106          122 1.1170965e-13 1.1439732e-14          0.1 0.0090017802    3.6381402   0.02989703 
number of iterations: 1553 
    6400     28.04856      233          109          124 1.1319005e-13 1.1518925e-14          0.1 0.0090018038    3.7230624   0.02989699 
number of iterations: 1724 
    6500    28.238543      234          110          124 1.1469007e-13 1.1599672e-14          0.1 0.0090018328    3.8090989  0.029896942 
number of iterations: 1589 
    6600    28.430047      236          111          125 1.1620997e-13 1.1681988e-14          0.1 0.0090018571    3.8962653  0.029896901 
number of iterations: 1566 
    6700    28.621524      240          114          126   1.1775e-13 1.1765887e-14          0.1 0.0090018772    3.9845763  0.029896868 
number of iterations: 1549 
    6800     28.79748      241          115          126 1.1931045e-13 1.1851384e-14          0.1 0.0090018975    4.0740474  0.029896834 
number of iterations: 1659 
    6900    28.970579      247          121          126 1.2089158e-13 1.1938497e-14          0.1 0.0090019264    4.1646943  0.029896785 
number of iterations: 1561 
    7000    29.165108      250          124          126 1.2249366e-13 1.202724e-14          0.1  0.009001952    4.2565325  0.029896743 
number of iterations: 1601 
    7100    29.357481      256          127          129 1.2411697e-13 1.2117632e-14          0.1 0.0090019778    4.3495775    0.0298967 
number of iterations: 1671 
    7200    29.547775      260          130          130 1.2576179e-13 1.2209687e-14          0.1 0.0090020099    4.4438455  0.029896646 
number of iterations: 1656 
    7300    29.728371      266          134          132 1.2742841e-13 1.2303422e-14          0.1 0.0090020338    4.5393524  0.029896606 
number of iterations: 1610 
    7400    29.928054      267          134          133 1.2911712e-13 1.2398857e-14          0.1 0.0090020573    4.6361155  0.029896567 
number of iterations: 1747 
    7500    30.133981      270          136          134 1.3082821e-13 1.2496007e-14          0.1  0.009002088    4.7341515  0.029896516 
number of iterations: 1619 
    7600    30.325959      273          137          136 1.3256197e-13 1.2594892e-14          0.1 0.0090021156    4.8334774   0.02989647 
number of iterations: 1622 
    7700    30.525689      274          138          136 1.3431871e-13 1.2695528e-14          0.1 0.0090021436    4.9341102  0.029896423 
number of iterations: 1714 
    7800    30.710856      276          140          136 1.3609872e-13 1.2797936e-14          0.1 0.0090021778    5.0360676  0.029896366 
number of iterations: 1629 
    7900    30.892612      281          142          139 1.3790233e-13 1.2902132e-14          0.1 0.0090022066    5.1393672  0.029896318 
number of iterations: 1690 
    8000     31.08283      288          145          143 1.3972984e-13 1.3008139e-14          0.1 0.0090022466    5.2440269  0.029896251 
number of iterations: 1625 
    8100    31.274024      293          148          145 1.4158157e-13 1.3115978e-14          0.1 0.0090022693    5.3500648  0.029896213 
number of iterations: 1643 
    8200    31.465494      295          149          146 1.4345784e-13 1.3225668e-14          0.1 0.0090022993    5.4574991  0.029896163 
number of iterations: 1640 
    8300    31.670626      296          150          146 1.4535897e-13 1.333723e-14          0.1 0.0090023298    5.5663484  0.029896112 
number of iterations: 1646 
    8400    31.876506      297          151          146 1.472853e-13 1.3450683e-14          0.1 0.0090023607    5.6766315  0.029896061 
number of iterations: 1646 
    8500    32.083578      300          151          149 1.4923715e-13 1.3566052e-14          0.1 0.0090023919    5.7883674  0.029896008 
number of iterations: 1659 
    8600    32.346022      301          152          149 1.5121487e-13 1.3683359e-14          0.1 0.0090024236    5.9015756  0.029895955 
number of iterations: 1652 
    8700    32.546914      306          154          152 1.532188e-13 1.3802625e-14          0.1 0.0090024557    6.0162756  0.029895902 
number of iterations: 1673 
    8800    32.758078      308          156          152 1.5524929e-13 1.3923875e-14          0.1 0.0090024903    6.1324869  0.029895844 
number of iterations: 1644 
    8900     32.94255      311          158          153 1.5730668e-13 1.4047133e-14          0.1 0.0090025216    6.2502301  0.029895792 
number of iterations: 1659 
    9000    33.128125      316          160          156 1.5939134e-13 1.4172422e-14          0.1 0.0090025452    6.3695254  0.029895752 
number of iterations: 1664 
    9100    33.341091      318          161          157 1.6150363e-13 1.4299767e-14          0.1 0.0090025818    6.4903936  0.029895691 
number of iterations: 1734 
    9200    33.525462      321          164          157 1.636439e-13 1.4429192e-14          0.1 0.0090026201    6.6128554  0.029895627 
number of iterations: 1758 
    9300    33.718205      322          165          157 1.6581254e-13 1.4560722e-14          0.1 0.0090026552    6.7369318  0.029895569 
number of iterations: 1686 
    9400    33.923708      324          166          158 1.6800992e-13 1.4694384e-14          0.1  0.009002689    6.8626444  0.029895512 
number of iterations: 1691 
    9500    34.124389      325          167          158 1.7023643e-13 1.4830205e-14          0.1 0.0090027209    6.9900149  0.029895459 
number of iterations: 1694 
    9600    34.315239      328          169          159 1.7249243e-13 1.4968211e-14          0.1 0.0090027427    7.1190653  0.029895423 
number of iterations: 1684 
    9700    34.503314      329          169          160 1.7477834e-13 1.510843e-14          0.1 0.0090027813    7.2498174  0.029895358 
number of iterations: 1681 
    9800    34.705801      332          171          161 1.7709453e-13 1.5250888e-14          0.1 0.0090028181    7.3822941  0.029895297 
number of iterations: 1685 
    9900    34.907336      336          172          164 1.7944142e-13 1.5395612e-14          0.1 0.0090028554    7.5165184  0.029895234 
number of iterations: 1727 
   10000    35.100213      342          177          165 1.8181942e-13 1.554263e-14          0.1 0.0090029031    7.6525136  0.029895155 
number of iterations: 1746 
   10100    35.371179      346          178          168 1.8422892e-13 1.569197e-14          0.1 0.0090029464    7.7903033  0.029895083 
number of iterations: 1720 
   10200    35.581684      353          182          171 1.8667036e-13 1.5843664e-14          0.1 0.0090029878    7.9299106  0.029895013 
number of iterations: 1697 
   10300    35.770423      356          185          171 1.8914415e-13 1.5997742e-14          0.1 0.0090030251    8.0713602  0.029894951 
number of iterations: 1674 
   10400    35.971275      359          185          174 1.9165073e-13 1.6154236e-14          0.1 0.0090030651    8.2146765  0.029894884 
number of iterations: 1818 
   10500    36.175226      364          188          176 1.9419052e-13 1.6313175e-14          0.1 0.0090031095    8.3598845   0.02989481 
number of iterations: 1692 
   10600     36.35934      366          189          177 1.9676397e-13 1.6474592e-14          0.1 0.0090031507    8.5070089  0.029894741 
number of iterations: 1703 
   10700    36.551667      371          191          180 1.9937153e-13 1.6638518e-14          0.1 0.0090031925    8.6560756  0.029894672 
number of iterations: 1725 
   10800    36.746795      375          193          182 2.0201363e-13 1.6804985e-14          0.1 0.0090032372    8.8071099  0.029894597 
number of iterations: 1713 
   10900    36.932209      376          193          183 2.0469076e-13 1.6974027e-14          0.1 0.0090032801    8.9601379  0.029894526 
number of iterations: 1718 
   11000    37.124599      380          197          183 2.0740336e-13 1.7145676e-14          0.1 0.0090033205    9.1151864  0.029894458 
number of iterations: 1758 
   11100    37.345962      384          201          183 2.1015191e-13 1.7319971e-14          0.1 0.0090033688    9.2722816  0.029894377 
number of iterations: 1725 
   11200     37.53345      385          202          183 2.1293688e-13 1.7496943e-14          0.1 0.0090034088    9.4314506  0.029894311 
number of iterations: 1782 
   11300    37.744263      390          206          184 2.1575876e-13 1.767663e-14          0.1 0.0090034607     9.592722  0.029894224 
number of iterations: 1749 
   11400    37.956181      399          210          189 2.1861804e-13 1.7859065e-14          0.1 0.0090035102    9.7561229  0.029894141 
number of iterations: 1746 
   11500    38.161773      406          215          191 2.215152e-13 1.8044281e-14          0.1 0.0090035513     9.921682  0.029894073 
number of iterations: 1667 
   11600    38.349942      412          220          192 2.2445077e-13 1.823232e-14          0.1 0.0090035913    10.089427  0.029894006 
number of iterations: 1796 
   11700    38.531233      416          223          193 2.2742523e-13 1.8423217e-14          0.1 0.0090036418    10.259388  0.029893922 
number of iterations: 1762 
   11800    38.704345      421          227          194 2.3043911e-13 1.8617009e-14          0.1 0.0090036961    10.431593  0.029893831 
number of iterations: 1719 
   11900    38.908137      428          230          198 2.3349294e-13 1.8813738e-14          0.1 0.0090037416    10.606072  0.029893755 
number of iterations: 1773 
   12000    39.083614      433          234          199 2.3658723e-13 1.9013443e-14          0.1 0.0090037918    10.782855  0.029893671 
number of iterations: 1745 
   12100     39.32935      439          238          201 2.3972253e-13 1.9216164e-14          0.1  0.009003842    10.961974  0.029893587 
number of iterations: 1796 
   12200    39.525204      445          243          202 2.4289937e-13 1.9421942e-14          0.1 0.0090039033    11.143458  0.029893485 
number of iterations: 1744 
   12300      39.7319      451          245          206 2.4611832e-13 1.9630819e-14          0.1  0.009003955    11.327339  0.029893399 
number of iterations: 1751 
   12400     39.93368      459          250          209 2.4937993e-13 1.9842838e-14          0.1 0.0090040056    11.513649  0.029893314 
number of iterations: 1766 
   12500    40.148614      465          254          211 2.5268476e-13 2.0058039e-14          0.1 0.0090040651    11.702421  0.029893215 
number of iterations: 1803 
   12600     40.34661      473          259          214 2.5603338e-13 2.0276465e-14          0.1 0.0090041259    11.893686  0.029893114 
number of iterations: 1764 
   12700    40.557287      477          260          217 2.5942638e-13 2.0498161e-14          0.1 0.0090041833    12.087478  0.029893018 
number of iterations: 1739 
   12800    40.736984      483          265          218 2.6286435e-13 2.0723171e-14          0.1 0.0090042364    12.283829  0.029892929 
number of iterations: 1761 
   12900    40.943471      487          267          220 2.6634788e-13 2.0951541e-14          0.1 0.0090042925    12.482775  0.029892835 
number of iterations: 1813 
   13000     41.13712      495          272          223 2.6987757e-13 2.1183315e-14          0.1 0.0090043487    12.684349  0.029892742 
number of iterations: 1786 
   13100    41.366632      501          275          226 2.7345404e-13 2.1418541e-14          0.1 0.0090044099    12.888586  0.029892639 
number of iterations: 1729 
   13200    41.563904      509          280          229 2.770779e-13 2.1657266e-14          0.1 0.0090044609    13.095521  0.029892554 
number of iterations: 1763 
   13300    41.748359      513          283          230 2.8074979e-13 2.189954e-14          0.1 0.0090045215    13.305191  0.029892453 
number of iterations: 1780 
   13400    41.952185      518          286          232 2.8447033e-13 2.214541e-14          0.1 0.0090045804     13.51763  0.029892355 
number of iterations: 1777 
   13500    42.217204      523          289          234 2.8824019e-13 2.2394926e-14          0.1 0.0090046437    13.732877  0.029892249 
number of iterations: 1806 
   13600    42.429471      530          293          237   2.9206e-13 2.2648138e-14          0.1 0.0090047086    13.950969  0.029892141 
number of iterations: 1793 
   13700    42.629778      539          298          241 2.9593043e-13 2.2905094e-14          0.1 0.0090047676    14.171942  0.029892042 
number of iterations: 1788 
   13800    42.835076      548          303          245 2.9985215e-13 2.3165849e-14          0.1   0.00900483    14.395836  0.029891938 
number of iterations: 1833 
   13900     43.03274      555          304          251 3.0382585e-13 2.3430455e-14          0.1 0.0090049024    14.622688  0.029891817 
number of iterations: 1807 
   14000    43.274157      559          305          254 3.078522e-13 2.3698966e-14          0.1 0.0090049619    14.852537  0.029891718 
number of iterations: 1827 
   14100    43.461039      569          309          260 3.1193191e-13 2.3971437e-14          0.1  0.009005039    15.085424  0.029891589 
number of iterations: 1789 
   14200    43.673841      579          315          264 3.1606569e-13 2.4247922e-14          0.1 0.0090050923    15.321388    0.0298915 
number of iterations: 1827 
   14300     43.88344      587          320          267 3.2025425e-13 2.4528478e-14          0.1  0.009005161     15.56047  0.029891386 
number of iterations: 1880 
   14400    44.100113      591          324          267 3.2449832e-13 2.481316e-14          0.1 0.0090052325    15.802711  0.029891266 
number of iterations: 1811 
   14500    44.285399      598          325          273 3.2879863e-13 2.5102028e-14          0.1 0.0090053046    16.048154  0.029891146 
number of iterations: 1819 
   14600    44.503432      604          329          275 3.3315592e-13 2.539514e-14          0.1 0.0090053737     16.29684   0.02989103 
number of iterations: 1783 
   14700    44.691063      613          335          278 3.3757096e-13 2.5692553e-14          0.1 0.0090054363    16.548813  0.029890926 
number of iterations: 1810 
   14800    44.906084      617          337          280 3.4204451e-13 2.5994329e-14          0.1 0.0090055083    16.804117  0.029890806 
number of iterations: 1822 
   14900    45.104337      623          342          281 3.4657735e-13 2.6300528e-14          0.1  0.009005576    17.062794  0.029890693 
number of iterations: 1846 
   15000    45.391765      629          345          284 3.5117025e-13 2.6611212e-14          0.1 0.0090056419     17.32489  0.029890583 
number of iterations: 1904 
   15100    45.592569      634          348          286 3.5582402e-13 2.6926442e-14          0.1 0.0090057128    17.590449  0.029890464 
number of iterations: 1911 
   15200    45.810132      643          352          291 3.6053946e-13 2.7246283e-14          0.1 0.0090057975    17.859517  0.029890323 
number of iterations: 1816 
   15300    46.001313      650          356          294 3.6531739e-13  2.75708e-14          0.1 0.0090058642    18.132141  0.029890211 
number of iterations: 1838 
   15400    46.192084      653          358          295 3.7015864e-13 2.7900061e-14          0.1 0.0090059418    18.408368  0.029890082 
number of iterations: 1801 
   15500    46.378295      670          365          305 3.7506404e-13 2.8234131e-14          0.1 0.0090060128    18.688246  0.029889963 
number of iterations: 1827 
   15600    46.583238      677          370          307 3.8003446e-13 2.8573081e-14          0.1 0.0090060954    18.971823  0.029889825 
number of iterations: 1864 
   15700    46.799455      692          380          312 3.8507074e-13 2.8916975e-14          0.1 0.0090061833    19.259149  0.029889679 
number of iterations: 1898 
   15800    47.024309      696          381          315 3.9017376e-13 2.9265885e-14          0.1 0.0090062721    19.550271   0.02988953 
number of iterations: 1939 
   15900    47.241617      708          388          320 3.9534441e-13 2.9619881e-14          0.1  0.009006354    19.845242  0.029889394 
number of iterations: 1869 
   16000    47.458142      718          393          325 4.0058358e-13 2.9979037e-14          0.1 0.0090064462    20.144111   0.02988924 
number of iterations: 1875 
   16100    47.667081      727          398          329 4.0589218e-13 3.0343422e-14          0.1 0.0090065208    20.446931  0.029889115 
number of iterations: 1872 
   16200    47.876379      733          402          331 4.1127113e-13 3.0713111e-14          0.1 0.0090066061    20.753753  0.029888973 
number of iterations: 1893 
   16300    48.072992      744          409          335 4.1672136e-13 3.108818e-14          0.1 0.0090066825     21.06463  0.029888845 
number of iterations: 1892 
   16400    48.285306      750          411          339 4.2224382e-13 3.1468705e-14          0.1 0.0090067782    21.379615  0.029888685 
number of iterations: 1865 
   16500    48.483349      761          419          342 4.2783947e-13 3.1854763e-14          0.1 0.0090068575    21.698763  0.029888553 
number of iterations: 1855 
   16600     48.68924      767          423          344 4.3350927e-13 3.2246432e-14          0.1 0.0090069436    22.022131  0.029888409 
number of iterations: 1899 
   16700    48.899243      774          427          347 4.392542e-13 3.2643795e-14          0.1 0.0090070374    22.349772  0.029888252 
number of iterations: 1940 
   16800    49.105512      781          432          349 4.4507527e-13 3.3046929e-14          0.1 0.0090071144    22.681744  0.029888124 
number of iterations: 1950 
   16900    49.308755      794          441          353 4.5097348e-13 3.3455919e-14          0.1 0.0090072241    23.018104  0.029887941 
number of iterations: 1868 
   17000    49.526817      800          445          355 4.5694985e-13 3.3870846e-14          0.1 0.0090073128    23.358909  0.029887793 
number of iterations: 1862 
   17100    49.719706      812          450          362 4.6300543e-13 3.4291796e-14          0.1 0.0090073994    23.704219  0.029887648 
number of iterations: 1906 
   17200     49.93516      819          457          362 4.6914125e-13 3.4718854e-14          0.1 0.0090074982    24.054094  0.029887483 
number of iterations: 1902 
   17300     50.14034      832          461          371 4.7535838e-13 3.5152108e-14          0.1 0.0090075984    24.408593  0.029887316 
number of iterations: 1995 
   17400    50.368122      843          468          375 4.8165791e-13 3.5591643e-14          0.1 0.0090077161    24.767779  0.029887119 
number of iterations: 1894 
   17500     50.61827      862          478          384 4.8804091e-13 3.6037549e-14          0.1 0.0090078048    25.131711  0.029886971 
number of iterations: 1948 
   17600     50.82618      871          482          389 4.9450851e-13 3.6489921e-14          0.1 0.0090079176    25.500455  0.029886783 
number of iterations: 1890 
   17700    51.029641      883          490          393 5.0106181e-13 3.6948847e-14          0.1  0.009008017    25.874072  0.029886617 
number of iterations: 1893 
   17800    51.230538      899          500          399 5.0770196e-13 3.7414422e-14          0.1  0.009008115    26.252627  0.029886453 
number of iterations: 1895 
   17900    51.479457      909          504          405 5.144301e-13 3.788674e-14          0.1 0.0090082179    26.636186  0.029886281 
number of iterations: 1874 
   18000    51.687623      926          518          408 5.2124741e-13 3.8365898e-14          0.1 0.0090083138    27.024815  0.029886121 
number of iterations: 1918 
   18100    51.896927      943          529          414 5.2815506e-13 3.8851993e-14          0.1 0.0090084352     27.41858  0.029885919 
number of iterations: 1917 
   18200    52.124526      950          532          418 5.3515425e-13 3.9345125e-14          0.1 0.0090085515    27.817551  0.029885724 
number of iterations: 1982 
   18300    52.332369      960          538          422 5.422462e-13 3.9845392e-14          0.1 0.0090086817    28.221795  0.029885507 
number of iterations: 1923 
   18400    52.532593      975          548          427 5.4943212e-13 4.0352898e-14          0.1 0.0090087927    28.631383  0.029885322 
number of iterations: 1923 
   18500    52.731507      994          558          436 5.5671328e-13 4.0867746e-14          0.1 0.0090089213    29.046385  0.029885107 
number of iterations: 1952 
   18600    52.926315     1005          563          442 5.6409093e-13 4.1390038e-14          0.1 0.0090090359    29.466872  0.029884916 
number of iterations: 1944 
   18700    53.138873     1019          573          446 5.7156635e-13 4.1919882e-14          0.1 0.0090091623    29.892917  0.029884705 
number of iterations: 1945 
   18800    53.336772     1029          578          451 5.7914083e-13 4.2457389e-14          0.1 0.0090093016    30.324593  0.029884472 
number of iterations: 1912 
   18900    53.635583     1042          585          457 5.8681569e-13 4.3002666e-14          0.1 0.0090094209    30.761975  0.029884273 
number of iterations: 1929 
   19000     53.83604     1053          590          463 5.9459225e-13 4.3555825e-14          0.1 0.0090095494    31.205139  0.029884058 
number of iterations: 1959 
   19100    54.064436     1065          597          468 6.0247187e-13 4.4116979e-14          0.1 0.0090096656     31.65416  0.029883864 
number of iterations: 1964 
   19200    54.270303     1075          603          472 6.1045592e-13 4.4686242e-14          0.1 0.0090098016    32.109115  0.029883637 
number of iterations: 1943 
   19300    54.475842     1094          613          481 6.1854577e-13 4.5263732e-14          0.1 0.0090099288    32.570084  0.029883425 
number of iterations: 1990 
   19400     54.68593     1118          628          490 6.2674282e-13 4.5849567e-14          0.1 0.0090100776    33.037147  0.029883177 
number of iterations: 1943 
   19500    54.908455     1130          635          495 6.3504851e-13 4.6443863e-14          0.1 0.0090102195    33.510382   0.02988294 
number of iterations: 1961 
   19600    55.120814     1140          639          501 6.4346426e-13 4.7046742e-14          0.1 0.0090103504    33.989873  0.029882721 
number of iterations: 1972 
   19700    55.369029     1150          645          505 6.5199153e-13 4.7658327e-14          0.1 0.0090104942    34.475702  0.029882481 
number of iterations: 1920 
   19800     55.61702     1167          654          513 6.6063182e-13 4.8278743e-14          0.1 0.0090106186    34.967953  0.029882273 
number of iterations: 2004 
   19900    55.810026     1179          662          517 6.693866e-13 4.8908117e-14          0.1 0.0090107729    35.466712  0.029882016 
number of iterations: 2032 
   20000    56.029155     1192          665          527 6.782574e-13 4.9546577e-14          0.1 0.0090109334    35.972063  0.029881748 
number of iterations: 1983 
   20100    56.236002     1203          669          534 6.8724576e-13 5.0194252e-14          0.1 0.0090110791    36.484094  0.029881504 
number of iterations: 1945 
   20200    56.456322     1217          674          543 6.9635323e-13 5.0851277e-14          0.1 0.0090112227    37.002892  0.029881265 
number of iterations: 1934 
   20300    56.677354     1237          685          552 7.055814e-13 5.1517787e-14          0.1 0.0090113662    37.528546  0.029881025 
number of iterations: 1962 
   20400    56.893263     1261          698          563 7.1493185e-13 5.2193915e-14          0.1 0.0090115252    38.061148   0.02988076 
number of iterations: 1976 
   20500    57.096539     1277          708          569 7.2440622e-13 5.2879802e-14          0.1 0.0090116874    38.600789  0.029880489 
number of iterations: 1980 
   20600    57.309931     1297          716          581 7.3400615e-13 5.3575587e-14          0.1 0.0090118429    39.147562  0.029880229 
number of iterations: 2038 
   20700    57.572881     1315          726          589 7.4373329e-13 5.4281412e-14          0.1 0.0090120024    39.701561  0.029879963 
number of iterations: 1981 
   20800    57.783931     1327          733          594 7.5358934e-13 5.4997423e-14          0.1 0.0090121775    40.262883  0.029879671 
number of iterations: 2008 
   20900    57.996526     1340          739          601  7.63576e-13 5.5723763e-14          0.1 0.0090123283    40.831625  0.029879419 
number of iterations: 2037 
   21000    58.208308     1357          750          607  7.73695e-13 5.6460582e-14          0.1 0.0090124836    41.407883  0.029879159 
number of iterations: 1972 
   21100    58.428655     1373          762          611 7.8394811e-13 5.720803e-14          0.1 0.0090126542    41.991757  0.029878875 
number of iterations: 2010 
   21200    58.669886     1394          775          619 7.9433708e-13 5.7966262e-14          0.1   0.00901283    42.583349  0.029878581 
number of iterations: 2023 
   21300    58.888884     1414          787          627 8.0486373e-13 5.8735433e-14          0.1 0.0090129951     43.18276  0.029878305 
number of iterations: 2026 
   21400    59.102435     1431          795          636 8.1552988e-13 5.9515698e-14          0.1 0.0090131734    43.790094  0.029878008 
number of iterations: 2000 
   21500    59.311001     1446          808          638 8.2633738e-13 6.0307217e-14          0.1 0.0090133395    44.405455   0.02987773 
number of iterations: 2011 
   21600    59.566918     1468          819          649 8.372881e-13 6.1110153e-14          0.1 0.0090135008     45.02895  0.029877461 
number of iterations: 2056 
   21700    59.782464     1492          834          658 8.4838394e-13 6.1924666e-14          0.1 0.0090136825    45.660685  0.029877157 
number of iterations: 2042 
   21800    60.021016     1515          844          671 8.5962683e-13 6.2750927e-14          0.1 0.0090138541     46.30077  0.029876871 
number of iterations: 2063 
   21900    60.259044     1541          860          681 8.710187e-13 6.3589104e-14          0.1 0.0090140518    46.949314  0.029876541 
number of iterations: 2011 
   22000      60.4755     1561          867          694 8.8256154e-13 6.4439368e-14          0.1 0.0090142297     47.60643  0.029876244 
number of iterations: 2034 
   22100    60.703767     1581          878          703 8.9425734e-13 6.5301894e-14          0.1 0.0090144075     48.27223  0.029875947 
number of iterations: 2025 
   22200    60.916458     1598          891          707 9.0610814e-13 6.6176857e-14          0.1 0.0090145998    48.946831  0.029875625 
number of iterations: 2032 
   22300    61.141257     1617          901          716 9.1811598e-13 6.7064436e-14          0.1 0.0090147954    49.630348  0.029875299 
number of iterations: 1979 
   22400     61.36119     1641          912          729 9.3028295e-13 6.7964813e-14          0.1 0.0090149825    50.322899  0.029874986 
number of iterations: 2099 
   22500    61.592253     1664          924          740 9.4261116e-13 6.8878172e-14          0.1 0.0090151742    51.024603  0.029874666 
number of iterations: 2077 
   22600    61.854456     1685          934          751 9.5510274e-13 6.9804701e-14          0.1 0.0090153889    51.735581  0.029874308 
number of iterations: 2048 
   22700    62.093904     1703          949          754 9.6775986e-13 7.074459e-14          0.1 0.0090155867    52.455955  0.029873978 
number of iterations: 2033 
   22800    62.324617     1729          962          767 9.8058472e-13 7.169803e-14          0.1 0.0090157836    53.185849  0.029873649 
number of iterations: 2038 
   22900    62.531521     1757          982          775 9.9357952e-13 7.2665215e-14          0.1 0.0090159916     53.92539  0.029873302 
number of iterations: 2032 
   23000    62.756777     1776          996          780 1.0067465e-12 7.3646344e-14          0.1 0.0090162085    54.674705  0.029872939 
number of iterations: 2029 
   23100     62.98392     1795         1006          789 1.020088e-12 7.4641616e-14          0.1 0.0090164054    55.433924   0.02987261 
number of iterations: 2023 
   23200    63.235915     1817         1018          799 1.0336063e-12 7.5651239e-14          0.1 0.0090166088    56.203175  0.029872271 
number of iterations: 2079 
   23300    63.453455     1843         1031          812 1.0473038e-12 7.6675418e-14          0.1 0.0090168457    56.982591  0.029871875 
number of iterations: 2058 
   23400    63.788624     1868         1045          823 1.0611828e-12 7.7714364e-14          0.1 0.0090170618    57.772309  0.029871514 
number of iterations: 2059 
   23500    64.006772     1900         1065          835 1.0752457e-12 7.8768288e-14          0.1 0.0090172791    58.572463  0.029871151 
number of iterations: 2102 
   23600    64.223958     1932         1085          847 1.0894949e-12 7.9837406e-14          0.1   0.00901754    59.383193  0.029870716 
number of iterations: 2053 
   23700    64.436302     1954         1095          859 1.103933e-12 8.0921936e-14          0.1 0.0090177666    60.204637  0.029870337 
number of iterations: 2066 
   23800    64.657139     1971         1104          867 1.1185624e-12 8.2022102e-14          0.1 0.0090179954    61.036937  0.029869955 
number of iterations: 2105 
   23900    64.895659     2004         1123          881 1.1333857e-12 8.3138128e-14          0.1 0.0090182487    61.880237  0.029869532 
number of iterations: 2007 
   24000    65.121517     2029         1132          897 1.1473258e-12 8.427024e-14          0.1 0.0090184528    62.733855  0.029869191 
number of iterations: 2114 
   24100    65.377859     2054         1142          912 1.1625303e-12 8.5418672e-14          0.1 0.0090186944    63.598754  0.029868788 
number of iterations: 2123 
   24200    65.640309     2079         1156          923 1.1779362e-12 8.658366e-14          0.1  0.009018936    64.475083  0.029868384 
number of iterations: 2112 
   24300    65.942928     2111         1176          935 1.1935464e-12 8.7765442e-14          0.1 0.0090192063    65.362995  0.029867933 
number of iterations: 2064 
   24400    66.185424     2141         1189          952 1.2093633e-12 8.8964263e-14          0.1 0.0090194488    66.262639  0.029867528 
number of iterations: 2033 
   24500    66.400167     2177         1209          968 1.2253899e-12 9.0180366e-14          0.1 0.0090196737    67.174172  0.029867152 
number of iterations: 2152 
   24600    66.669408     2211         1228          983 1.2416289e-12 9.1413999e-14          0.1 0.0090199616    68.097751  0.029866672 
number of iterations: 2109 
   24700    66.888241     2244         1247          997 1.258083e-12 9.2665418e-14          0.1 0.0090202203    69.033536   0.02986624 
number of iterations: 2093 
   24800    67.110884     2267         1262         1005 1.2747552e-12 9.3934878e-14          0.1 0.0090204782    69.981686  0.029865809 
number of iterations: 2120 
   24900    67.342233     2291         1278         1013 1.2916484e-12 9.5222639e-14          0.1 0.0090207506    70.942363  0.029865354 
number of iterations: 2128 
   25000    67.575063     2322         1294         1028 1.3087654e-12 9.6528967e-14          0.1 0.0090210262    71.915737  0.029864894 
number of iterations: 2124 
   25100    67.838284     2354         1309         1045 1.3261092e-12 9.7854127e-14          0.1 0.0090213045    72.901974  0.029864429 
number of iterations: 2108 
   25200    68.082107     2385         1329         1056 1.3436829e-12 9.9198393e-14          0.1 0.0090215765    73.901244  0.029863975 
number of iterations: 2129 
   25300     68.32282     2414         1343         1071 1.3614895e-12 1.0056204e-13          0.1 0.0090218752    74.913718  0.029863476 
number of iterations: 2126 
   25400    68.538969     2435         1353         1082 1.379532e-12 1.0194534e-13          0.1 0.0090221608    75.939572  0.029862999 
number of iterations: 2156 
   25500    68.796501     2467         1371         1096 1.3978137e-12 1.033486e-13          0.1 0.0090224853    76.978983  0.029862457 
number of iterations: 2176 
   25600    69.043842     2508         1392         1116 1.4163376e-12 1.0477208e-13          0.1 0.0090227941    78.032125  0.029861941 
number of iterations: 2123 
   25700    69.265341     2547         1409         1138 1.435107e-12 1.0621609e-13          0.1 0.0090230867    79.099181  0.029861453 
number of iterations: 2107 
   25800    69.510653     2576         1426         1150 1.4541251e-12 1.0768092e-13          0.1 0.0090233814    80.180339  0.029860961 
number of iterations: 2125 
   25900    69.769361     2610         1444         1166 1.4733952e-12 1.0916687e-13          0.1 0.0090236971    81.275785  0.029860433 
number of iterations: 2132 
   26000    70.014166     2646         1464         1182 1.4929207e-12 1.1067425e-13          0.1 0.0090240122    82.385706  0.029859907 
number of iterations: 2141 
   26100    70.240392     2679         1484         1195 1.512705e-12 1.1220336e-13          0.1 0.0090243236    83.510296  0.029859387 
number of iterations: 2140 
   26200     70.49239     2721         1507         1214 1.5327514e-12 1.1375452e-13          0.1 0.0090246094    84.649743   0.02985891 
number of iterations: 2083 
   26300     70.71867     2748         1519         1229 1.5530635e-12 1.1532804e-13          0.1 0.0090249056    85.804246  0.029858415 
number of iterations: 2167 
   26400    70.948067     2793         1544         1249 1.5736448e-12 1.1692426e-13          0.1 0.0090252277    86.974004  0.029857877 
number of iterations: 2149 
   26500     71.17191     2832         1567         1265 1.5944988e-12 1.1854349e-13          0.1 0.0090255672    88.159219   0.02985731 
number of iterations: 2144 
   26600    71.407961     2870         1588         1282 1.6156292e-12 1.2018608e-13          0.1 0.0090258876    89.360093  0.029856775 
number of iterations: 2151 
   26700     71.63822     2903         1607         1296 1.6358736e-12 1.2185235e-13          0.1 0.0090261961    90.575942  0.029856259 
number of iterations: 2180 
   26800    71.912654     2930         1623         1307 1.6575523e-12 1.2354265e-13          0.1  0.009026571    91.807857  0.029855633 
number of iterations: 2195 
   26900    72.180032     2978         1649         1329 1.6795182e-12 1.2525732e-13          0.1 0.0090269277    93.056051  0.029855038 
number of iterations: 2179 
   27000    72.411376     3009         1665         1344 1.7017753e-12 1.2699672e-13          0.1  0.009027313    94.320737  0.029854394 
number of iterations: 2156 
   27100    72.652484     3059         1691         1368 1.7243272e-12 1.2876121e-13          0.1 0.0090276639    95.602137  0.029853808 
number of iterations: 2174 
   27200    72.881302     3097         1712         1385 1.7471781e-12 1.3055115e-13          0.1 0.0090280247    96.900468  0.029853206 
number of iterations: 2164 
   27300    73.117493     3144         1738         1406 1.7703317e-12 1.323669e-13          0.1 0.0090283802    98.215955  0.029852612 
number of iterations: 2207 
   27400    73.353567     3191         1766         1425 1.7937922e-12 1.3420884e-13          0.1 0.0090287701    99.548824  0.029851961 
number of iterations: 2182 
   27500     73.64092     3243         1794         1449 1.8175636e-12 1.3607734e-13          0.1 0.0090291699     100.8993  0.029851293 
number of iterations: 2175 
   27600    73.895907     3287         1812         1475  1.84165e-12 1.379728e-13          0.1 0.0090295457    102.26763  0.029850665 
number of iterations: 2228 
   27700    74.143211     3328         1832         1496 1.8660555e-12 1.3979763e-13          0.1 0.0090299429    103.65407  0.029850002 
number of iterations: 2135 
   27800    74.382872     3370         1859         1511 1.8907845e-12 1.4174679e-13          0.1 0.0090302972    105.05883   0.02984941 
number of iterations: 2179 
   27900    74.636181     3415         1881         1534 1.9158412e-12 1.4372406e-13          0.1 0.0090307072    106.48214  0.029848725 
number of iterations: 2195 
   28000    74.871257     3471         1915         1556  1.94123e-12 1.4572986e-13          0.1  0.009031128    107.92426  0.029848023 
number of iterations: 2197 
   28100    75.140205     3526         1943         1583 1.9669552e-12 1.4776459e-13          0.1 0.0090315584    109.38544  0.029847304 
number of iterations: 2196 
   28200    75.461096     3573         1973         1600 1.9930213e-12 1.4982867e-13          0.1 0.0090319761    110.86592  0.029846606 
number of iterations: 2218 
   28300    75.772532     3621         2002         1619 2.0194328e-12 1.5192253e-13          0.1 0.0090324077    112.36596  0.029845885 
number of iterations: 2182 
   28400    76.025118     3673         2026         1647 2.0447653e-12 1.5404659e-13          0.1 0.0090328085    113.88473  0.029845216 
number of iterations: 2193 
   28500     76.25654     3730         2063         1667 2.0718625e-12 1.562013e-13          0.1 0.0090332182    115.42356  0.029844531 
number of iterations: 2240 
   28600    76.498332     3774         2084         1690 2.0993189e-12 1.583871e-13          0.1 0.0090337052    116.98273  0.029843718 
number of iterations: 2191 
   28700    76.759673     3814         2106         1708 2.127139e-12 1.6060443e-13          0.1  0.009034153     118.5625   0.02984297 
number of iterations: 2187 
   28800     77.00203     3852         2130         1722 2.1541258e-12 1.6285375e-13          0.1  0.009034562    120.16222  0.029842287 
number of iterations: 2187 
   28900    77.238899     3890         2147         1743 2.1826722e-12 1.6513552e-13          0.1 0.0090350125    121.78307  0.029841534 
number of iterations: 2226 
   29000     77.49556     3949         2171         1778 2.2115969e-12 1.6745022e-13          0.1 0.0090354713    123.42533  0.029840768 
number of iterations: 2237 
   29100    77.783924     4004         2206         1798 2.240905e-12 1.6979831e-13          0.1 0.0090359483     125.0893  0.029839971 
number of iterations: 2228 
   29200    78.027504     4055         2231         1824 2.2706014e-12 1.7218028e-13          0.1 0.0090364551    126.77525  0.029839125 
number of iterations: 2238 
   29300    78.291406     4116         2261         1855 2.2994491e-12 1.7459663e-13          0.1 0.0090368931    128.48252  0.029838393 
number of iterations: 2225 
   29400    78.537868     4172         2296         1876 2.3299214e-12 1.7704783e-13          0.1 0.0090373624    130.21234  0.029837609 
number of iterations: 2272 
   29500    78.800287     4230         2326         1904 2.3607974e-12 1.7953441e-13          0.1 0.0090378876    131.96502  0.029836732 
number of iterations: 2225 
   29600    79.047837     4296         2363         1933 2.3920827e-12 1.8205687e-13          0.1 0.0090383685    133.74086  0.029835929 
number of iterations: 2254 
   29700    79.316998     4356         2398         1958 2.4237825e-12 1.8461573e-13          0.1 0.0090389104    135.54016  0.029835024 
number of iterations: 2222 
   29800     79.61468     4406         2423         1983 2.4547761e-12 1.8721151e-13          0.1 0.0090394144    137.36237  0.029834182 
number of iterations: 2256 
   29900    79.882082     4475         2456         2019 2.4873067e-12 1.8984475e-13          0.1 0.0090399413    139.20865  0.029833302 
number of iterations: 2221 
   30000    80.134594     4551         2504         2047 2.5202684e-12 1.9251598e-13          0.1 0.0090403969    141.07933   0.02983254 
number of iterations: 2272 
   30100     80.38481     4603         2525         2078 2.5536669e-12 1.9522577e-13          0.1 0.0090409242    142.97472   0.02983166 
number of iterations: 2280 
   30200    80.661481     4669         2556         2113 2.5875079e-12 1.9797467e-13          0.1 0.0090414692    144.89515   0.02983075 
number of iterations: 2252 
   30300    80.944293     4742         2605         2137 2.6217975e-12 2.0076324e-13          0.1 0.0090419919    146.84095  0.029829876 
number of iterations: 2232 
   30400    81.209027     4803         2634         2169 2.6565414e-12 2.0359206e-13          0.1 0.0090425472    148.81245  0.029828949 
number of iterations: 2312 
   30500    81.494188     4870         2671         2199 2.6917457e-12 2.0646171e-13          0.1 0.0090431558       150.81  0.029827932 
number of iterations: 2293 
   30600    81.763385     4929         2696         2233 2.7274166e-12 2.0937278e-13          0.1 0.0090437376    152.83394  0.029826961 
number of iterations: 2232 
   30700    82.025591     4973         2721         2252 2.7635602e-12 2.1232586e-13          0.1 0.0090442467    154.88462   0.02982611 
number of iterations: 2330 
   30800    82.356038     5041         2749         2292 2.8001827e-12 2.1532158e-13          0.1 0.0090449108    156.96239  0.029825001 
number of iterations: 2300 
   30900    82.626635     5118         2801         2317 2.8372905e-12 2.1836054e-13          0.1 0.0090454813     159.0676  0.029824048 
number of iterations: 2279 
   31000    82.891417     5181         2836         2345 2.8748901e-12 2.2144337e-13          0.1 0.0090461142    161.20063  0.029822991 
number of iterations: 2275 
   31100    83.153827     5250         2867         2383 2.9129879e-12 2.245707e-13          0.1 0.0090467293    163.36184  0.029821964 
number of iterations: 2259 
   31200     83.45371     5322         2896         2426 2.950507e-12 2.2765823e-13          0.1 0.0090473305     165.5508  0.029820959 
number of iterations: 2279 
   31300    83.724413     5399         2941         2458 2.9896069e-12 2.308753e-13          0.1 0.0090479407    167.76868   0.02981994 
number of iterations: 2285 
   31400    84.012116     5463         2975         2488 3.0292249e-12 2.3413882e-13          0.1  0.009048534    170.01586  0.029818949 
number of iterations: 2291 
   31500    84.263026     5529         3011         2518 3.0693679e-12 2.3744946e-13          0.1 0.0090492203    172.29273  0.029817803 
number of iterations: 2297 
   31600    84.558147     5616         3052         2564 3.108843e-12 2.4070537e-13          0.1 0.0090498593    174.59879  0.029816735 
number of iterations: 2351 
   31700    84.817487     5692         3104         2588 3.1500411e-12 2.4411084e-13          0.1 0.0090505076    176.93532  0.029815652 
number of iterations: 2321 
   31800    85.098962     5760         3135         2625 3.1904007e-12 2.4756548e-13          0.1 0.0090511901    179.30166  0.029814512 
number of iterations: 2308 
   31900    85.448423     5846         3178         2668 3.2326795e-12   2.5107e-13          0.1 0.0090518603    181.69926  0.029813393 
number of iterations: 2292 
   32000    85.749571     5931         3219         2712 3.2755187e-12 2.5462513e-13          0.1 0.0090525388    184.12853  0.029812259 
number of iterations: 2312 
   32100    86.025613     6013         3263         2750 3.3163554e-12 2.5823159e-13          0.1 0.0090532211    186.58793   0.02981112 
number of iterations: 2362 
   32200    86.302839     6100         3310         2790 3.3603034e-12 2.6189013e-13          0.1 0.0090539481    189.07982  0.029809905 
number of iterations: 2301 
   32300    86.575336     6177         3355         2822 3.4048338e-12 2.656015e-13          0.1 0.0090546651    191.60463  0.029808707 
number of iterations: 2293 
   32400    86.866133     6254         3403         2851 3.4499542e-12 2.6936647e-13          0.1 0.0090553791    194.16279  0.029807515 
number of iterations: 2334 
   32500    87.165033     6322         3442         2880 3.4956726e-12 2.7307144e-13          0.1 0.0090561314     196.7548  0.029806259 
number of iterations: 2320 
   32600    87.435343     6422         3495         2927 3.5419969e-12 2.7694431e-13          0.1 0.0090568666    199.38105   0.02980503 
number of iterations: 2324 
   32700    87.720192     6500         3528         2972 3.5889349e-12 2.8087311e-13          0.1 0.0090576637    202.04199  0.029803699 
number of iterations: 2325 
   32800     88.01142     6594         3576         3018 3.636495e-12 2.8485864e-13          0.1 0.0090584148    204.73809  0.029802444 
number of iterations: 2340 
   32900    88.277461     6682         3621         3061 3.6834623e-12 2.8877873e-13          0.1 0.0090592489    207.46892  0.029801052 
number of iterations: 2347 
   33000    88.599774     6791         3677         3114 3.730988e-12 2.9287848e-13          0.1 0.0090599962    210.23484  0.029799803 
number of iterations: 2336 
   33100    88.908146     6882         3728         3154 3.7793596e-12 2.9703744e-13          0.1 0.0090607746     213.0365  0.029798502 
number of iterations: 2381 
   33200    89.205778     6968         3768         3200 3.8294431e-12 3.0125647e-13          0.1 0.0090616143    215.87517    0.0297971 
number of iterations: 2381 
   33300     89.48005     7059         3817         3242 3.8791706e-12 3.0553644e-13          0.1 0.0090624253    218.75058  0.029795745 
number of iterations: 2375 
   33400    89.772252     7143         3864         3279   3.9296e-12 3.0987825e-13          0.1 0.0090632998    221.66322  0.029794284 
number of iterations: 2356 
   33500    90.059359     7254         3921         3333 3.9816744e-12 3.1428277e-13          0.1  0.009064099    224.61436  0.029792949 
number of iterations: 2359 
   33600    90.339012     7344         3977         3367 4.0344389e-12 3.1875091e-13          0.1  0.009064956    227.60448  0.029791517 
number of iterations: 2390 
   33700    90.645047     7455         4034         3421 4.0879026e-12 3.2328361e-13          0.1 0.0090658619    230.63409  0.029790004 
number of iterations: 2367 
   33800    90.941374     7566         4090         3476 4.1420748e-12 3.2788179e-13          0.1 0.0090667594    233.70373  0.029788505 
number of iterations: 2319 
   33900    91.231112     7662         4131         3531 4.1946066e-12 3.3254641e-13          0.1 0.0090675573     236.8121  0.029787172 
number of iterations: 2371 
   34000     91.51598     7787         4189         3598 4.2501928e-12 3.3727842e-13          0.1 0.0090685179    239.96154  0.029785568 
number of iterations: 2376 
   34100     91.83782     7896         4244         3652 4.3065156e-12 3.420788e-13          0.1 0.0090693841    243.15259   0.02978412 
number of iterations: 2351 
   34200    92.183038     8026         4322         3704 4.3635847e-12 3.4681354e-13          0.1 0.0090702175    246.38584  0.029782728 
number of iterations: 2377 
   34300    92.522086     8123         4378         3745 4.4204533e-12 3.5167446e-13          0.1 0.0090711949     249.6611  0.029781095 
number of iterations: 2389 
   34400    92.826695     8220         4429         3791 4.4790323e-12 3.5668288e-13          0.1 0.0090721515    252.97961  0.029779498 
number of iterations: 2367 
   34500      93.1435     8338         4494         3844 4.5383875e-12 3.6176367e-13          0.1 0.0090730922    256.34195  0.029777926 
number of iterations: 2379 
   34600    93.443651     8425         4536         3889 4.5974355e-12 3.6682925e-13          0.1 0.0090740363    259.74789  0.029776349 
number of iterations: 2355 
   34700    93.726993     8526         4590         3936 4.6559545e-12 3.7195042e-13          0.1 0.0090749587    263.19704  0.029774808 
number of iterations: 2374 
   34800    94.019581     8652         4656         3996 4.7153761e-12 3.7713877e-13          0.1 0.0090759097    266.69004  0.029773219 
number of iterations: 2376 
   34900    94.295085     8798         4735         4063 4.7778632e-12 3.8251522e-13          0.1 0.0090769225    270.22918  0.029771527 
number of iterations: 2372 
   35000     94.61911     8908         4794         4114 4.8400593e-12 3.8796936e-13          0.1 0.0090779267     273.8142  0.029769849 
Loop time of 94.6193 on 32 procs for 35000 steps with 8908 atoms

Performance: 319596655.286 tau/day, 369.904 timesteps/s
91.9% CPU use with 32 MPI tasks x no OpenMP threads

MPI task timing breakdown:
Section |  min time  |  avg time  |  max time  |%varavg| %total
---------------------------------------------------------------
Pair    | 0.024806   | 0.12387    | 0.30587    |  19.1 |  0.13
Neigh   | 0.0092473  | 0.042783   | 0.086983   |   9.9 |  0.05
Comm    | 0.068009   | 0.223      | 0.32953    |  16.2 |  0.24
Output  | 22.972     | 22.972     | 22.98      |   0.0 | 24.28
Modify  | 70.653     | 70.713     | 70.792     |   0.4 | 74.73
Other   |            | 0.544      |            |       |  0.57

Nlocal:    278.375 ave 518 max 68 min
Histogram: 3 3 3 6 5 1 3 3 3 2
Nghost:    165.188 ave 356 max 13 min
Histogram: 3 4 3 4 3 5 5 4 0 1
Neighs:    1244.72 ave 2523 max 185 min
Histogram: 3 3 4 6 4 3 1 4 2 2

Total # of neighbors = 39831
Ave neighs/atom = 4.47137
Neighbor list builds = 674
Dangerous builds = 0
Total wall time: 0:01:34
