 NUFEB Simulation

     100 atoms 
     2 atom types 
     4 nutrients 

  0.0e-4   1.00e-04  xlo xhi 
  0.0e-4   1.00e-04  ylo yhi 
  0.0e-4   1.00e-05  zlo zhi 

 Atoms 

     1 1 1.74e-06  370 2.28e-06 6.12e-06 2.09e-06 1.74e-06 
     2 1 1.38e-06  370 2.42e-05 1.48e-05 3.46e-06 1.38e-06 
     3 1 1.87e-06  370 2.20e-06 2.92e-05 3.65e-06 1.87e-06 
     4 1 1.77e-06  370 5.00e-06 2.40e-05 4.03e-06 1.77e-06 
     5 1 1.71e-06  370 3.96e-05 6.70e-06 7.70e-06 1.71e-06 
     6 1 1.77e-06  370 6.47e-05 8.86e-05 7.12e-06 1.77e-06 
     7 1 1.81e-06  370 5.90e-05 7.77e-05 2.60e-06 1.81e-06 
     8 1 1.75e-06  370 4.48e-05 9.72e-05 5.13e-06 1.75e-06 
     9 1 1.40e-06  370 2.85e-05 4.69e-05 7.33e-06 1.40e-06 
     10 1 1.75e-06  370 4.95e-05 9.06e-05 5.21e-06 1.75e-06 
     11 1 1.74e-06  370 3.23e-05 5.86e-05 1.80e-06 1.74e-06 
     12 1 1.58e-06  370 4.87e-05 5.40e-05 5.92e-06 1.58e-06 
     13 1 1.53e-06  370 8.38e-05 6.80e-05 4.40e-06 1.53e-06 
     14 1 1.56e-06  370 9.36e-05 2.02e-05 1.62e-06 1.56e-06 
     15 1 1.67e-06  370 4.10e-05 5.48e-05 2.69e-06 1.67e-06 
     16 1 1.68e-06  370 6.21e-05 5.58e-05 3.68e-06 1.68e-06 
     17 1 1.66e-06  370 1.55e-05 3.40e-05 3.36e-06 1.66e-06 
     18 1 1.88e-06  370 7.99e-05 3.02e-05 3.04e-06 1.88e-06 
     19 1 1.64e-06  370 8.91e-05 3.50e-05 3.77e-06 1.64e-06 
     20 1 1.82e-06  370 2.95e-05 4.01e-05 6.77e-06 1.82e-06 
     21 1 1.45e-06  370 4.12e-05 3.55e-06 5.92e-06 1.45e-06 
     22 1 1.62e-06  370 1.35e-05 2.20e-05 6.65e-06 1.62e-06 
     23 1 1.89e-06  370 9.44e-05 7.65e-05 3.45e-06 1.89e-06 
     24 1 1.65e-06  370 3.33e-05 7.32e-06 2.58e-06 1.65e-06 
     25 1 1.48e-06  370 1.02e-05 2.22e-05 4.73e-06 1.48e-06 
     26 1 1.52e-06  370 6.70e-05 2.96e-06 3.22e-06 1.52e-06 
     27 1 1.91e-06  370 4.73e-05 8.09e-05 3.32e-06 1.91e-06 
     28 1 1.81e-06  370 9.17e-05 1.43e-05 2.76e-06 1.81e-06 
     29 1 1.63e-06  370 7.80e-05 6.83e-05 4.75e-06 1.63e-06 
     30 1 1.65e-06  370 8.40e-05 1.25e-05 6.22e-06 1.65e-06 
     31 1 1.67e-06  370 1.70e-05 6.26e-05 3.89e-06 1.67e-06 
     32 1 1.46e-06  370 7.13e-05 9.35e-05 6.51e-06 1.46e-06 
     33 1 1.43e-06  370 3.39e-05 8.87e-06 5.63e-06 1.43e-06 
     34 1 1.81e-06  370 6.73e-05 8.87e-05 4.08e-06 1.81e-06 
     35 1 1.91e-06  370 3.31e-05 9.46e-05 6.13e-06 1.91e-06 
     36 1 1.82e-06  370 2.74e-05 8.03e-05 3.35e-06 1.82e-06 
     37 1 1.43e-06  370 4.96e-05 5.83e-05 6.64e-06 1.43e-06 
     38 1 1.47e-06  370 1.98e-05 8.75e-05 4.99e-06 1.47e-06 
     39 1 1.37e-06  370 1.37e-05 9.58e-05 7.32e-06 1.37e-06 
     40 1 1.42e-06  370 4.20e-05 3.47e-05 7.12e-06 1.42e-06 
     41 1 1.53e-06  370 2.85e-05 7.25e-05 5.14e-06 1.53e-06 
     42 1 1.43e-06  370 7.89e-05 3.44e-05 6.67e-06 1.43e-06 
     43 1 1.68e-06  370 6.14e-05 1.95e-05 4.04e-06 1.68e-06 
     44 1 1.68e-06  370 1.18e-05 5.57e-05 4.15e-06 1.68e-06 
     45 1 1.68e-06  370 5.57e-05 3.69e-05 5.11e-06 1.68e-06 
     46 1 1.44e-06  370 7.52e-05 1.84e-05 8.49e-06 1.44e-06 
     47 1 1.44e-06  370 8.32e-05 2.41e-05 5.67e-06 1.44e-06 
     48 1 1.60e-06  370 9.52e-05 8.82e-05 7.57e-06 1.60e-06 
     49 1 1.65e-06  370 4.15e-05 7.57e-05 7.98e-06 1.65e-06 
     50 1 1.56e-06  370 1.67e-05 4.88e-05 4.51e-06 1.56e-06 
     51 2 1.03e-06  230 4.23e-05 4.91e-05 6.41e-06 1.03e-06 
     52 2 9.60e-07  230 8.84e-05 9.55e-05 3.30e-06 9.60e-07 
     53 2 1.12e-06  230 8.67e-06 4.95e-05 1.45e-06 1.12e-06 
     54 2 9.81e-07  230 9.67e-05 5.17e-05 3.80e-06 9.81e-07 
     55 2 1.26e-06  230 2.60e-05 8.04e-05 6.82e-06 1.26e-06 
     56 2 1.29e-06  230 1.73e-05 3.88e-05 3.50e-06 1.29e-06 
     57 2 1.03e-06  230 2.67e-05 6.77e-05 1.92e-06 1.03e-06 
     58 2 1.32e-06  230 8.04e-05 4.70e-05 2.56e-06 1.32e-06 
     59 2 1.10e-06  230 9.11e-06 2.55e-05 5.93e-06 1.10e-06 
     60 2 1.23e-06  230 1.04e-05 6.45e-05 5.07e-06 1.23e-06 
     61 2 1.35e-06  230 8.01e-05 1.25e-05 6.28e-06 1.35e-06 
     62 2 1.25e-06  230 3.48e-05 6.98e-05 8.65e-06 1.25e-06 
     63 2 1.13e-06  230 5.77e-05 7.88e-05 1.28e-06 1.13e-06 
     64 2 1.36e-06  230 5.59e-05 8.64e-05 4.21e-06 1.36e-06 
     65 2 1.32e-06  230 3.26e-06 1.39e-05 4.48e-06 1.32e-06 
     66 2 1.32e-06  230 8.30e-05 5.86e-05 3.67e-06 1.32e-06 
     67 2 1.08e-06  230 3.19e-05 9.89e-05 6.38e-06 1.08e-06 
     68 2 1.31e-06  230 6.87e-05 4.75e-05 4.89e-06 1.31e-06 
     69 2 8.87e-07  230 7.08e-05 2.25e-05 4.56e-06 8.87e-07 
     70 2 1.14e-06  230 1.49e-05 9.23e-05 3.33e-06 1.14e-06 
     71 2 8.81e-07  230 3.02e-05 4.93e-05 7.55e-06 8.81e-07 
     72 2 9.53e-07  230 8.42e-05 4.19e-05 2.94e-06 9.53e-07 
     73 2 1.23e-06  230 3.03e-05 6.19e-05 7.77e-06 1.23e-06 
     74 2 1.14e-06  230 1.25e-06 5.40e-05 6.44e-06 1.14e-06 
     75 2 1.36e-06  230 9.73e-05 2.95e-05 4.04e-06 1.36e-06 
     76 2 9.67e-07  230 3.07e-05 1.70e-05 5.36e-06 9.67e-07 
     77 2 9.38e-07  230 2.18e-05 6.72e-05 8.10e-06 9.38e-07 
     78 2 1.02e-06  230 8.28e-05 2.99e-05 8.32e-06 1.02e-06 
     79 2 1.04e-06  230 3.41e-05 4.38e-05 2.50e-06 1.04e-06 
     80 2 1.04e-06  230 3.91e-05 8.58e-05 1.14e-06 1.04e-06 
     81 2 1.24e-06  230 3.53e-05 7.99e-05 3.17e-06 1.24e-06 
     82 2 1.09e-06  230 3.12e-05 1.36e-05 8.66e-06 1.09e-06 
     83 2 1.32e-06  230 7.79e-05 2.70e-05 2.66e-06 1.32e-06 
     84 2 1.06e-06  230 9.46e-05 7.14e-05 1.16e-06 1.06e-06 
     85 2 1.30e-06  230 7.03e-05 4.33e-05 4.83e-06 1.30e-06 
     86 2 9.50e-07  230 6.30e-05 6.30e-05 5.99e-06 9.50e-07 
     87 2 1.12e-06  230 9.62e-05 1.29e-05 6.43e-06 1.12e-06 
     88 2 1.32e-06  230 5.32e-05 9.62e-05 6.66e-06 1.32e-06 
     89 2 1.25e-06  230 2.88e-05 9.28e-05 4.58e-06 1.25e-06 
     90 2 1.37e-06  230 7.30e-06 7.81e-05 4.73e-06 1.37e-06 
     91 2 1.08e-06  230 1.47e-05 3.83e-05 5.69e-06 1.08e-06 
     92 2 1.27e-06  230 1.61e-05 8.18e-05 7.84e-06 1.27e-06 
     93 2 1.01e-06  230 5.03e-05 1.66e-05 3.62e-06 1.01e-06 
     94 2 1.15e-06  230 1.61e-05 9.15e-05 5.16e-06 1.15e-06 
     95 2 9.35e-07  230 8.73e-05 6.57e-05 6.42e-06 9.35e-07 
     96 2 1.20e-06  230 2.80e-05 7.81e-05 8.77e-06 1.20e-06 
     97 2 1.17e-06  230 7.56e-05 3.80e-05 4.81e-06 1.17e-06 
     98 2 1.28e-06  230 5.47e-05 9.53e-05 3.67e-06 1.28e-06 
     99 2 1.10e-06  230 2.28e-05 9.73e-05 5.79e-06 1.10e-06 
     100 2 8.98e-07  230 9.75e-05 2.95e-05 3.73e-06 8.98e-07 

 Nutrients 

     1 sub g nn nn nn 1.00e-01 1.00e-01 
     2 o2 l nn nn nd 9.00e-03 9.00e-03 
     3 suc l nn nn nn 3.42e-20 3.42e-20 
     4 co2 l nn nn nd 2.99e-02 2.99e-02 

 Type Name 

     1 cyano  
     2 ecw  

 Diffusion Coeffs 

     sub 0 
     o2 2.3e-09 
     suc 5.2e-10 
     co2 1.9e-09 

 Growth Rate 

     cyano 1.67e-05 
     ecw 4e-05 

 Ks 

     cyano 0.00035 0.0002 0.01 0.000138 
     ecw 0 0.001 3.6 0.05 

 Yield 

     cyano 0.55 
     ecw 0.43 

 Maintenance 

     cyano 0 
     ecw 9.5e-07 

 Decay 

     cyano 0 
     ecw 0 



