LAMMPS (20 Nov 2019)
# NUFEB simulation

atom_style	bio
atom_modify	map array sort 1000 5.0e-7
boundary	ff ff ff
newton		off
processors  * * *

comm_modify	vel yes
#variable reps loop 1
read_data_bio atom_50_50_100_1_2021-08-31.in
  orthogonal box = (0 0 0) to (0.0001 0.0001 1e-05)
  8 by 4 by 1 MPI processor grid
  reading atoms ...
  100 atoms
  4 nutrients
#shell mkdir Run_50_50_100_1
#shell cd Run_50_50_100_1
##############Define initial particle distribution##############

lattice sc 1e-6 origin 0 0 0
Lattice spacing in x,y,z = 100 100 100
region reg block 0 1000 0 1000 0 100

group CYANO type 1
50 atoms in group CYANO
group ECW type 2
50 atoms in group ECW

neighbor	5e-7 bin
neigh_modify	delay 0 one 5000

##############Define DEM Variables&Commands##############

pair_style  gran/hooke/history 1.e-4 NULL 1.e-5 NULL 0.0 1
pair_coeff  * *

timestep 10

fix 1 all nve/limit 1e-8
fix fv all viscous 1e-5

fix zw all wall/gran hooke/history 2000 NULL 500.0 NULL 1.5 0 zplane  0.0  1e-05

variable kanc equal 50

variable ke equal 5e+10


##############Define IBm Variables##############

#variables used in fix eps_extract
variable EPSdens equal 30
variable EPSratio equal 1.3

#variables used in fix division
variable divDia1 equal 1.96e-6
variable divDia2 equal 1.04e-6

#variables used in fix kinetics
variable diffT equal 1e-4
variable tol equal 1e-11
variable etaHET equal 0.6
variable layer equal -1

#variables used in fix death
#variable deadDia equal 9e-7


##############Define IBm Commands##############

fix k1 all kinetics 100 50 50 5 v_diffT v_layer niter 1000000
fix kgm all kinetics/growth/monod sucexp 1.0
fix g1 all kinetics/diffusion v_tol
fix d1 CYANO divide 100 v_EPSdens v_divDia1 140600
fix d2 ECW divide 100 v_EPSdens v_divDia2 751744
#fix d2 all death 1 v_deadDia demflag 0


##############Define IBm Computes##############

compute myNtypes all ntypes
compute myMass all biomass
compute myCon all avg_con

##############Simulation exit condition##############
variable co2 equal c_myCon[4]
fix 10 all halt 100 v_co2 <= 1e-19

variable light equal c_myCon[1]
fix 11 all halt 100 v_light <= 1e-19

##############Simulation Output##############
dump    id all custom 100 output.lammmps id type diameter x y z
dump    du1 all vtk 100 atom_*.vtu id type diameter x y z
dump    du2 all grid 100 grid_%_*.vti con
dump    du3 all bio 100 ntypes biomass avg_con
dump    traj all bio/hdf5 100 trajectory.h5 id type radius x y z con
thermo_style    custom step cpu atoms c_myNtypes[*] c_myMass[*] c_myCon[*]
thermo		100
thermo_modify	lost ignore


run 35000
Model is defined as a closed system. 
Neighbor list info ...
  update every 1 steps, delay 0 steps, check yes
  max neighbors/atom: 5000, page size: 100000
  master list distance cutoff = 2.41e-06
  ghost atom cutoff = 2.41e-06
  binsize = 1.205e-06, bins = 83 83 9
  1 neighbor lists, perpetual/occasional/extra = 1 0 0
  (1) pair gran/hooke/history, perpetual
      attributes: half, newton off, size, history
      pair build: half/size/bin/newtoff
      stencil: half/bin/3d/newtoff
      bin: standard
Per MPI rank memory allocation (min/avg/max) = 5.796 | 10.74 | 12.11 Mbytes
Step CPU Atoms c_myNtypes[1] c_myNtypes[2] c_myMass[1] c_myMass[2] c_myCon[1] c_myCon[2] c_myCon[3] c_myCon[4] 
       0            0      100           50           50 4.3555995e-14 9.4294562e-15          0.1        0.009     3.42e-20       0.0299 
number of iterations: 321374 
     100    15.615262      136           50           86 4.4133208e-14 9.424661e-15          0.1 0.0090007872  0.034983492  0.029898689 
number of iterations: 4114 
     200    15.950831      151           50          101 4.4718071e-14 9.4230731e-15          0.1 0.0090007975  0.069267512  0.029898671 
number of iterations: 2602 
     300    16.204987      151           50          101 4.5310685e-14 9.4246551e-15          0.1 0.0090008078   0.10392914  0.029898654 
number of iterations: 2158 
     400    16.463078      151           50          101 4.5911152e-14 9.429353e-15          0.1 0.0090008184   0.13897855  0.029898636 
number of iterations: 1878 
     500    16.705851      151           50          101 4.6519576e-14 9.4371397e-15          0.1  0.009000829   0.17442285  0.029898618 
number of iterations: 1679 
     600     16.93723      151           50          101 4.7136064e-14 9.4479936e-15          0.1 0.0090008398   0.21026885    0.0298986 
number of iterations: 1574 
     700    17.154412      153           52          101 4.7760721e-14 9.4618976e-15          0.1 0.0090008533   0.24652325  0.029898577 
number of iterations: 1411 
     800    17.361919      153           52          101 4.8393657e-14 9.4788386e-15          0.1 0.0090008644   0.28319274  0.029898559 
number of iterations: 1414 
     900    17.554156      153           52          101 4.903498e-14 9.4988068e-15          0.1 0.0090008757   0.32028395   0.02989854 
number of iterations: 1417 
    1000    17.766024      154           53          101 4.9684802e-14 9.5217961e-15          0.1 0.0090008848   0.35780355  0.029898524 
number of iterations: 1463 
    1100    17.985348      156           54          102 5.0343236e-14 9.5478003e-15          0.1 0.0090008963   0.39575818  0.029898505 
number of iterations: 1400 
    1200    18.184791      158           55          103 5.1010395e-14 9.5768225e-15          0.1 0.0090009057   0.43415451  0.029898489 
number of iterations: 1422 
    1300    18.373378      158           55          103 5.1686396e-14 9.6088657e-15          0.1 0.0090009176   0.47299925  0.029898469 
number of iterations: 1425 
    1400    18.567957      158           55          103 5.2371355e-14 9.6439357e-15          0.1 0.0090009296   0.51229911  0.029898449 
number of iterations: 1428 
    1500    18.746425      159           55          104 5.3065392e-14 9.6820415e-15          0.1 0.0090009417    0.5520608  0.029898428 
number of iterations: 1431 
    1600    18.942218      159           55          104 5.3768626e-14 9.7231947e-15          0.1 0.0090009541    0.5922911  0.029898408 
number of iterations: 1434 
    1700    19.147516      161           55          106 5.4481179e-14 9.7674097e-15          0.1 0.0090009665    0.6329968  0.029898387 
number of iterations: 1563 
    1800    19.334572      163           57          106 5.5203175e-14 9.8146994e-15          0.1  0.009000984   0.67418476  0.029898357 
number of iterations: 1441 
    1900    19.533212      164           57          107 5.5934739e-14 9.8650877e-15          0.1 0.0090009969    0.7158618  0.029898336 
number of iterations: 1623 
    2000    19.755861      167           60          107 5.6675999e-14 9.9185975e-15          0.1 0.0090010165   0.75803479  0.029898303 
number of iterations: 1446 
    2100    19.942196      169           60          109 5.7427081e-14 9.9752535e-15          0.1 0.0090010298   0.80071067  0.029898281 
number of iterations: 1449 
    2200    20.140253      170           60          110 5.8188117e-14 1.0035084e-14          0.1 0.0090010433   0.84389638  0.029898258 
number of iterations: 1470 
    2300     20.37457      172           60          112 5.8959238e-14 1.0098115e-14          0.1  0.009001057   0.88759894  0.029898235 
number of iterations: 1455 
    2400    20.552762      172           60          112 5.9740579e-14 1.0164384e-14          0.1 0.0090010709    0.9318254  0.029898212 
number of iterations: 1649 
    2500    20.732414      175           62          113 6.0532274e-14 1.023393e-14          0.1 0.0090010874    0.9765828  0.029898184 
number of iterations: 1465 
    2600    20.914926      176           62          114 6.133446e-14 1.0306788e-14          0.1 0.0090011016    1.0218783   0.02989816 
number of iterations: 1468 
    2700    21.084519      178           64          114 6.2147278e-14 1.0383001e-14          0.1 0.0090011161    1.0677191  0.029898135 
number of iterations: 1471 
    2800    21.286341      180           64          116 6.2970866e-14 1.0462611e-14          0.1 0.0090011307    1.1141123  0.029898111 
number of iterations: 1658 
    2900    21.508741      182           66          116 6.380537e-14 1.0545659e-14          0.1  0.009001146    1.1610652  0.029898085 
number of iterations: 1480 
    3000      21.7085      182           66          116 6.4650932e-14 1.0632199e-14          0.1 0.0090011611     1.208585   0.02989806 
number of iterations: 1483 
    3100    21.875843      182           66          116  6.55077e-14 1.0722282e-14          0.1 0.0090011763    1.2566793  0.029898034 
number of iterations: 1486 
    3200    22.049431      182           66          116 6.6375822e-14 1.0815962e-14          0.1 0.0090011917    1.3053554  0.029898008 
number of iterations: 1462 
    3300    22.247219      185           67          118 6.7255448e-14 1.0913298e-14          0.1 0.0090012027    1.3546208   0.02989799 
number of iterations: 1490 
    3400    22.437351      189           67          122 6.8146732e-14 1.1014349e-14          0.1 0.0090012185     1.404483  0.029897963 
number of iterations: 1493 
    3500    22.615479      191           67          124 6.9049826e-14 1.1119178e-14          0.1 0.0090012345    1.4549495  0.029897936 
number of iterations: 1496 
    3600    22.787972      191           67          124 6.9964889e-14 1.1227853e-14          0.1 0.0090012507     1.506028  0.029897909 
number of iterations: 1597 
    3700    22.988341      195           71          124 7.0892079e-14 1.134044e-14          0.1 0.0090012712     1.557726  0.029897875 
number of iterations: 1498 
    3800    23.195019      198           73          125 7.1831555e-14 1.1457012e-14          0.1 0.0090012872    1.6100514  0.029897848 
number of iterations: 1478 
    3900     23.37929      199           74          125 7.2783482e-14 1.1577649e-14          0.1 0.0090013018    1.6630118  0.029897823 
number of iterations: 1506 
    4000    23.584842      200           74          126 7.3748024e-14 1.1702427e-14          0.1 0.0090013189    1.7166151  0.029897794 
number of iterations: 1712 
    4100    23.784444      205           77          128 7.4725349e-14 1.1831424e-14          0.1 0.0090013378     1.770869  0.029897763 
number of iterations: 1512 
    4200    23.961062      207           78          129 7.5715625e-14 1.1964728e-14          0.1  0.009001353    1.8257816  0.029897737 
number of iterations: 1515 
    4300    24.135548      208           78          130 7.6719024e-14 1.2102427e-14          0.1 0.0090013708    1.8813608  0.029897707 
number of iterations: 1568 
    4400    24.319995      210           79          131 7.773572e-14 1.2244615e-14          0.1  0.009001392    1.9376146  0.029897671 
number of iterations: 1695 
    4500     24.55675      211           80          131 7.876589e-14 1.2391387e-14          0.1 0.0090014152    1.9945512  0.029897633 
number of iterations: 1583 
    4600    24.780485      212           80          132 7.9809712e-14 1.2542837e-14          0.1 0.0090014338    2.0521783  0.029897601 
number of iterations: 1530 
    4700    25.000363      214           80          134 8.0867367e-14 1.2699071e-14          0.1 0.0090014526    2.1105045   0.02989757 
number of iterations: 1533 
    4800    25.196132      216           81          135 8.1939039e-14 1.2860194e-14          0.1 0.0090014717    2.1695381  0.029897537 
number of iterations: 1566 
    4900     25.41545      218           83          135 8.3024912e-14 1.3026317e-14          0.1 0.0090014925    2.2292871  0.029897502 
number of iterations: 1538 
    5000    25.616782      219           83          136 8.4125175e-14 1.3197556e-14          0.1 0.0090015121    2.2897601  0.029897469 
number of iterations: 1535 
    5100    25.788375      225           85          140 8.5240019e-14 1.3374044e-14          0.1 0.0090015287    2.3509652  0.029897441 
number of iterations: 1553 
    5200     25.97365      228           86          142 8.6369638e-14 1.3555886e-14          0.1   0.00900155    2.4129109  0.029897406 
number of iterations: 1547 
    5300    26.149855      230           86          144 8.7514226e-14 1.3743211e-14          0.1 0.0090015703    2.4756058  0.029897371 
number of iterations: 1619 
    5400    26.347427      233           89          144 8.8673983e-14 1.3936157e-14          0.1 0.0090015908    2.5390579  0.029897337 
number of iterations: 1553 
    5500    26.562615      235           89          146 8.9849109e-14 1.4134853e-14          0.1 0.0090016117    2.6032762  0.029897302 
number of iterations: 1556 
    5600    26.754459      237           89          148 9.1039808e-14 1.433944e-14          0.1 0.0090016328    2.6682693  0.029897266 
number of iterations: 1559 
    5700    26.961471      240           89          151 9.2246286e-14 1.4550064e-14          0.1 0.0090016543    2.7340459   0.02989723 
number of iterations: 1562 
    5800    27.133592      245           91          154 9.3468753e-14 1.4766869e-14          0.1 0.0090016759    2.8006146  0.029897193 
number of iterations: 1565 
    5900    27.329507      249           92          157 9.470742e-14 1.4990014e-14          0.1 0.0090016917    2.8679842  0.029897167 
number of iterations: 1529 
    6000    27.537119      252           93          159 9.5962502e-14 1.5219661e-14          0.1 0.0090017091    2.9361635  0.029897137 
number of iterations: 1569 
    6100    27.730746      257           96          161 9.7234217e-14 1.5455975e-14          0.1 0.0090017286    3.0051618  0.029897104 
number of iterations: 1574 
    6200    27.930861      258           96          162 9.8522785e-14 1.5699124e-14          0.1 0.0090017513    3.0749874  0.029897066 
number of iterations: 1573 
    6300    28.115334      261           97          164 9.9828429e-14 1.5949289e-14          0.1 0.0090017718    3.1456493  0.029897031 
number of iterations: 1578 
    6400    28.303671      266           97          169 1.0115138e-13 1.6206648e-14          0.1 0.0090017951    3.2171565  0.029896992 
number of iterations: 1580 
    6500    28.491403      270           97          173 1.0249185e-13 1.647139e-14          0.1 0.0090018186     3.289518  0.029896953 
number of iterations: 1642 
    6600    28.733043      274           98          176 1.038501e-13 1.6743717e-14          0.1 0.0090018425    3.3627425  0.029896912 
number of iterations: 1587 
    6700    28.910161      278           99          179 1.0522634e-13 1.7023827e-14          0.1 0.0090018666    3.4368394  0.029896872 
number of iterations: 1590 
    6800    29.102918      285           99          186 1.0662082e-13 1.731192e-14          0.1  0.009001891    3.5118177   0.02989683 
number of iterations: 1703 
    6900    29.303326      293          102          191 1.0803378e-13 1.760821e-14          0.1 0.0090019101    3.5876868  0.029896798 
number of iterations: 1536 
    7000    29.486367      298          105          193 1.0946547e-13 1.7912926e-14          0.1 0.0090019304    3.6644555  0.029896764 
number of iterations: 1544 
    7100    29.698022      302          105          197 1.1091613e-13 1.8226292e-14          0.1 0.0090019531     3.742133  0.029896725 
number of iterations: 1600 
    7200    29.878231      307          108          199 1.1238601e-13 1.8548533e-14          0.1 0.0090019697    3.8207288  0.029896697 
number of iterations: 1658 
    7300     30.06158      314          113          201 1.1387537e-13  1.88799e-14          0.1 0.0090019997    3.9002518  0.029896646 
number of iterations: 1604 
    7400    30.265281      317          114          203 1.1538447e-13 1.9220642e-14          0.1 0.0090020259    3.9807112  0.029896602 
number of iterations: 1674 
    7500    30.438358      319          115          204 1.1691357e-13 1.957102e-14          0.1 0.0090020567    4.0621162   0.02989655 
number of iterations: 1666 
    7600    30.630333      325          116          209 1.1846293e-13 1.9931302e-14          0.1 0.0090020868     4.144476  0.029896499 
number of iterations: 1614 
    7700    30.819037      335          117          218 1.2003283e-13 2.030176e-14          0.1 0.0090021116    4.2277998  0.029896457 
number of iterations: 1688 
    7800    30.999502      345          123          222 1.2162352e-13 2.0682684e-14          0.1 0.0090021394    4.3120971   0.02989641 
number of iterations: 1679 
    7900    31.210481      351          126          225 1.232353e-13 2.1074359e-14          0.1 0.0090021725    4.3973769  0.029896355 
number of iterations: 1630 
    8000    31.440447      355          127          228 1.2486844e-13 2.1477097e-14          0.1 0.0090022009    4.4836483  0.029896306 
number of iterations: 1712 
    8100    31.651073      364          130          234 1.2652322e-13 2.1891201e-14          0.1 0.0090022333    4.5709206  0.029896252 
number of iterations: 1590 
    8200    31.835252      370          132          238 1.2819994e-13 2.2316992e-14          0.1 0.0090022571    4.6592029  0.029896211 
number of iterations: 1728 
    8300    32.031365      377          133          244 1.2989887e-13 2.2754811e-14          0.1 0.0090022908    4.7485045  0.029896154 
number of iterations: 1600 
    8400    32.204149      384          136          248 1.3162031e-13 2.3204987e-14          0.1 0.0090023159    4.8388346  0.029896112 
number of iterations: 1635 
    8500    32.383968      389          137          252 1.3336457e-13 2.366788e-14          0.1 0.0090023434    4.9302023  0.029896065 
number of iterations: 1551 
    8600    32.554589      396          141          255 1.3513194e-13 2.4143857e-14          0.1 0.0090023608    5.0226167  0.029896035 
number of iterations: 1594 
    8700    32.743404      402          143          259 1.3692274e-13 2.4633264e-14          0.1 0.0090023891    5.1160874  0.029895987 
number of iterations: 1641 
    8800    32.945057      408          143          265 1.3873727e-13 2.513651e-14          0.1 0.0090024203    5.2106227  0.029895934 
number of iterations: 1692 
    8900    33.139184      413          144          269 1.4057584e-13 2.5654006e-14          0.1  0.009002455    5.3062319  0.029895875 
number of iterations: 1646 
    9000    33.341227      416          144          272 1.4243878e-13 2.6186161e-14          0.1 0.0090024871    5.4029237  0.029895821 
number of iterations: 1649 
    9100    33.530795      423          144          279 1.4432641e-13  2.67334e-14          0.1 0.0090025196     5.500707  0.029895766 
number of iterations: 1779 
    9200    33.717106      435          145          290 1.4623905e-13 2.7296165e-14          0.1 0.0090025585    5.5995908    0.0298957 
number of iterations: 1660 
    9300    33.921506      437          145          292 1.4817704e-13 2.7874899e-14          0.1 0.0090025919    5.6995837  0.029895643 
number of iterations: 1657 
    9400    34.132415      440          145          295 1.5014071e-13 2.8470073e-14          0.1 0.0090026257    5.8006941  0.029895586 
number of iterations: 1662 
    9500    34.324962      453          149          304 1.521304e-13 2.9082163e-14          0.1 0.0090026628    5.9029307  0.029895523 
number of iterations: 1671 
    9600    34.530254      460          149          311 1.5414647e-13 2.9711677e-14          0.1 0.0090026975    6.0063018  0.029895464 
number of iterations: 1666 
    9700    34.793165      466          150          316 1.5618924e-13 3.0359118e-14          0.1 0.0090027327    6.1108163  0.029895404 
number of iterations: 1739 
    9800    35.030356      476          153          323 1.5825909e-13 3.1025023e-14          0.1 0.0090027761    6.2164821  0.029895331 
number of iterations: 1675 
    9900    35.223249      484          153          331 1.6035638e-13 3.1709933e-14          0.1 0.0090028122    6.3233068  0.029895269 
number of iterations: 1675 
   10000    35.448501      490          153          337 1.6248145e-13 3.2414415e-14          0.1 0.0090028489    6.4312986  0.029895207 
number of iterations: 1680 
   10100    35.663853      495          155          340 1.6463468e-13 3.3139049e-14          0.1 0.0090028872    6.5404656  0.029895142 
number of iterations: 1656 
   10200    35.851375      511          158          353 1.6681645e-13 3.3884436e-14          0.1 0.0090029172    6.6508151   0.02989509 
number of iterations: 1669 
   10300    36.049603      526          163          363 1.6902714e-13 3.4651176e-14          0.1 0.0090029538    6.7623553  0.029895028 
number of iterations: 1728 
   10400    36.238875      539          167          372 1.7126712e-13 3.5439917e-14          0.1 0.0090029963    6.8750922  0.029894955 
number of iterations: 1752 
   10500     36.43243      556          171          385 1.7353678e-13 3.6251339e-14          0.1 0.0090030368    6.9890334  0.029894886 
number of iterations: 1677 
   10600    36.630323      567          172          395 1.7583653e-13 3.7086104e-14          0.1 0.0090030763    7.1041864  0.029894819 
number of iterations: 1661 
   10700    36.802854      581          175          406 1.7816675e-13 3.7944914e-14          0.1 0.0090031056    7.2205584  0.029894768 
number of iterations: 1707 
   10800    37.010932      594          177          417 1.8052785e-13 3.8828457e-14          0.1 0.0090031516    7.3381556   0.02989469 
number of iterations: 1744 
   10900    37.221532      600          179          421 1.8292024e-13 3.9737514e-14          0.1 0.0090031875    7.4569842  0.029894629 
number of iterations: 1682 
   11000    37.446164      610          181          429 1.8534433e-13 4.067285e-14          0.1 0.0090032287    7.5770502  0.029894558 
number of iterations: 1668 
   11100    37.622378      619          182          437 1.8780055e-13 4.1635253e-14          0.1 0.0090032649    7.6983595  0.029894496 
number of iterations: 1728 
   11200    37.806539      628          183          445 1.9028932e-13 4.2625548e-14          0.1 0.0090033071    7.8209176  0.029894424 
number of iterations: 1702 
   11300    38.014761      639          187          452 1.9281107e-13 4.3644571e-14          0.1 0.0090033517    7.9447306  0.029894348 
number of iterations: 1756 
   11400    38.235247      653          190          463 1.9536623e-13 4.4693213e-14          0.1  0.009003404    8.0698027  0.029894258 
number of iterations: 1716 
   11500    38.410469      672          193          479 1.9795527e-13 4.577236e-14          0.1  0.009003448    8.1961389  0.029894183 
number of iterations: 1740 
   11600    38.630462      689          197          492 2.0057861e-13 4.6882918e-14          0.1 0.0090035002    8.3237439  0.029894094 
number of iterations: 1717 
   11700    38.823126      704          198          506 2.0323671e-13 4.8025853e-14          0.1 0.0090035417    8.4526211  0.029894023 
number of iterations: 1773 
   11800    39.031277      721          200          521 2.0593004e-13 4.9202157e-14          0.1  0.009003591    8.5827741  0.029893938 
number of iterations: 1731 
   11900    39.211961      735          202          533 2.0865907e-13 5.041286e-14          0.1 0.0090036352    8.7142059  0.029893862 
number of iterations: 1730 
   12000    39.409718      749          204          545 2.1142425e-13 5.1659006e-14          0.1  0.009003679    8.8469197  0.029893787 
number of iterations: 1732 
   12100    39.621105      760          206          554 2.1422609e-13 5.2941695e-14          0.1 0.0090037225    8.9809175  0.029893712 
number of iterations: 1709 
   12200    39.826403      785          214          571 2.1706505e-13 5.426206e-14          0.1 0.0090037662    9.1162009  0.029893637 
number of iterations: 1757 
   12300    40.018176      799          220          579 2.1994164e-13 5.5621224e-14          0.1 0.0090038197     9.252772  0.029893545 
number of iterations: 1738 
   12400    40.228096      814          223          591 2.2285635e-13 5.7020367e-14          0.1 0.0090038632    9.3906319   0.02989347 
number of iterations: 1747 
   12500    40.422441      831          226          605 2.2580968e-13 5.8460718e-14          0.1 0.0090039124    9.5297813  0.029893385 
number of iterations: 1701 
   12600    40.614673      851          229          622 2.2880215e-13 5.9943539e-14          0.1 0.0090039579    9.6702196  0.029893306 
number of iterations: 1801 
   12700    40.843229      873          232          641 2.3183428e-13 6.1470143e-14          0.1 0.0090040089    9.8119466  0.029893218 
number of iterations: 1791 
   12800    41.044529      898          236          662 2.3490659e-13 6.3041884e-14          0.1 0.0090040631    9.9549614  0.029893125 
number of iterations: 1793 
   12900      41.2469      922          238          684 2.3801961e-13 6.4660135e-14          0.1 0.0090041219    10.099262  0.029893024 
number of iterations: 1729 
   13000    41.533512      936          239          697 2.4117389e-13 6.6326352e-14          0.1 0.0090041705    10.244846  0.029892939 
number of iterations: 1837 
   13100    41.762998      955          240          715 2.4436997e-13 6.8042004e-14          0.1 0.0090042286     10.39171  0.029892839 
number of iterations: 1779 
   13200    41.966817      969          244          725 2.4760841e-13 6.9808625e-14          0.1 0.0090042926     10.53985  0.029892729 
number of iterations: 1804 
   13300    42.176435      995          251          744 2.5088976e-13 7.1627798e-14          0.1 0.0090043487    10.689262  0.029892632 
number of iterations: 1796 
   13400    42.393243     1018          255          763 2.542146e-13 7.3501127e-14          0.1 0.0090044132     10.83994  0.029892521 
number of iterations: 1803 
   13500     42.59561     1038          257          781 2.5758349e-13 7.5430292e-14          0.1 0.0090044631     10.99188  0.029892434 
number of iterations: 1770 
   13600    42.815061     1061          261          800 2.6099704e-13 7.7417031e-14          0.1 0.0090045128    11.145073  0.029892347 
number of iterations: 1791 
   13700    43.024357     1101          264          837 2.6445582e-13 7.9463131e-14          0.1 0.0090045782    11.299513  0.029892234 
number of iterations: 1772 
   13800    43.222927     1128          267          861 2.6796043e-13 8.1570432e-14          0.1 0.0090046383     11.45519   0.02989213 
number of iterations: 1785 
   13900    43.496195     1156          270          886 2.7151149e-13 8.3740831e-14          0.1 0.0090046976    11.612096  0.029892027 
number of iterations: 1804 
   14000    43.715395     1187          275          912 2.7510961e-13 8.5976302e-14          0.1 0.0090047613    11.770219  0.029891916 
number of iterations: 1805 
   14100    43.926411     1213          281          932 2.7875541e-13 8.8278848e-14          0.1 0.0090048111    11.929549  0.029891829 
number of iterations: 1763 
   14200    44.128227     1241          283          958 2.8244953e-13 9.065058e-14          0.1 0.0090048672    12.090072   0.02989173 
number of iterations: 1808 
   14300    44.363248     1257          283          974 2.861926e-13 9.3093632e-14          0.1 0.0090049276    12.251775  0.029891625 
number of iterations: 1830 
   14400    44.588521     1275          285          990 2.8998527e-13 9.5610244e-14          0.1 0.0090049946    12.414644  0.029891508 
number of iterations: 1820 
   14500    44.830214     1305          288         1017 2.9382821e-13  9.82027e-14          0.1 0.0090050592    12.578661  0.029891395 
number of iterations: 1803 
   14600    45.053234     1350          292         1058 2.9772207e-13 1.0087338e-13          0.1 0.0090051178    12.743811  0.029891292 
number of iterations: 1852 
   14700    45.273828     1377          297         1080 3.0166753e-13 1.0362472e-13          0.1 0.0090051826    12.910074  0.029891178 
number of iterations: 1777 
   14800    45.519567     1412          303         1109 3.0566528e-13 1.0645923e-13          0.1 0.0090052427    13.077432  0.029891072 
number of iterations: 1844 
   14900    45.731679     1440          304         1136 3.0971601e-13 1.0937955e-13          0.1 0.0090053149    13.245862  0.029890946 
number of iterations: 1779 
   15000      45.9367     1478          308         1170 3.1382042e-13 1.1238833e-13          0.1 0.0090053635    13.415343  0.029890859 
number of iterations: 1890 
   15100    46.144861     1519          310         1209 3.1797922e-13 1.1548833e-13          0.1 0.0090054376    13.585851  0.029890729 
number of iterations: 1795 
   15200    46.353758     1561          313         1248 3.2219314e-13 1.1868239e-13          0.1 0.0090054953     13.75736  0.029890627 
number of iterations: 1810 
   15300    46.558391     1596          317         1279 3.264629e-13 1.2197343e-13          0.1 0.0090055684    13.929843  0.029890498 
number of iterations: 1816 
   15400    46.824324     1628          323         1305 3.3078924e-13 1.2536455e-13          0.1 0.0090056385    14.103272  0.029890375 
number of iterations: 1821 
   15500    47.033334     1665          326         1339 3.3517291e-13 1.2885887e-13          0.1 0.0090056901    14.277616  0.029890282 
number of iterations: 1860 
   15600    47.236479     1710          333         1377 3.3961468e-13 1.3245961e-13          0.1 0.0090057738    14.452842  0.029890135 
number of iterations: 1828 
   15700    47.475966     1751          337         1414 3.4411531e-13 1.3617011e-13          0.1 0.0090058478    14.628917  0.029890004 
number of iterations: 1855 
   15800    47.679973     1795          342         1453 3.4867559e-13 1.3999382e-13          0.1   0.00900593    14.805804  0.029889859 
number of iterations: 1788 
   15900     47.88655     1837          344         1493 3.5329629e-13 1.4393428e-13          0.1  0.009005988    14.983465  0.029889755 
number of iterations: 1907 
   16000    48.091114     1897          352         1545 3.5797823e-13 1.4799516e-13          0.1 0.0090060792    15.161862  0.029889595 
number of iterations: 1870 
   16100    48.318937     1947          357         1590 3.6272222e-13 1.5218022e-13          0.1 0.0090061749    15.340951  0.029889426 
number of iterations: 1855 
   16200    48.537059     2008          363         1645 3.6752907e-13 1.5649339e-13          0.1 0.0090062577    15.520689  0.029889279 
number of iterations: 1902 
   16300    48.748257     2064          371         1693 3.7239963e-13 1.6093866e-13          0.1 0.0090063366    15.701028  0.029889139 
number of iterations: 1852 
   16400    48.974794     2104          376         1728 3.7733473e-13 1.6552018e-13          0.1 0.0090064154    15.881919  0.029888998 
number of iterations: 1860 
   16500    49.182117     2158          382         1776 3.8233523e-13 1.7024222e-13          0.1 0.0090064916    16.063311  0.029888861 
number of iterations: 1864 
   16600      49.4124     2214          391         1823  3.87402e-13 1.7510917e-13          0.1 0.0090065642     16.24515  0.029888731 
number of iterations: 1839 
   16700    49.664404     2268          397         1871 3.9253591e-13 1.8012553e-13          0.1 0.0090066426     16.42738   0.02988859 
number of iterations: 1837 
   16800    49.910762     2339          401         1938 3.9773786e-13 1.8529607e-13          0.1 0.0090067156    16.609941  0.029888457 
number of iterations: 1865 
   16900    50.125098     2400          406         1994 4.0300875e-13 1.9062555e-13          0.1 0.0090068025    16.792772  0.029888301 
number of iterations: 1901 
   17000    50.438178     2465          408         2057 4.0834948e-13  1.96119e-13          0.1 0.0090068917    16.975806  0.029888141 
number of iterations: 1887 
   17100    50.649834     2528          413         2115 4.1376099e-13 2.0178158e-13          0.1 0.0090069847    17.158975  0.029887975 
number of iterations: 1872 
   17200    50.883906     2597          416         2181 4.1924422e-13 2.0761862e-13          0.1 0.0090070654    17.342209  0.029887829 
number of iterations: 1873 
   17300    51.093921     2655          420         2235 4.2480011e-13 2.1351302e-13          0.1 0.0090071543    17.525516  0.029887669 
number of iterations: 1891 
   17400    51.373325     2724          426         2298 4.3042963e-13 2.1971199e-13          0.1 0.0090072471    17.708738  0.029887501 
number of iterations: 1848 
   17500    51.641001     2791          431         2360 4.3613375e-13 2.2610224e-13          0.1 0.0090073299    17.891793   0.02988735 
number of iterations: 1851 
   17600    51.870475     2874          434         2440 4.4191346e-13 2.3268975e-13          0.1 0.0090074152    18.074597  0.029887194 
number of iterations: 1892 
   17700    52.096525     2942          438         2504 4.4776976e-13 2.3948072e-13          0.1 0.0090075108    18.257062  0.029887021 
number of iterations: 1873 
   17800    52.308781     3003          447         2556 4.5370367e-13 2.4635597e-13          0.1 0.0090075905    18.439181  0.029886873 
number of iterations: 1921 
   17900    52.547234     3086          456         2630 4.5971622e-13 2.5356946e-13          0.1 0.0090076833    18.620774  0.029886704 
number of iterations: 1917 
   18000    52.778784     3171          462         2709 4.6580845e-13  2.61006e-13          0.1 0.0090077674    18.801743  0.029886549 
number of iterations: 1906 
   18100    53.012688     3267          466         2801 4.7198142e-13 2.6867255e-13          0.1  0.009007866    18.981982  0.029886368 
number of iterations: 1914 
   18200    53.261903     3350          474         2876 4.7823618e-13 2.765764e-13          0.1 0.0090079599    19.161385  0.029886196 
number of iterations: 1868 
   18300    53.484615     3442          478         2964 4.8457384e-13 2.847248e-13          0.1 0.0090080446    19.339838  0.029886038 
number of iterations: 1924 
   18400    53.736274     3545          487         3058 4.9099548e-13 2.9312553e-13          0.1 0.0090081459    19.517223  0.029885852 
number of iterations: 1929 
   18500    53.956567     3640          491         3149 4.9750223e-13 3.0178646e-13          0.1 0.0090082351    19.693419  0.029885686 
number of iterations: 1918 
   18600    54.192918     3743          502         3241 5.040952e-13 3.1071576e-13          0.1 0.0090083497    19.868298  0.029885476 
number of iterations: 1905 
   18700    54.428558     3843          508         3335 5.1077554e-13 3.1992168e-13          0.1  0.009008447    20.041728  0.029885295 
number of iterations: 1893 
   18800    54.673389     3950          514         3436 5.1754442e-13 3.2941285e-13          0.1 0.0090085413    20.213571  0.029885118 
number of iterations: 1900 
   18900    54.904987     4061          522         3539 5.2440299e-13 3.3905765e-13          0.1 0.0090086448    20.383783  0.029884925 
number of iterations: 1923 
   19000    55.174267     4176          533         3643 5.3135245e-13 3.491421e-13          0.1 0.0090087376    20.552119   0.02988475 
number of iterations: 1958 
   19100    55.598682     4281          537         3744 5.3839401e-13 3.5953906e-13          0.1 0.0090088586    20.718427  0.029884528 
number of iterations: 1936 
   19200    55.836644     4403          542         3861 5.4552888e-13 3.7013695e-13          0.1 0.0090089623    20.882631  0.029884332 
number of iterations: 1911 
   19300    56.092008     4502          545         3957 5.5275831e-13 3.8118474e-13          0.1 0.0090090617    21.044485  0.029884144 
number of iterations: 1940 
   19400    56.358321     4644          555         4089 5.6008354e-13 3.924513e-13          0.1  0.009009161    21.203901  0.029883955 
number of iterations: 1917 
   19500    56.612492     4781          564         4217 5.6750584e-13 4.0375658e-13          0.1 0.0090092634     21.36092   0.02988376 
number of iterations: 1946 
   19600    56.866924     4910          567         4343 5.7502651e-13 4.1584696e-13          0.1 0.0090093583    21.515065  0.029883577 
number of iterations: 1910 
   19700    57.142411     5064          573         4491 5.8264684e-13 4.2821492e-13          0.1  0.009009455    21.666214  0.029883391 
number of iterations: 1946 
   19800    57.398879     5222          580         4642 5.9036815e-13 4.4106303e-13          0.1 0.0090095692    21.814104  0.029883174 
number of iterations: 1962 
   19900    57.671634     5354          589         4765 5.9819179e-13 4.5418267e-13          0.1 0.0090096919    21.958617  0.029882942 
number of iterations: 1919 
   20000    57.911246     5492          596         4896 6.0611911e-13 4.6769717e-13          0.1 0.0090098062    22.099551  0.029882724 
number of iterations: 1950 
   20100     58.17274     5617          603         5014 6.1415148e-13 4.816784e-13          0.1 0.0090099219    22.236658  0.029882502 
number of iterations: 1954 
   20200    58.424454     5789          612         5177 6.222903e-13 4.9618183e-13          0.1 0.0090100285    22.369651  0.029882294 
number of iterations: 1969 
   20300    58.696281     5960          620         5340 6.3053697e-13 5.1113365e-13          0.1  0.009010152    22.498294  0.029882057 
number of iterations: 1976 
   20400    58.946668     6100          627         5473 6.3889293e-13 5.2645758e-13          0.1 0.0090102681    22.622409  0.029881832 
number of iterations: 1986 
   20500    59.202686     6279          641         5638 6.4735962e-13 5.4226097e-13          0.1 0.0090103837    22.741742  0.029881606 
number of iterations: 1909 
   20600    59.463132     6463          646         5817 6.5593851e-13 5.5854188e-13          0.1 0.0090104924    22.856045  0.029881391 
number of iterations: 1933 
   20700     59.74258     6657          653         6004 6.6463109e-13 5.7515893e-13          0.1 0.0090105929    22.965168   0.02988119 
number of iterations: 1980 
   20800    59.990595     6847          665         6182 6.7343887e-13 5.9228925e-13          0.1 0.0090107282    23.068841  0.029880929 
number of iterations: 2027 
   20900    60.256154     7039          681         6358 6.8236336e-13 6.1000202e-13          0.1 0.0090108556    23.166747  0.029880681 
number of iterations: 1981 
   21000    60.683928     7225          684         6541 6.9140612e-13 6.2824968e-13          0.1 0.0090109888    23.258605  0.029880421 
number of iterations: 1973 
   21100    60.952379     7429          692         6737 7.0056872e-13 6.4695735e-13          0.1 0.0090110979    23.344186  0.029880201 
number of iterations: 1952 
   21200    61.223826     7629          697         6932 7.0985274e-13 6.6645707e-13          0.1 0.0090112263    23.423036  0.029879946 
number of iterations: 2006 
   21300    61.544825     7841          705         7136 7.192598e-13 6.8665499e-13          0.1 0.0090113545    23.494766  0.029879691 
number of iterations: 2005 
   21400     61.82668     8081          715         7366 7.2879151e-13 7.0747195e-13          0.1 0.0090114811    23.559046  0.029879438 
number of iterations: 2004 
   21500     62.11047     8315          722         7593 7.3844955e-13 7.2882095e-13          0.1 0.0090115809    23.615611  0.029879228 
number of iterations: 2025 
   21600    62.421194     8553          738         7815 7.4823557e-13 7.5050727e-13          0.1 0.0090117052    23.664334  0.029878977 
number of iterations: 1986 
   21700    62.701015     8822          746         8076 7.5815127e-13 7.7270233e-13          0.1 0.0090118364    23.704972  0.029878713 
number of iterations: 1984 
   21800     62.99803     9086          763         8323 7.6819838e-13 7.9602947e-13          0.1 0.0090119695    23.736849  0.029878443 
number of iterations: 2017 
   21900    63.326177     9345          773         8572 7.7837863e-13 8.2009661e-13          0.1 0.0090121066    23.759569  0.029878166 
number of iterations: 1957 
   22000    63.652099     9624          779         8845 7.8869379e-13 8.447323e-13          0.1 0.0090122264     23.77286  0.029877916 
number of iterations: 1975 
   22100    63.994639     9902          788         9114 7.9914565e-13 8.6995443e-13          0.1 0.0090123326    23.776442  0.029877689 
number of iterations: 2049 
   22200    64.286733    10160          795         9365 8.0973602e-13 8.9622716e-13          0.1 0.0090124739    23.769712  0.029877399 
number of iterations: 2038 
   22300    64.652308    10464          811         9653 8.2046673e-13 9.2321505e-13          0.1 0.0090126208    23.752315    0.0298771 
number of iterations: 1980 
   22400    64.967013    10754          823         9931 8.3133964e-13 9.5071258e-13          0.1 0.0090127501    23.724039  0.029876828 
number of iterations: 2046 
   22500    65.299749    11067          838        10229 8.4235665e-13 9.7916788e-13          0.1 0.0090129053    23.684367  0.029876513 
number of iterations: 2018 
   22600    65.822982    11400          851        10549 8.5351965e-13 1.0088499e-12          0.1 0.0090130427    23.632602  0.029876224 
number of iterations: 1996 
   22700    66.119705    11721          862        10859 8.6483058e-13 1.0388082e-12          0.1 0.0090131769     23.56872  0.029875941 
number of iterations: 2022 
   22800    66.435082    12016          874        11142 8.762914e-13 1.069661e-12          0.1 0.0090133264    23.492271  0.029875629 
number of iterations: 1995 
   22900     66.76152    12353          881        11472 8.879041e-13  1.10181e-12          0.1 0.0090134648    23.402532  0.029875335 
number of iterations: 1995 
   23000    67.086966    12704          891        11813 8.996707e-13 1.1348368e-12          0.1 0.0090135881    23.299086  0.029875065 
number of iterations: 1967 
   23100    67.422546    13062          911        12151 9.1159323e-13 1.1683954e-12          0.1 0.0090137011    23.181768  0.029874811 
number of iterations: 2074 
   23200    67.746975    13455          923        12532 9.2367375e-13 1.2030737e-12          0.1 0.0090138552    23.050012  0.029874486 
number of iterations: 2055 
   23300    68.106737    13823          928        12895 9.3591436e-13 1.2388766e-12          0.1 0.0090140073    22.903262  0.029874162 
number of iterations: 2117 
   23400    68.457205    14225          940        13285 9.4831719e-13 1.2753647e-12          0.1 0.0090141754    22.741285  0.029873811 
number of iterations: 2019 
   23500    68.824848    14630          951        13679 9.6088438e-13 1.3131103e-12          0.1 0.0090143199    22.563462  0.029873497 
number of iterations: 2037 
   23600    69.166139    15040          966        14074 9.7361811e-13 1.3519661e-12          0.1  0.009014472    22.369294  0.029873168 
number of iterations: 2094 
   23700    69.521752    15485          976        14509 9.8652059e-13 1.3913001e-12          0.1 0.0090146353    22.158742  0.029872821 
number of iterations: 2047 
   23800     69.87639    15944          993        14951 9.9959405e-13 1.432746e-12          0.1 0.0090147713     21.93065  0.029872516 
number of iterations: 2105 
   23900    70.301722    16405         1002        15403 1.0128408e-12 1.4743491e-12          0.1 0.0090149418    21.685246  0.029872152 
number of iterations: 1995 
   24000    70.719379    16861         1011        15850 1.026263e-12 1.5170748e-12          0.1 0.0090150965    21.422112  0.029871815 
number of iterations: 2079 
   24100    71.091568    17367         1018        16349 1.0398631e-12 1.5615428e-12          0.1 0.0090152612    21.140425  0.029871456 
number of iterations: 2070 
   24200    71.511157    17870         1031        16839 1.0536435e-12 1.606725e-12          0.1 0.0090154332    20.840114  0.029871086 
number of iterations: 2037 
   24300     71.92174    18368         1046        17322 1.0676065e-12 1.6536579e-12          0.1 0.0090155733    20.520421  0.029870766 
number of iterations: 2094 
   24400    72.318973    18901         1060        17841 1.0817545e-12 1.7016913e-12          0.1 0.0090157412     20.18108  0.029870398 
number of iterations: 2046 
   24500    72.702575    19400         1075        18325  1.09609e-12 1.7504189e-12          0.1 0.0090158941    19.822146  0.029870056 
number of iterations: 2056 
   24600    73.099532    19947         1090        18857 1.1096999e-12 1.8004216e-12          0.1 0.0090160551    19.442622  0.029869699 
number of iterations: 2068 
   24700    73.527987    20469         1107        19362 1.1244058e-12 1.8509809e-12          0.1 0.0090162389    19.043453  0.029869304 
number of iterations: 2075 
   24800    73.923534    21039         1126        19913 1.1393065e-12 1.9039052e-12          0.1 0.0090164415    18.623713  0.029868876 
number of iterations: 2025 
   24900    74.330629    21552         1138        20414 1.1544047e-12 1.9570667e-12          0.1 0.0090165787       18.184  0.029868557 
number of iterations: 2059 
   25000    74.833191    22150         1153        20997 1.1697029e-12 2.0122644e-12          0.1 0.0090167556    17.723763  0.029868171 
number of iterations: 2043 
   25100    75.252993    22755         1168        21587 1.1852039e-12 2.0678698e-12          0.1 0.0090169206    17.243647  0.029867807 
number of iterations: 2111 
   25200    75.698424    23404         1185        22219 1.2009103e-12 2.1255794e-12          0.1 0.0090171186    16.743245  0.029867385 
number of iterations: 2085 
   25300    76.136983    24029         1200        22829 1.2168249e-12 2.1842015e-12          0.1 0.0090172806    16.223077  0.029867022 
number of iterations: 2096 
   25400     76.58845    24661         1216        23445 1.2329503e-12 2.2434098e-12          0.1 0.0090174772    15.683999  0.029866605 
number of iterations: 2125 
   25500    77.045983    25321         1240        24081 1.2492895e-12 2.304027e-12          0.1 0.0090176983    15.126461  0.029866146 
number of iterations: 2121 
   25600    77.513775    25964         1255        24709 1.2658451e-12 2.3659345e-12          0.1 0.0090179163    14.551159  0.029865697 
number of iterations: 2072 
   25700    77.994767    26628         1272        25356 1.2826202e-12 2.4290552e-12          0.1 0.0090180873    13.959039  0.029865328 
number of iterations: 2123 
   25800    78.482125    27340         1285        26055 1.2996175e-12 2.4928429e-12          0.1 0.0090183258    13.351611  0.029864852 
number of iterations: 2131 
   25900    78.985842    28063         1299        26764 1.3168401e-12 2.5577077e-12          0.1 0.0090185706    12.730353  0.029864368 
number of iterations: 2071 
   26000    79.486295    28778         1316        27462 1.334291e-12 2.6239194e-12          0.1 0.0090187822    12.096852   0.02986394 
number of iterations: 2124 
   26100    79.999331    29538         1334        28204 1.3519731e-12 2.6903425e-12          0.1 0.0090190379    11.453729   0.02986345 
number of iterations: 2125 
   26200    80.526582    30267         1351        28916 1.3698895e-12 2.7569767e-12          0.1 0.0090192788    10.803926   0.02986299 
number of iterations: 2166 
   26300    81.049526    31013         1366        29647 1.3880434e-12 2.8235992e-12          0.1  0.009019565    10.150874  0.029862462 
number of iterations: 2148 
   26400    81.679914    31784         1380        30404 1.4064378e-12 2.8897132e-12          0.1  0.009019827    9.4986745  0.029861987 
number of iterations: 2141 
   26500    82.223929    32521         1402        31119 1.425076e-12 2.9568719e-12          0.1 0.0090200987    8.8508752  0.029861506 
number of iterations: 2103 
   26600    82.795287    33233         1415        31818 1.4439611e-12 3.0232252e-12          0.1 0.0090203938     8.212565  0.029860999 
number of iterations: 2082 
   26700    83.363432    33977         1438        32539 1.4622772e-12 3.0894403e-12          0.1 0.0090206641    7.5881597  0.029860544 
number of iterations: 2129 
   26800    83.943672    34706         1456        33250 1.4816553e-12 3.1557405e-12          0.1  0.009020997    6.9835772  0.029860004 
number of iterations: 2152 
   26900    84.580555    35406         1473        33933 1.5012903e-12 3.219975e-12          0.1  0.009021371    6.4054906  0.029859411 
number of iterations: 2175 
   27000    85.190367    36104         1488        34616 1.5211854e-12 3.2832101e-12          0.1 0.0090217784    5.8598997  0.029858778 
number of iterations: 2111 
   27100    85.820229    36785         1507        35278 1.5413443e-12 3.3452719e-12          0.1 0.0090221447    5.3526108  0.029858231 
number of iterations: 2190 
   27200    86.435606    37466         1529        35937 1.5617702e-12 3.4046797e-12          0.1 0.0090225388    4.8895136  0.029857652 
number of iterations: 2280 
   27300    87.115311    38135         1548        36587 1.5797627e-12 3.4635925e-12          0.1 0.0090229487    4.4721796  0.029857057 
number of iterations: 2371 
   27400    87.756436    38771         1571        37200 1.5994209e-12 3.5216395e-12          0.1 0.0090233579    4.1044608   0.02985647 
number of iterations: 2464 
   27500    88.427774    39414         1594        37820 1.6206165e-12 3.5776339e-12          0.1 0.0090237942    3.7887872  0.029855842 
number of iterations: 2551 
   27600    89.128529    40084         1616        38468 1.6420929e-12 3.6327924e-12          0.1  0.009024269    3.5239082  0.029855146 
number of iterations: 2634 
   27700    89.834843    40709         1641        39068 1.663854e-12 3.6864047e-12          0.1 0.0090246988    3.3070688  0.029854517 
number of iterations: 2707 
   27800    90.607796    41302         1664        39638 1.6859034e-12 3.7376089e-12          0.1 0.0090251454    3.1343026  0.029853847 
number of iterations: 2779 
   27900    91.372088    41854         1687        40167 1.7082451e-12 3.7900571e-12          0.1 0.0090255949    2.9990988  0.029853153 
number of iterations: 2840 
   28000    92.146895    42444         1706        40738 1.7308828e-12 3.8403413e-12          0.1 0.0090260444    2.8961497  0.029852443 
number of iterations: 2894 
   28100    92.887128    42992         1724        41268 1.7525479e-12 3.8911808e-12          0.1 0.0090263837    2.8181522  0.029851899 
number of iterations: 2943 
   28200    93.658941    43547         1743        41804 1.7757727e-12 3.9403871e-12          0.1 0.0090267462    2.7615185  0.029851304 
number of iterations: 2983 
   28300    94.419247    44079         1769        42310 1.7993053e-12 3.9904307e-12          0.1 0.0090271618    2.7210958  0.029850606 
number of iterations: 3019 
   28400    95.230351    44654         1796        42858 1.8231497e-12 4.0416078e-12          0.1 0.0090275668    2.6926191  0.029849913 
number of iterations: 3049 
   28500    96.043768    45229         1832        43397 1.8463359e-12 4.0940446e-12          0.1 0.0090279329    2.6719788  0.029849273 
number of iterations: 3078 
   28600    96.843522    45833         1858        43975 1.8708036e-12 4.1455698e-12          0.1 0.0090282969    2.6583671  0.029848631 
number of iterations: 3107 
   28700    97.650521    46407         1889        44518 1.8955955e-12 4.1968729e-12          0.1 0.0090287074    2.6501053  0.029847908 
number of iterations: 3129 
   28800    98.451478    46982         1909        45073 1.9207159e-12 4.2504141e-12          0.1 0.0090290946    2.6450794  0.029847218 
number of iterations: 3154 
   28900    99.291764    47588         1924        45664 1.9452216e-12 4.3048402e-12          0.1 0.0090294397    2.6415331  0.029846593 
number of iterations: 3179 
   29000    100.11309    48191         1950        46241 1.9709996e-12 4.359437e-12          0.1 0.0090298135    2.6399525  0.029845919 
number of iterations: 3201 
   29100    100.94049    48796         1972        46824 1.9958793e-12 4.4138066e-12          0.1  0.009030183    2.6390997  0.029845251 
number of iterations: 3223 
   29200    101.81098    49369         1994        47375 2.0223287e-12 4.4692647e-12          0.1 0.0090305879    2.6395702  0.029844523 
number of iterations: 3246 
   29300    102.65283    50007         2016        47991 2.0491286e-12 4.5254308e-12          0.1 0.0090309749     2.640947  0.029843822 
number of iterations: 3267 
   29400    103.51895    50652         2052        48600 2.0762836e-12 4.5817837e-12          0.1 0.0090313842    2.6431173  0.029843083 
number of iterations: 3285 
   29500    104.38703    51326         2086        49240 2.1005647e-12 4.6391005e-12          0.1 0.0090316913    2.6432464  0.029842512 
number of iterations: 3310 
   29600    105.28735    51968         2106        49862 2.1284013e-12 4.6968634e-12          0.1 0.0090320948    2.6446219  0.029841782 
number of iterations: 3330 
   29700    106.17025    52602         2123        50479 2.1556002e-12 4.7552819e-12          0.1 0.0090325021    2.6460705  0.029841045 
number of iterations: 3353 
   29800    107.09575    53319         2151        51168 2.1841662e-12 4.8151293e-12          0.1 0.0090329845    2.6481108   0.02984018 
number of iterations: 3377 
   29900    108.02816    53971         2174        51797 2.2109959e-12 4.8754665e-12          0.1 0.0090333467    2.6490025  0.029839517 
number of iterations: 3400 
   30000    108.93536    54581         2204        52377 2.2389048e-12 4.9366701e-12          0.1 0.0090337295    2.6496877  0.029838818 
number of iterations: 3425 
   30100     109.8466    55276         2233        53043 2.2674598e-12 4.9987245e-12          0.1 0.0090341813     2.650424  0.029838002 
number of iterations: 3447 
   30200    110.80154    56020         2265        53755 2.2975081e-12 5.0615711e-12          0.1 0.0090346325    2.6520726  0.029837187 
number of iterations: 3468 
   30300    111.76727    56692         2289        54403 2.3279546e-12 5.1249193e-12          0.1 0.0090350396    2.6544052  0.029836445 
number of iterations: 3490 
   30400    112.74526    57378         2314        55064 2.3588046e-12 5.1880036e-12          0.1 0.0090354879      2.65754  0.029835633 
number of iterations: 3512 
   30500    113.70928    58073         2337        55736 2.3889439e-12 5.2530662e-12          0.1 0.0090358825    2.6598991  0.029834908 
number of iterations: 3536 
   30600     114.6851    58762         2360        56402 2.4182133e-12 5.318079e-12          0.1 0.0090362816    2.6611029  0.029834176 
number of iterations: 3558 
   30700    115.70652    59530         2395        57135 2.4502594e-12 5.3838136e-12          0.1 0.0090367395    2.6634895  0.029833346 
number of iterations: 3576 
   30800    116.71899    60279         2431        57848 2.4814472e-12 5.4520281e-12          0.1 0.0090371866    2.6650337  0.029832531 
number of iterations: 3598 
   30900    117.73568    61062         2462        58600 2.5107516e-12 5.5213557e-12          0.1 0.0090375475    2.6642191  0.029831859 
number of iterations: 3624 
   31000      118.864    61788         2498        59290 2.5420742e-12 5.5899067e-12          0.1 0.0090379442    2.6638438  0.029831133 
number of iterations: 3648 
   31100    119.89843    62548         2524        60024 2.572424e-12 5.6589539e-12          0.1 0.0090383883    2.6628024  0.029830326 
number of iterations: 3674 
   31200     120.9266    63310         2548        60762  2.60566e-12 5.728863e-12          0.1 0.0090388114    2.6633138  0.029829552 
number of iterations: 3699 
   31300     122.0343    64112         2584        61528 2.6382489e-12 5.7988654e-12          0.1  0.009039269    2.6641861   0.02982872 
number of iterations: 3721 
   31400    123.11238    64933         2617        62316 2.6682706e-12  5.87247e-12          0.1 0.0090396281    2.6620002  0.029828048 
number of iterations: 3743 
   31500    124.20121    65680         2644        63036 2.6978835e-12 5.9455044e-12          0.1 0.0090400599    2.6579852  0.029827257 
number of iterations: 3768 
   31600    125.33178    66533         2674        63859 2.7327122e-12 6.0196878e-12          0.1 0.0090405155    2.6566204   0.02982643 
number of iterations: 3792 
   31700    126.45478    67356         2717        64639 2.7666763e-12 6.0952599e-12          0.1 0.0090409387    2.6555859  0.029825654 
number of iterations: 3817 
   31800    127.58816    68264         2755        65509 2.8024649e-12 6.1713254e-12          0.1 0.0090415014    2.6559786  0.029824642 
number of iterations: 3842 
   31900    128.71769    69140         2787        66353 2.8387383e-12 6.2472611e-12          0.1 0.0090420107    2.6575708   0.02982372 
number of iterations: 3864 
   32000    129.86728    70036         2829        67207 2.8737535e-12 6.3249926e-12          0.1 0.0090424576    2.6581846  0.029822895 
number of iterations: 3893 
   32100    131.01893    70879         2871        68008 2.9065784e-12 6.4012313e-12          0.1 0.0090428329    2.6570881  0.029822195 
number of iterations: 3914 
   32200    132.25278    71731         2898        68833 2.9439838e-12 6.4789526e-12          0.1 0.0090433339    2.6581451  0.029821287 
number of iterations: 3941 
   32300      133.444    72570         2933        69637 2.9800392e-12 6.5587758e-12          0.1  0.009043806    2.6585284  0.029820421 
number of iterations: 3962 
   32400    134.65973    73523         2970        70553 3.0195305e-12 6.6398685e-12          0.1 0.0090443541    2.6607638  0.029819427 
number of iterations: 3985 
   32500    135.87923    74397         3004        71393 3.0540289e-12 6.7209878e-12          0.1   0.00904478     2.660031  0.029818635 
number of iterations: 4010 
   32600     137.1481    75315         3033        72282 3.0905599e-12 6.8015581e-12          0.1 0.0090453646    2.6595947  0.029817585 
number of iterations: 4033 
   32700    138.43809    76221         3085        73136 3.1315157e-12 6.8842471e-12          0.1 0.0090459838    2.6619902  0.029816472 
number of iterations: 4058 
   32800    139.67842    77137         3123        74014 3.1687386e-12 6.9687571e-12          0.1 0.0090464291    2.6622132  0.029815642 
number of iterations: 4083 
   32900    140.95304    78084         3153        74931 3.2034506e-12 7.0533659e-12          0.1  0.009046868    2.6593997  0.029814829 
number of iterations: 4105 
   33000    142.27227    79035         3189        75846 3.2401018e-12 7.1390528e-12          0.1 0.0090474053    2.6562877  0.029813854 
number of iterations: 4138 
   33100    143.55205    79963         3220        76743 3.272304e-12 7.2246153e-12          0.1 0.0090477082     2.649672  0.029813269 
number of iterations: 4167 
   33200    144.83855    80923         3264        77659 3.3107767e-12 7.3121948e-12          0.1 0.0090481771    2.6456747  0.029812414 
number of iterations: 4195 
   33300    146.20911    81901         3305        78596 3.3509901e-12 7.3998822e-12          0.1 0.0090487103    2.6442533  0.029811447 
number of iterations: 4226 
   33400    147.56491    82857         3347        79510 3.3878974e-12 7.4887528e-12          0.1 0.0090492685    2.6409907  0.029810432 
number of iterations: 4248 
   33500     148.8793    83859         3386        80473 3.4297926e-12 7.5790699e-12          0.1 0.0090497757    2.6403547  0.029809502 
number of iterations: 4272 
   33600    150.21095    84840         3428        81412 3.4677002e-12 7.6677375e-12          0.1 0.0090502502    2.6383459  0.029808627 
number of iterations: 4303 
   33700     151.5733    85859         3470        82389 3.5049462e-12 7.7607404e-12          0.1 0.0090506844    2.6337504  0.029807817 
number of iterations: 4333 
   33800    152.94692    86859         3506        83353 3.5407945e-12 7.8515919e-12          0.1 0.0090511298    2.6277952  0.029806992 
number of iterations: 4360 
   33900    154.32251    87865         3551        84314 3.5783831e-12 7.9437566e-12          0.1 0.0090517057    2.6222561  0.029805952 
number of iterations: 4393 
   34000    155.75743    88841         3583        85258 3.6148005e-12 8.0365785e-12          0.1  0.009052187    2.6158301  0.029805069 
number of iterations: 4425 
   34100     157.1314    89836         3619        86217 3.6556328e-12 8.1298325e-12          0.1 0.0090527819    2.6124236     0.029804 
number of iterations: 4452 
   34200    158.54124    90914         3662        87252 3.6991764e-12 8.2244881e-12          0.1  0.009053403    2.6118652   0.02980288 
number of iterations: 4478 
   34300    159.95698    91986         3695        88291 3.7374928e-12 8.3198109e-12          0.1 0.0090539854    2.6080913  0.029801819 
number of iterations: 4507 
   34400     161.4054    93032         3735        89297 3.7807173e-12 8.4152111e-12          0.1 0.0090545647    2.6069824  0.029800767 
number of iterations: 4535 
   34500    162.89464    94080         3773        90307 3.8206085e-12 8.5131075e-12          0.1 0.0090550408     2.603411   0.02979988 
number of iterations: 4563 
   34600    164.35418    95221         3813        91408 3.8639383e-12 8.6108726e-12          0.1  0.009055719    2.6017244  0.029798663 
number of iterations: 4598 
   34700    165.86399    96309         3840        92469 3.9005252e-12 8.7095162e-12          0.1 0.0090561322     2.595166  0.029797881 
number of iterations: 4634 
   34800    167.36139    97430         3897        93533 3.9469329e-12 8.8108488e-12          0.1 0.0090568023    2.5937429  0.029796679 
number of iterations: 4664 
   34900    168.86632    98558         3939        94619 3.9859703e-12 8.9104733e-12          0.1 0.0090573928     2.588931  0.029795599 
number of iterations: 4701 
   35000    170.39682    99659         3977        95682 4.034266e-12 9.0121882e-12          0.1 0.0090579891    2.5895653  0.029794518 
Loop time of 170.397 on 32 procs for 35000 steps with 99659 atoms

Performance: 177468020.434 tau/day, 205.403 timesteps/s
93.0% CPU use with 32 MPI tasks x no OpenMP threads

MPI task timing breakdown:
Section |  min time  |  avg time  |  max time  |%varavg| %total
---------------------------------------------------------------
Pair    | 0.20893    | 5.0295     | 15.426     | 197.3 |  2.95
Neigh   | 0.10183    | 1.5835     | 4.0631     |  92.6 |  0.93
Comm    | 0.84051    | 1.7422     | 2.4388     |  32.9 |  1.02
Output  | 51.719     | 51.72      | 51.727     |   0.0 | 30.35
Modify  | 94.893     | 95.418     | 96.253     |   3.8 | 56.00
Other   |            | 14.9       |            |       |  8.75

Nlocal:    3114.34 ave 5520 max 417 min
Histogram: 3 2 4 3 2 5 3 3 1 6
Nghost:    1809.59 ave 3468 max 466 min
Histogram: 4 1 5 4 3 6 2 5 1 1
Neighs:    26553.7 ave 54127 max 2857 min
Histogram: 4 4 2 5 4 4 2 0 4 3

Total # of neighbors = 849719
Ave neighs/atom = 8.52626
Neighbor list builds = 803
Dangerous builds = 0
#shell cd ..
#clear
#next reps
#jump SELF
Total wall time: 0:02:50
