ITEM: TIMESTEP
0
ITEM: NUMBER OF ATOMS
50
ITEM: BOX BOUNDS ff ff ff
0.0000000000000000e+00 1.0000000000000000e-04
0.0000000000000000e+00 1.0000000000000000e-04
0.0000000000000000e+00 5.0000000000000002e-05
ITEM: ATOMS id type diameter x y z 
23 1 1.5e-06 3.51e-05 7.24e-06 4.18e-06 
19 1 1.84e-06 2.65e-05 4.85e-05 5.61e-06 
46 1 1.44e-06 1.99e-05 3.36e-05 9.39e-06 
14 1 1.45e-06 3.34e-05 8.71e-06 1.5e-05 
7 1 1.52e-06 3e-05 9.08e-06 1.53e-05 
6 1 1.44e-06 3.8e-05 3.85e-05 2.01e-05 
1 1 1.46e-06 3.88e-05 4.18e-05 2.17e-05 
50 1 1.75e-06 3.85e-05 1.91e-05 2.74e-05 
20 1 1.71e-06 2.7e-05 3.11e-05 3.29e-05 
11 1 1.69e-06 1.72e-05 4.77e-06 3.98e-05 
22 1 1.64e-06 1.37e-05 2.81e-05 4.28e-05 
16 1 1.46e-06 7.24e-06 7.44e-05 2.18e-06 
39 1 1.6e-06 2.78e-05 6.83e-05 6.04e-06 
49 1 1.38e-06 1.37e-05 9.03e-05 6.34e-06 
4 1 1.56e-06 1.77e-05 6.86e-05 1.05e-05 
48 1 1.57e-06 2.91e-05 6.25e-05 1.66e-05 
41 1 1.56e-06 1.77e-06 8.76e-05 1.71e-05 
12 1 1.57e-06 3.86e-05 9.1e-05 1.83e-05 
5 1 1.58e-06 1.63e-06 9.42e-05 2.14e-05 
36 1 1.52e-06 1.87e-05 9.07e-05 2.31e-05 
29 1 1.45e-06 2.88e-05 8.71e-05 2.94e-05 
43 1 1.69e-06 2.4e-05 8.03e-05 4.17e-05 
8 1 1.73e-06 4.94e-06 5.65e-05 4.64e-05 
13 1 1.55e-06 3.3e-05 5.17e-05 4.8e-05 
9 1 1.56e-06 8.77e-05 1.18e-05 1.89e-06 
27 1 1.85e-06 8.95e-05 2.67e-05 9.64e-06 
26 1 1.51e-06 9.56e-05 4.56e-05 9.57e-06 
42 1 1.92e-06 8.14e-05 5.6e-06 1.02e-05 
34 1 1.88e-06 6.06e-05 4.13e-05 1.07e-05 
33 1 1.86e-06 9.46e-05 3.22e-06 1.39e-05 
25 1 1.64e-06 5.78e-05 7.05e-06 1.98e-05 
40 1 1.84e-06 9.31e-05 1.61e-05 1.99e-05 
44 1 1.92e-06 5.55e-05 1.71e-05 2.37e-05 
45 1 1.44e-06 5.33e-05 5.62e-06 2.41e-05 
32 1 1.54e-06 9.73e-05 9.25e-06 2.52e-05 
37 1 1.8e-06 6.31e-05 1.18e-05 3.11e-05 
28 1 1.81e-06 5.85e-05 1.77e-05 3.11e-05 
35 1 1.91e-06 5.56e-05 8e-06 3.67e-05 
30 1 1.74e-06 9.77e-05 1.93e-05 4.07e-05 
2 1 1.48e-06 5.39e-05 2.17e-05 4.57e-05 
15 1 1.83e-06 7.7e-05 4.47e-05 4.8e-05 
31 1 1.59e-06 5.76e-05 7.71e-05 2.16e-06 
47 1 1.72e-06 5.44e-05 6.8e-05 1.37e-05 
24 1 1.82e-06 8.42e-05 5.11e-05 2.74e-05 
10 1 1.92e-06 7.29e-05 5.35e-05 2.79e-05 
18 1 1.87e-06 8.53e-05 5.77e-05 3.29e-05 
21 1 1.52e-06 8.13e-05 7.33e-05 3.72e-05 
38 1 1.46e-06 8.23e-05 5.63e-05 3.77e-05 
3 1 1.56e-06 7.74e-05 5.88e-05 3.98e-05 
17 1 1.51e-06 7.09e-05 6.59e-05 4.17e-05 
ITEM: TIMESTEP
100
ITEM: NUMBER OF ATOMS
50
ITEM: BOX BOUNDS ff ff ff
0.0000000000000000e+00 1.0000000000000000e-04
0.0000000000000000e+00 1.0000000000000000e-04
0.0000000000000000e+00 5.0000000000000002e-05
ITEM: ATOMS id type diameter x y z 
23 1 1.50888e-06 3.51e-05 7.24e-06 4.18e-06 
19 1 1.85089e-06 2.65e-05 4.85e-05 5.61e-06 
46 1 1.44853e-06 1.99e-05 3.36e-05 9.39e-06 
14 1 1.45859e-06 3.34e-05 8.71e-06 1.5e-05 
7 1 1.529e-06 3e-05 9.08e-06 1.53e-05 
6 1 1.44853e-06 3.8e-05 3.85e-05 2.01e-05 
1 1 1.46864e-06 3.88e-05 4.18e-05 2.17e-05 
50 1 1.76036e-06 3.85e-05 1.91e-05 2.74e-05 
20 1 1.72012e-06 2.7e-05 3.11e-05 3.29e-05 
11 1 1.70001e-06 1.72e-05 4.77e-06 3.98e-05 
22 1 1.64971e-06 1.37e-05 2.81e-05 4.28e-05 
16 1 1.46864e-06 7.24e-06 7.44e-05 2.18e-06 
39 1 1.60947e-06 2.78e-05 6.83e-05 6.04e-06 
49 1 1.38817e-06 1.37e-05 9.03e-05 6.34e-06 
4 1 1.56924e-06 1.77e-05 6.86e-05 1.05e-05 
48 1 1.5793e-06 2.91e-05 6.25e-05 1.66e-05 
41 1 1.56924e-06 1.77e-06 8.76e-05 1.71e-05 
12 1 1.5793e-06 3.86e-05 9.1e-05 1.83e-05 
5 1 1.58936e-06 1.63e-06 9.42e-05 2.14e-05 
36 1 1.529e-06 1.87e-05 9.07e-05 2.31e-05 
29 1 1.45859e-06 2.88e-05 8.71e-05 2.94e-05 
43 1 1.70001e-06 2.4e-05 8.03e-05 4.17e-05 
8 1 1.74024e-06 4.94e-06 5.65e-05 4.64e-05 
13 1 1.55918e-06 3.3e-05 5.17e-05 4.8e-05 
9 1 1.56924e-06 8.77e-05 1.18e-05 1.89e-06 
27 1 1.86095e-06 8.95e-05 2.67e-05 9.64e-06 
26 1 1.51894e-06 9.56e-05 4.56e-05 9.57e-06 
42 1 1.93137e-06 8.14e-05 5.6e-06 1.02e-05 
34 1 1.89113e-06 6.06e-05 4.13e-05 1.07e-05 
33 1 1.87101e-06 9.46e-05 3.22e-06 1.39e-05 
25 1 1.64971e-06 5.78e-05 7.05e-06 1.98e-05 
40 1 1.85089e-06 9.31e-05 1.61e-05 1.99e-05 
44 1 1.93137e-06 5.55e-05 1.71e-05 2.37e-05 
45 1 1.44853e-06 5.33e-05 5.62e-06 2.41e-05 
32 1 1.54912e-06 9.73e-05 9.25e-06 2.52e-05 
37 1 1.81066e-06 6.31e-05 1.18e-05 3.11e-05 
28 1 1.82072e-06 5.85e-05 1.77e-05 3.11e-05 
35 1 1.92131e-06 5.56e-05 8e-06 3.67e-05 
30 1 1.7503e-06 9.77e-05 1.93e-05 4.07e-05 
2 1 1.48876e-06 5.39e-05 2.17e-05 4.57e-05 
15 1 1.84084e-06 7.7e-05 4.47e-05 4.8e-05 
31 1 1.59941e-06 5.76e-05 7.71e-05 2.16e-06 
47 1 1.73018e-06 5.44e-05 6.8e-05 1.37e-05 
24 1 1.83078e-06 8.42e-05 5.11e-05 2.74e-05 
10 1 1.93137e-06 7.29e-05 5.35e-05 2.79e-05 
18 1 1.88107e-06 8.53e-05 5.77e-05 3.29e-05 
21 1 1.529e-06 8.13e-05 7.33e-05 3.72e-05 
38 1 1.46864e-06 8.23e-05 5.63e-05 3.77e-05 
3 1 1.56924e-06 7.74e-05 5.88e-05 3.98e-05 
17 1 1.51894e-06 7.09e-05 6.59e-05 4.17e-05 
ITEM: TIMESTEP
200
ITEM: NUMBER OF ATOMS
50
ITEM: BOX BOUNDS ff ff ff
0.0000000000000000e+00 1.0000000000000000e-04
0.0000000000000000e+00 1.0000000000000000e-04
0.0000000000000000e+00 5.0000000000000002e-05
ITEM: ATOMS id type diameter x y z 
23 1 1.51782e-06 3.51e-05 7.24e-06 4.18e-06 
19 1 1.86185e-06 2.65e-05 4.85e-05 5.61e-06 
46 1 1.4571e-06 1.99e-05 3.36e-05 9.39e-06 
14 1 1.46722e-06 3.34e-05 8.71e-06 1.5e-05 
7 1 1.53805e-06 3e-05 9.08e-06 1.53e-05 
6 1 1.4571e-06 3.8e-05 3.85e-05 2.01e-05 
1 1 1.47734e-06 3.88e-05 4.18e-05 2.17e-05 
50 1 1.77078e-06 3.85e-05 1.91e-05 2.74e-05 
20 1 1.73031e-06 2.7e-05 3.11e-05 3.29e-05 
11 1 1.71007e-06 1.72e-05 4.77e-06 3.98e-05 
22 1 1.65948e-06 1.37e-05 2.81e-05 4.28e-05 
16 1 1.47734e-06 7.24e-06 7.44e-05 2.18e-06 
39 1 1.619e-06 2.78e-05 6.83e-05 6.04e-06 
49 1 1.39639e-06 1.37e-05 9.03e-05 6.34e-06 
4 1 1.57853e-06 1.77e-05 6.86e-05 1.05e-05 
48 1 1.58865e-06 2.91e-05 6.25e-05 1.66e-05 
41 1 1.57853e-06 1.77e-06 8.76e-05 1.71e-05 
12 1 1.58865e-06 3.86e-05 9.1e-05 1.83e-05 
5 1 1.59877e-06 1.63e-06 9.42e-05 2.14e-05 
36 1 1.53805e-06 1.87e-05 9.07e-05 2.31e-05 
29 1 1.46722e-06 2.88e-05 8.71e-05 2.94e-05 
43 1 1.71007e-06 2.4e-05 8.03e-05 4.17e-05 
8 1 1.75055e-06 4.94e-06 5.65e-05 4.64e-05 
13 1 1.56841e-06 3.3e-05 5.17e-05 4.8e-05 
9 1 1.57853e-06 8.77e-05 1.18e-05 1.89e-06 
27 1 1.87197e-06 8.95e-05 2.67e-05 9.64e-06 
26 1 1.52793e-06 9.56e-05 4.56e-05 9.57e-06 
42 1 1.9428e-06 8.14e-05 5.6e-06 1.02e-05 
34 1 1.90233e-06 6.06e-05 4.13e-05 1.07e-05 
33 1 1.88209e-06 9.46e-05 3.22e-06 1.39e-05 
25 1 1.65948e-06 5.78e-05 7.05e-06 1.98e-05 
40 1 1.86185e-06 9.31e-05 1.61e-05 1.99e-05 
44 1 1.9428e-06 5.55e-05 1.71e-05 2.37e-05 
45 1 1.4571e-06 5.33e-05 5.62e-06 2.41e-05 
32 1 1.55829e-06 9.73e-05 9.25e-06 2.52e-05 
37 1 1.82138e-06 6.31e-05 1.18e-05 3.11e-05 
28 1 1.8315e-06 5.85e-05 1.77e-05 3.11e-05 
35 1 1.93269e-06 5.56e-05 8e-06 3.67e-05 
30 1 1.76067e-06 9.77e-05 1.93e-05 4.07e-05 
2 1 1.49758e-06 5.39e-05 2.17e-05 4.57e-05 
15 1 1.85173e-06 7.7e-05 4.47e-05 4.8e-05 
31 1 1.60888e-06 5.76e-05 7.71e-05 2.16e-06 
47 1 1.74043e-06 5.44e-05 6.8e-05 1.37e-05 
24 1 1.84162e-06 8.42e-05 5.11e-05 2.74e-05 
10 1 1.9428e-06 7.29e-05 5.35e-05 2.79e-05 
18 1 1.89221e-06 8.53e-05 5.77e-05 3.29e-05 
21 1 1.53805e-06 8.13e-05 7.33e-05 3.72e-05 
38 1 1.47734e-06 8.23e-05 5.63e-05 3.77e-05 
3 1 1.57853e-06 7.74e-05 5.88e-05 3.98e-05 
17 1 1.52793e-06 7.09e-05 6.59e-05 4.17e-05 
ITEM: TIMESTEP
300
ITEM: NUMBER OF ATOMS
50
ITEM: BOX BOUNDS ff ff ff
0.0000000000000000e+00 1.0000000000000000e-04
0.0000000000000000e+00 1.0000000000000000e-04
0.0000000000000000e+00 5.0000000000000002e-05
ITEM: ATOMS id type diameter x y z 
23 1 1.5268e-06 3.51e-05 7.24e-06 4.18e-06 
19 1 1.87288e-06 2.65e-05 4.85e-05 5.61e-06 
46 1 1.46573e-06 1.99e-05 3.36e-05 9.39e-06 
14 1 1.47591e-06 3.34e-05 8.71e-06 1.5e-05 
7 1 1.54716e-06 3e-05 9.08e-06 1.53e-05 
6 1 1.46573e-06 3.8e-05 3.85e-05 2.01e-05 
1 1 1.48609e-06 3.88e-05 4.18e-05 2.17e-05 
50 1 1.78127e-06 3.85e-05 1.91e-05 2.74e-05 
20 1 1.74055e-06 2.7e-05 3.11e-05 3.29e-05 
11 1 1.7202e-06 1.72e-05 4.77e-06 3.98e-05 
22 1 1.6693e-06 1.37e-05 2.81e-05 4.28e-05 
16 1 1.48609e-06 7.24e-06 7.44e-05 2.18e-06 
39 1 1.62859e-06 2.78e-05 6.83e-05 6.04e-06 
49 1 1.40466e-06 1.37e-05 9.03e-05 6.34e-06 
4 1 1.58787e-06 1.77e-05 6.86e-05 1.05e-05 
48 1 1.59805e-06 2.91e-05 6.25e-05 1.66e-05 
41 1 1.58787e-06 1.77e-06 8.76e-05 1.71e-05 
12 1 1.59805e-06 3.86e-05 9.1e-05 1.83e-05 
5 1 1.60823e-06 1.63e-06 9.42e-05 2.14e-05 
36 1 1.54716e-06 1.87e-05 9.07e-05 2.31e-05 
29 1 1.47591e-06 2.88e-05 8.71e-05 2.94e-05 
43 1 1.7202e-06 2.4e-05 8.03e-05 4.17e-05 
8 1 1.76091e-06 4.94e-06 5.65e-05 4.64e-05 
13 1 1.5777e-06 3.3e-05 5.17e-05 4.8e-05 
9 1 1.58787e-06 8.77e-05 1.18e-05 1.89e-06 
27 1 1.88306e-06 8.95e-05 2.67e-05 9.64e-06 
26 1 1.53698e-06 9.56e-05 4.56e-05 9.57e-06 
42 1 1.95431e-06 8.14e-05 5.6e-06 1.02e-05 
34 1 1.91359e-06 6.06e-05 4.13e-05 1.07e-05 
33 1 1.89323e-06 9.46e-05 3.22e-06 1.39e-05 
25 1 1.6693e-06 5.78e-05 7.05e-06 1.98e-05 
40 1 1.87288e-06 9.31e-05 1.61e-05 1.99e-05 
44 1 1.95431e-06 5.55e-05 1.71e-05 2.37e-05 
45 1 1.46573e-06 5.33e-05 5.62e-06 2.41e-05 
32 1 1.56752e-06 9.73e-05 9.25e-06 2.52e-05 
37 1 1.83216e-06 6.31e-05 1.18e-05 3.11e-05 
28 1 1.84234e-06 5.85e-05 1.77e-05 3.11e-05 
35 1 1.94413e-06 5.56e-05 8e-06 3.67e-05 
30 1 1.77109e-06 9.77e-05 1.93e-05 4.07e-05 
2 1 1.50645e-06 5.39e-05 2.17e-05 4.57e-05 
15 1 1.8627e-06 7.7e-05 4.47e-05 4.8e-05 
31 1 1.61841e-06 5.76e-05 7.71e-05 2.16e-06 
47 1 1.75073e-06 5.44e-05 6.8e-05 1.37e-05 
24 1 1.85252e-06 8.42e-05 5.11e-05 2.74e-05 
10 1 1.95431e-06 7.29e-05 5.35e-05 2.79e-05 
18 1 1.90341e-06 8.53e-05 5.77e-05 3.29e-05 
21 1 1.54716e-06 8.13e-05 7.33e-05 3.72e-05 
38 1 1.48609e-06 8.23e-05 5.63e-05 3.77e-05 
3 1 1.58787e-06 7.74e-05 5.88e-05 3.98e-05 
17 1 1.53698e-06 7.09e-05 6.59e-05 4.17e-05 
ITEM: TIMESTEP
400
ITEM: NUMBER OF ATOMS
50
ITEM: BOX BOUNDS ff ff ff
0.0000000000000000e+00 1.0000000000000000e-04
0.0000000000000000e+00 1.0000000000000000e-04
0.0000000000000000e+00 5.0000000000000002e-05
ITEM: ATOMS id type diameter x y z 
23 1 1.53584e-06 3.51e-05 7.24e-06 4.18e-06 
19 1 1.88397e-06 2.65e-05 4.85e-05 5.61e-06 
46 1 1.47441e-06 1.99e-05 3.36e-05 9.39e-06 
14 1 1.48465e-06 3.34e-05 8.71e-06 1.5e-05 
7 1 1.55632e-06 3e-05 9.08e-06 1.53e-05 
6 1 1.47441e-06 3.8e-05 3.85e-05 2.01e-05 
1 1 1.49489e-06 3.88e-05 4.18e-05 2.17e-05 
50 1 1.79182e-06 3.85e-05 1.91e-05 2.74e-05 
20 1 1.75086e-06 2.7e-05 3.11e-05 3.29e-05 
11 1 1.73038e-06 1.72e-05 4.77e-06 3.98e-05 
22 1 1.67919e-06 1.37e-05 2.81e-05 4.28e-05 
16 1 1.49489e-06 7.24e-06 7.44e-05 2.18e-06 
39 1 1.63823e-06 2.78e-05 6.83e-05 6.04e-06 
49 1 1.41298e-06 1.37e-05 9.03e-05 6.34e-06 
4 1 1.59728e-06 1.77e-05 6.86e-05 1.05e-05 
48 1 1.60752e-06 2.91e-05 6.25e-05 1.66e-05 
41 1 1.59728e-06 1.77e-06 8.76e-05 1.71e-05 
12 1 1.60752e-06 3.86e-05 9.1e-05 1.83e-05 
5 1 1.61775e-06 1.63e-06 9.42e-05 2.14e-05 
36 1 1.55632e-06 1.87e-05 9.07e-05 2.31e-05 
29 1 1.48465e-06 2.88e-05 8.71e-05 2.94e-05 
43 1 1.73038e-06 2.4e-05 8.03e-05 4.17e-05 
8 1 1.77134e-06 4.94e-06 5.65e-05 4.64e-05 
13 1 1.58704e-06 3.3e-05 5.17e-05 4.8e-05 
9 1 1.59728e-06 8.77e-05 1.18e-05 1.89e-06 
27 1 1.89421e-06 8.95e-05 2.67e-05 9.64e-06 
26 1 1.54608e-06 9.56e-05 4.56e-05 9.57e-06 
42 1 1.96588e-06 8.14e-05 5.6e-06 1.02e-05 
34 1 1.92492e-06 6.06e-05 4.13e-05 1.07e-05 
33 1 1.90444e-06 9.46e-05 3.22e-06 1.39e-05 
25 1 1.67919e-06 5.78e-05 7.05e-06 1.98e-05 
40 1 1.88397e-06 9.31e-05 1.61e-05 1.99e-05 
44 1 1.96588e-06 5.55e-05 1.71e-05 2.37e-05 
45 1 1.47441e-06 5.33e-05 5.62e-06 2.41e-05 
32 1 1.5768e-06 9.73e-05 9.25e-06 2.52e-05 
37 1 1.84301e-06 6.31e-05 1.18e-05 3.11e-05 
28 1 1.85325e-06 5.85e-05 1.77e-05 3.11e-05 
35 1 1.95564e-06 5.56e-05 8e-06 3.67e-05 
30 1 1.78158e-06 9.77e-05 1.93e-05 4.07e-05 
2 1 1.51536e-06 5.39e-05 2.17e-05 4.57e-05 
15 1 1.87373e-06 7.7e-05 4.47e-05 4.8e-05 
31 1 1.62799e-06 5.76e-05 7.71e-05 2.16e-06 
47 1 1.7611e-06 5.44e-05 6.8e-05 1.37e-05 
24 1 1.86349e-06 8.42e-05 5.11e-05 2.74e-05 
10 1 1.96588e-06 7.29e-05 5.35e-05 2.79e-05 
18 1 1.91468e-06 8.53e-05 5.77e-05 3.29e-05 
21 1 1.55632e-06 8.13e-05 7.33e-05 3.72e-05 
38 1 1.49489e-06 8.23e-05 5.63e-05 3.77e-05 
3 1 1.59728e-06 7.74e-05 5.88e-05 3.98e-05 
17 1 1.54608e-06 7.09e-05 6.59e-05 4.17e-05 
ITEM: TIMESTEP
500
ITEM: NUMBER OF ATOMS
53
ITEM: BOX BOUNDS ff ff ff
0.0000000000000000e+00 1.0000000000000000e-04
0.0000000000000000e+00 1.0000000000000000e-04
0.0000000000000000e+00 5.0000000000000002e-05
ITEM: ATOMS id type diameter x y z 
23 1 1.54494e-06 3.51e-05 7.24e-06 4.18e-06 
19 1 1.89512e-06 2.65e-05 4.85e-05 5.61e-06 
46 1 1.48314e-06 1.99e-05 3.36e-05 9.39e-06 
14 1 1.49344e-06 3.34e-05 8.71e-06 1.5e-05 
7 1 1.56554e-06 3e-05 9.08e-06 1.53e-05 
6 1 1.48314e-06 3.8e-05 3.85e-05 2.01e-05 
1 1 1.50374e-06 3.88e-05 4.18e-05 2.17e-05 
50 1 1.80243e-06 3.85e-05 1.91e-05 2.74e-05 
20 1 1.76123e-06 2.7e-05 3.11e-05 3.29e-05 
11 1 1.74063e-06 1.72e-05 4.77e-06 3.98e-05 
22 1 1.68913e-06 1.37e-05 2.81e-05 4.28e-05 
16 1 1.50374e-06 7.24e-06 7.44e-05 2.18e-06 
39 1 1.64793e-06 2.78e-05 6.83e-05 6.04e-06 
49 1 1.42134e-06 1.37e-05 9.03e-05 6.34e-06 
4 1 1.60673e-06 1.77e-05 6.86e-05 1.05e-05 
48 1 1.61703e-06 2.91e-05 6.25e-05 1.66e-05 
41 1 1.60673e-06 1.77e-06 8.76e-05 1.71e-05 
12 1 1.61703e-06 3.86e-05 9.1e-05 1.83e-05 
5 1 1.62733e-06 1.63e-06 9.42e-05 2.14e-05 
36 1 1.56554e-06 1.87e-05 9.07e-05 2.31e-05 
29 1 1.49344e-06 2.88e-05 8.71e-05 2.94e-05 
43 1 1.74063e-06 2.4e-05 8.03e-05 4.17e-05 
8 1 1.78183e-06 4.94e-06 5.65e-05 4.64e-05 
13 1 1.59643e-06 3.3e-05 5.17e-05 4.8e-05 
9 1 1.60673e-06 8.77e-05 1.18e-05 1.89e-06 
27 1 1.90542e-06 8.95e-05 2.67e-05 9.64e-06 
26 1 1.55524e-06 9.56e-05 4.56e-05 9.57e-06 
42 1 1.65005e-06 8.09755e-05 6.17291e-06 9.78653e-06 
34 1 1.93632e-06 6.06e-05 4.13e-05 1.07e-05 
33 1 1.91572e-06 9.46e-05 3.22e-06 1.39e-05 
25 1 1.68913e-06 5.78e-05 7.05e-06 1.98e-05 
40 1 1.89512e-06 9.31e-05 1.61e-05 1.99e-05 
51 1 1.47983e-06 8.17808e-05 5.0862e-06 1.05708e-05 
44 1 1.65005e-06 5.50755e-05 1.76729e-05 2.32865e-05 
45 1 1.48314e-06 5.33e-05 5.62e-06 2.41e-05 
32 1 1.58613e-06 9.73e-05 9.25e-06 2.52e-05 
37 1 1.85392e-06 6.31e-05 1.18e-05 3.11e-05 
28 1 1.86422e-06 5.85e-05 1.77e-05 3.11e-05 
35 1 1.96722e-06 5.56e-05 8e-06 3.67e-05 
30 1 1.79213e-06 9.77e-05 1.93e-05 4.07e-05 
2 1 1.52434e-06 5.39e-05 2.17e-05 4.57e-05 
15 1 1.88482e-06 7.7e-05 4.47e-05 4.8e-05 
52 1 1.47983e-06 5.58808e-05 1.65862e-05 2.40708e-05 
31 1 1.63763e-06 5.76e-05 7.71e-05 2.16e-06 
47 1 1.77153e-06 5.44e-05 6.8e-05 1.37e-05 
24 1 1.87452e-06 8.42e-05 5.11e-05 2.74e-05 
10 1 1.65005e-06 7.24755e-05 5.40729e-05 2.74865e-05 
18 1 1.92602e-06 8.53e-05 5.77e-05 3.29e-05 
21 1 1.56554e-06 8.13e-05 7.33e-05 3.72e-05 
38 1 1.50374e-06 8.23e-05 5.63e-05 3.77e-05 
3 1 1.60673e-06 7.74e-05 5.88e-05 3.98e-05 
17 1 1.55524e-06 7.09e-05 6.59e-05 4.17e-05 
53 1 1.47983e-06 7.32808e-05 5.29862e-05 2.82708e-05 
ITEM: TIMESTEP
600
ITEM: NUMBER OF ATOMS
54
ITEM: BOX BOUNDS ff ff ff
0.0000000000000000e+00 1.0000000000000000e-04
0.0000000000000000e+00 1.0000000000000000e-04
0.0000000000000000e+00 5.0000000000000002e-05
ITEM: ATOMS id type diameter x y z 
23 1 1.55408e-06 3.51e-05 7.24e-06 4.18e-06 
19 1 1.90634e-06 2.65e-05 4.85e-05 5.61e-06 
46 1 1.49192e-06 1.99e-05 3.36e-05 9.39e-06 
14 1 1.50228e-06 3.34e-05 8.71e-06 1.5e-05 
7 1 1.5748e-06 3e-05 9.08e-06 1.53e-05 
6 1 1.49192e-06 3.8e-05 3.85e-05 2.01e-05 
1 1 1.51264e-06 3.88e-05 4.18e-05 2.17e-05 
50 1 1.8131e-06 3.85e-05 1.91e-05 2.74e-05 
20 1 1.77166e-06 2.7e-05 3.11e-05 3.29e-05 
11 1 1.75093e-06 1.72e-05 4.77e-06 3.98e-05 
22 1 1.69913e-06 1.37e-05 2.81e-05 4.28e-05 
16 1 1.51264e-06 7.24e-06 7.44e-05 2.18e-06 
39 1 1.65769e-06 2.78e-05 6.83e-05 6.04e-06 
49 1 1.42976e-06 1.37e-05 9.03e-05 6.34e-06 
4 1 1.61625e-06 1.77e-05 6.86e-05 1.05e-05 
48 1 1.62661e-06 2.91e-05 6.25e-05 1.66e-05 
41 1 1.61625e-06 1.77e-06 8.76e-05 1.71e-05 
12 1 1.62661e-06 3.86e-05 9.1e-05 1.83e-05 
5 1 1.63697e-06 1.63e-06 9.42e-05 2.14e-05 
36 1 1.5748e-06 1.87e-05 9.07e-05 2.31e-05 
29 1 1.50228e-06 2.88e-05 8.71e-05 2.94e-05 
43 1 1.75093e-06 2.4e-05 8.03e-05 4.17e-05 
8 1 1.79238e-06 4.94e-06 5.65e-05 4.64e-05 
13 1 1.60589e-06 3.3e-05 5.17e-05 4.8e-05 
9 1 1.61625e-06 8.77e-05 1.18e-05 1.89e-06 
27 1 1.9167e-06 8.95e-05 2.67e-05 9.64e-06 
26 1 1.56444e-06 9.56e-05 4.56e-05 9.57e-06 
42 1 1.65982e-06 8.09755e-05 6.17291e-06 9.78653e-06 
34 1 1.94778e-06 6.06e-05 4.13e-05 1.07e-05 
33 1 1.92706e-06 9.46e-05 3.22e-06 1.39e-05 
25 1 1.69913e-06 5.78e-05 7.05e-06 1.98e-05 
40 1 1.90634e-06 9.31e-05 1.61e-05 1.99e-05 
51 1 1.48859e-06 8.17808e-05 5.0862e-06 1.05708e-05 
44 1 1.65982e-06 5.50755e-05 1.76729e-05 2.32865e-05 
45 1 1.49192e-06 5.33e-05 5.62e-06 2.41e-05 
32 1 1.59553e-06 9.73e-05 9.25e-06 2.52e-05 
37 1 1.8649e-06 6.31e-05 1.18e-05 3.11e-05 
28 1 1.87526e-06 5.85e-05 1.77e-05 3.11e-05 
35 1 1.60797e-06 5.5377e-05 7.90751e-06 3.74661e-05 
30 1 1.80274e-06 9.77e-05 1.93e-05 4.07e-05 
2 1 1.53336e-06 5.39e-05 2.17e-05 4.57e-05 
15 1 1.89598e-06 7.7e-05 4.47e-05 4.8e-05 
52 1 1.48859e-06 5.58808e-05 1.65862e-05 2.40708e-05 
54 1 1.53142e-06 5.58124e-05 8.08809e-06 3.59704e-05 
31 1 1.64733e-06 5.76e-05 7.71e-05 2.16e-06 
47 1 1.78202e-06 5.44e-05 6.8e-05 1.37e-05 
24 1 1.88562e-06 8.42e-05 5.11e-05 2.74e-05 
10 1 1.65982e-06 7.24755e-05 5.40729e-05 2.74865e-05 
18 1 1.93742e-06 8.53e-05 5.77e-05 3.29e-05 
21 1 1.5748e-06 8.13e-05 7.33e-05 3.72e-05 
38 1 1.51264e-06 8.23e-05 5.63e-05 3.77e-05 
3 1 1.61625e-06 7.74e-05 5.88e-05 3.98e-05 
17 1 1.56444e-06 7.09e-05 6.59e-05 4.17e-05 
53 1 1.48859e-06 7.32808e-05 5.29862e-05 2.82708e-05 
ITEM: TIMESTEP
700
ITEM: NUMBER OF ATOMS
54
ITEM: BOX BOUNDS ff ff ff
0.0000000000000000e+00 1.0000000000000000e-04
0.0000000000000000e+00 1.0000000000000000e-04
0.0000000000000000e+00 5.0000000000000002e-05
ITEM: ATOMS id type diameter x y z 
23 1 1.56329e-06 3.51e-05 7.24e-06 4.18e-06 
19 1 1.91763e-06 2.65e-05 4.85e-05 5.61e-06 
46 1 1.50075e-06 1.99e-05 3.36e-05 9.39e-06 
14 1 1.51118e-06 3.34e-05 8.71e-06 1.5e-05 
7 1 1.58413e-06 3e-05 9.08e-06 1.53e-05 
6 1 1.50075e-06 3.8e-05 3.85e-05 2.01e-05 
1 1 1.5216e-06 3.88e-05 4.18e-05 2.17e-05 
50 1 1.82383e-06 3.85e-05 1.91e-05 2.74e-05 
20 1 1.78215e-06 2.7e-05 3.11e-05 3.29e-05 
11 1 1.7613e-06 1.72e-05 4.77e-06 3.98e-05 
22 1 1.70919e-06 1.37e-05 2.81e-05 4.28e-05 
16 1 1.5216e-06 7.24e-06 7.44e-05 2.18e-06 
39 1 1.6675e-06 2.78e-05 6.83e-05 6.04e-06 
49 1 1.43822e-06 1.37e-05 9.03e-05 6.34e-06 
4 1 1.62582e-06 1.77e-05 6.86e-05 1.05e-05 
48 1 1.63624e-06 2.91e-05 6.25e-05 1.66e-05 
41 1 1.62582e-06 1.77e-06 8.76e-05 1.71e-05 
12 1 1.63624e-06 3.86e-05 9.1e-05 1.83e-05 
5 1 1.64666e-06 1.63e-06 9.42e-05 2.14e-05 
36 1 1.58413e-06 1.87e-05 9.07e-05 2.31e-05 
29 1 1.51118e-06 2.88e-05 8.71e-05 2.94e-05 
43 1 1.7613e-06 2.4e-05 8.03e-05 4.17e-05 
8 1 1.80299e-06 4.94e-06 5.65e-05 4.64e-05 
13 1 1.6154e-06 3.3e-05 5.17e-05 4.8e-05 
9 1 1.62582e-06 8.77e-05 1.18e-05 1.89e-06 
27 1 1.92805e-06 8.95e-05 2.67e-05 9.64e-06 
26 1 1.57371e-06 9.56e-05 4.56e-05 9.57e-06 
42 1 1.66965e-06 8.09755e-05 6.17291e-06 9.78653e-06 
34 1 1.95932e-06 6.06e-05 4.13e-05 1.07e-05 
33 1 1.93847e-06 9.46e-05 3.22e-06 1.39e-05 
25 1 1.70919e-06 5.78e-05 7.05e-06 1.98e-05 
40 1 1.91763e-06 9.31e-05 1.61e-05 1.99e-05 
51 1 1.49741e-06 8.17808e-05 5.0862e-06 1.05708e-05 
44 1 1.66965e-06 5.50755e-05 1.76729e-05 2.32865e-05 
45 1 1.50075e-06 5.33e-05 5.62e-06 2.41e-05 
32 1 1.60497e-06 9.73e-05 9.25e-06 2.52e-05 
37 1 1.87594e-06 6.31e-05 1.18e-05 3.11e-05 
28 1 1.88636e-06 5.85e-05 1.77e-05 3.11e-05 
35 1 1.61749e-06 5.5377e-05 7.90751e-06 3.74661e-05 
30 1 1.81341e-06 9.77e-05 1.93e-05 4.07e-05 
2 1 1.54244e-06 5.39e-05 2.17e-05 4.57e-05 
15 1 1.90721e-06 7.7e-05 4.47e-05 4.8e-05 
52 1 1.49741e-06 5.58808e-05 1.65862e-05 2.40708e-05 
54 1 1.54048e-06 5.58124e-05 8.08809e-06 3.59704e-05 
31 1 1.65708e-06 5.76e-05 7.71e-05 2.16e-06 
47 1 1.79257e-06 5.44e-05 6.8e-05 1.37e-05 
24 1 1.89679e-06 8.42e-05 5.11e-05 2.74e-05 
10 1 1.66965e-06 7.24755e-05 5.40729e-05 2.74865e-05 
18 1 1.9489e-06 8.53e-05 5.77e-05 3.29e-05 
21 1 1.58413e-06 8.13e-05 7.33e-05 3.72e-05 
38 1 1.5216e-06 8.23e-05 5.63e-05 3.77e-05 
3 1 1.62582e-06 7.74e-05 5.88e-05 3.98e-05 
17 1 1.57371e-06 7.09e-05 6.59e-05 4.17e-05 
53 1 1.49741e-06 7.32808e-05 5.29862e-05 2.82708e-05 
ITEM: TIMESTEP
800
ITEM: NUMBER OF ATOMS
54
ITEM: BOX BOUNDS ff ff ff
0.0000000000000000e+00 1.0000000000000000e-04
0.0000000000000000e+00 1.0000000000000000e-04
0.0000000000000000e+00 5.0000000000000002e-05
ITEM: ATOMS id type diameter x y z 
23 1 1.57254e-06 3.51e-05 7.24e-06 4.18e-06 
19 1 1.92898e-06 2.65e-05 4.85e-05 5.61e-06 
46 1 1.50964e-06 1.99e-05 3.36e-05 9.39e-06 
14 1 1.52012e-06 3.34e-05 8.71e-06 1.5e-05 
7 1 1.59351e-06 3e-05 9.08e-06 1.53e-05 
6 1 1.50964e-06 3.8e-05 3.85e-05 2.01e-05 
1 1 1.53061e-06 3.88e-05 4.18e-05 2.17e-05 
50 1 1.83463e-06 3.85e-05 1.91e-05 2.74e-05 
20 1 1.7927e-06 2.7e-05 3.11e-05 3.29e-05 
11 1 1.77173e-06 1.72e-05 4.77e-06 3.98e-05 
22 1 1.71931e-06 1.37e-05 2.81e-05 4.28e-05 
16 1 1.53061e-06 7.24e-06 7.44e-05 2.18e-06 
39 1 1.67738e-06 2.78e-05 6.83e-05 6.04e-06 
49 1 1.44674e-06 1.37e-05 9.03e-05 6.34e-06 
4 1 1.63544e-06 1.77e-05 6.86e-05 1.05e-05 
48 1 1.64593e-06 2.91e-05 6.25e-05 1.66e-05 
41 1 1.63544e-06 1.77e-06 8.76e-05 1.71e-05 
12 1 1.64593e-06 3.86e-05 9.1e-05 1.83e-05 
5 1 1.65641e-06 1.63e-06 9.42e-05 2.14e-05 
36 1 1.59351e-06 1.87e-05 9.07e-05 2.31e-05 
29 1 1.52012e-06 2.88e-05 8.71e-05 2.94e-05 
43 1 1.77173e-06 2.4e-05 8.03e-05 4.17e-05 
8 1 1.81366e-06 4.94e-06 5.65e-05 4.64e-05 
13 1 1.62496e-06 3.3e-05 5.17e-05 4.8e-05 
9 1 1.63544e-06 8.77e-05 1.18e-05 1.89e-06 
27 1 1.93947e-06 8.95e-05 2.67e-05 9.64e-06 
26 1 1.58303e-06 9.56e-05 4.56e-05 9.57e-06 
42 1 1.67954e-06 8.09755e-05 6.17291e-06 9.78653e-06 
34 1 1.97092e-06 6.06e-05 4.13e-05 1.07e-05 
33 1 1.94995e-06 9.46e-05 3.22e-06 1.39e-05 
25 1 1.71931e-06 5.78e-05 7.05e-06 1.98e-05 
40 1 1.92898e-06 9.31e-05 1.61e-05 1.99e-05 
51 1 1.50627e-06 8.17808e-05 5.0862e-06 1.05708e-05 
44 1 1.67954e-06 5.50755e-05 1.76729e-05 2.32865e-05 
45 1 1.50964e-06 5.33e-05 5.62e-06 2.41e-05 
32 1 1.61448e-06 9.73e-05 9.25e-06 2.52e-05 
37 1 1.88705e-06 6.31e-05 1.18e-05 3.11e-05 
28 1 1.89753e-06 5.85e-05 1.77e-05 3.11e-05 
35 1 1.62707e-06 5.5377e-05 7.90751e-06 3.74661e-05 
30 1 1.82415e-06 9.77e-05 1.93e-05 4.07e-05 
2 1 1.55157e-06 5.39e-05 2.17e-05 4.57e-05 
15 1 1.9185e-06 7.7e-05 4.47e-05 4.8e-05 
52 1 1.50627e-06 5.58808e-05 1.65862e-05 2.40708e-05 
54 1 1.5496e-06 5.58124e-05 8.08809e-06 3.59704e-05 
31 1 1.66689e-06 5.76e-05 7.71e-05 2.16e-06 
47 1 1.80318e-06 5.44e-05 6.8e-05 1.37e-05 
24 1 1.90802e-06 8.42e-05 5.11e-05 2.74e-05 
10 1 1.67954e-06 7.24755e-05 5.40729e-05 2.74865e-05 
18 1 1.96044e-06 8.53e-05 5.77e-05 3.29e-05 
21 1 1.59351e-06 8.13e-05 7.33e-05 3.72e-05 
38 1 1.53061e-06 8.23e-05 5.63e-05 3.77e-05 
3 1 1.63544e-06 7.74e-05 5.88e-05 3.98e-05 
17 1 1.58303e-06 7.09e-05 6.59e-05 4.17e-05 
53 1 1.50627e-06 7.32808e-05 5.29862e-05 2.82708e-05 
ITEM: TIMESTEP
900
ITEM: NUMBER OF ATOMS
56
ITEM: BOX BOUNDS ff ff ff
0.0000000000000000e+00 1.0000000000000000e-04
0.0000000000000000e+00 1.0000000000000000e-04
0.0000000000000000e+00 5.0000000000000002e-05
ITEM: ATOMS id type diameter x y z 
23 1 1.58185e-06 3.51e-05 7.24e-06 4.18e-06 
19 1 1.94041e-06 2.65e-05 4.85e-05 5.61e-06 
46 1 1.51858e-06 1.99e-05 3.36e-05 9.39e-06 
14 1 1.52912e-06 3.34e-05 8.71e-06 1.5e-05 
7 1 1.60294e-06 3e-05 9.08e-06 1.53e-05 
6 1 1.51858e-06 3.8e-05 3.85e-05 2.01e-05 
1 1 1.53967e-06 3.88e-05 4.18e-05 2.17e-05 
50 1 1.84549e-06 3.85e-05 1.91e-05 2.74e-05 
20 1 1.80331e-06 2.7e-05 3.11e-05 3.29e-05 
11 1 1.78222e-06 1.72e-05 4.77e-06 3.98e-05 
22 1 1.72949e-06 1.37e-05 2.81e-05 4.28e-05 
16 1 1.53967e-06 7.24e-06 7.44e-05 2.18e-06 
39 1 1.68731e-06 2.78e-05 6.83e-05 6.04e-06 
49 1 1.4553e-06 1.37e-05 9.03e-05 6.34e-06 
4 1 1.64513e-06 1.77e-05 6.86e-05 1.05e-05 
48 1 1.65567e-06 2.91e-05 6.25e-05 1.66e-05 
41 1 1.64513e-06 1.77e-06 8.76e-05 1.71e-05 
12 1 1.65567e-06 3.86e-05 9.1e-05 1.83e-05 
5 1 1.66622e-06 1.63e-06 9.42e-05 2.14e-05 
36 1 1.60294e-06 1.87e-05 9.07e-05 2.31e-05 
29 1 1.52912e-06 2.88e-05 8.71e-05 2.94e-05 
43 1 1.78222e-06 2.4e-05 8.03e-05 4.17e-05 
8 1 1.8244e-06 4.94e-06 5.65e-05 4.64e-05 
13 1 1.63458e-06 3.3e-05 5.17e-05 4.8e-05 
9 1 1.64513e-06 8.77e-05 1.18e-05 1.89e-06 
27 1 1.95095e-06 8.95e-05 2.67e-05 9.64e-06 
26 1 1.5924e-06 9.56e-05 4.56e-05 9.57e-06 
42 1 1.68948e-06 8.09651e-05 6.18681e-06 9.7765e-06 
34 1 1.611e-06 6.03766e-05 4.12073e-05 1.14675e-05 
33 1 1.9615e-06 9.46e-05 3.22e-06 1.39e-05 
25 1 1.72949e-06 5.78e-05 7.05e-06 1.98e-05 
40 1 1.94041e-06 9.31e-05 1.61e-05 1.99e-05 
51 1 1.51519e-06 8.17911e-05 5.07229e-06 1.05808e-05 
55 1 1.5343e-06 6.08128e-05 4.13883e-05 9.96899e-06 
44 1 1.68948e-06 5.50651e-05 1.76868e-05 2.32765e-05 
45 1 1.51858e-06 5.33e-05 5.62e-06 2.41e-05 
32 1 1.62404e-06 9.73e-05 9.25e-06 2.52e-05 
37 1 1.89822e-06 6.31e-05 1.18e-05 3.11e-05 
28 1 1.90877e-06 5.85e-05 1.77e-05 3.11e-05 
35 1 1.63671e-06 5.5377e-05 7.90751e-06 3.74661e-05 
30 1 1.83495e-06 9.77e-05 1.93e-05 4.07e-05 
2 1 1.56076e-06 5.39e-05 2.17e-05 4.57e-05 
15 1 1.92986e-06 7.7e-05 4.47e-05 4.8e-05 
52 1 1.51519e-06 5.58911e-05 1.65723e-05 2.40808e-05 
54 1 1.55878e-06 5.58124e-05 8.08809e-06 3.59704e-05 
31 1 1.67676e-06 5.76e-05 7.71e-05 2.16e-06 
47 1 1.81386e-06 5.44e-05 6.8e-05 1.37e-05 
24 1 1.91931e-06 8.42e-05 5.11e-05 2.74e-05 
10 1 1.68948e-06 7.24651e-05 5.40868e-05 2.74765e-05 
18 1 1.60243e-06 8.50778e-05 5.76078e-05 3.36635e-05 
21 1 1.60294e-06 8.13e-05 7.33e-05 3.72e-05 
38 1 1.53967e-06 8.23e-05 5.63e-05 3.77e-05 
3 1 1.64513e-06 7.74e-05 5.88e-05 3.98e-05 
17 1 1.5924e-06 7.09e-05 6.59e-05 4.17e-05 
53 1 1.51519e-06 7.32911e-05 5.29723e-05 2.82808e-05 
56 1 1.52614e-06 8.55117e-05 5.77878e-05 3.21729e-05 
ITEM: TIMESTEP
1000
ITEM: NUMBER OF ATOMS
57
ITEM: BOX BOUNDS ff ff ff
0.0000000000000000e+00 1.0000000000000000e-04
0.0000000000000000e+00 1.0000000000000000e-04
0.0000000000000000e+00 5.0000000000000002e-05
ITEM: ATOMS id type diameter x y z 
23 1 1.59122e-06 3.51e-05 7.24e-06 4.18e-06 
19 1 1.95189e-06 2.65e-05 4.85e-05 5.61e-06 
46 1 1.52757e-06 1.99e-05 3.36e-05 9.39e-06 
14 1 1.53818e-06 3.34e-05 8.71e-06 1.5e-05 
7 1 1.61243e-06 3e-05 9.08e-06 1.53e-05 
6 1 1.52757e-06 3.8e-05 3.85e-05 2.01e-05 
1 1 1.54879e-06 3.88e-05 4.18e-05 2.17e-05 
50 1 1.85642e-06 3.85e-05 1.91e-05 2.74e-05 
20 1 1.81399e-06 2.7e-05 3.11e-05 3.29e-05 
11 1 1.79277e-06 1.72e-05 4.77e-06 3.98e-05 
22 1 1.73973e-06 1.37e-05 2.81e-05 4.28e-05 
16 1 1.54879e-06 7.24e-06 7.44e-05 2.18e-06 
39 1 1.6973e-06 2.78e-05 6.83e-05 6.04e-06 
49 1 1.46392e-06 1.37e-05 9.03e-05 6.34e-06 
4 1 1.65487e-06 1.77e-05 6.86e-05 1.05e-05 
48 1 1.66548e-06 2.91e-05 6.25e-05 1.66e-05 
41 1 1.65487e-06 1.77e-06 8.76e-05 1.71e-05 
12 1 1.66548e-06 3.86e-05 9.1e-05 1.83e-05 
5 1 1.67608e-06 1.63e-06 9.42e-05 2.14e-05 
36 1 1.61243e-06 1.87e-05 9.07e-05 2.31e-05 
29 1 1.53818e-06 2.88e-05 8.71e-05 2.94e-05 
43 1 1.79277e-06 2.4e-05 8.03e-05 4.17e-05 
8 1 1.83521e-06 4.94e-06 5.65e-05 4.64e-05 
13 1 1.64426e-06 3.3e-05 5.17e-05 4.8e-05 
9 1 1.65487e-06 8.77e-05 1.18e-05 1.89e-06 
42 1 1.69948e-06 8.09651e-05 6.18681e-06 9.7765e-06 
27 1 1.9625e-06 8.95e-05 2.67e-05 9.64e-06 
55 1 1.54338e-06 6.08128e-05 4.13883e-05 9.96899e-06 
26 1 1.60183e-06 9.56e-05 4.56e-05 9.57e-06 
51 1 1.52416e-06 8.17911e-05 5.07229e-06 1.05808e-05 
34 1 1.62054e-06 6.03766e-05 4.12073e-05 1.14675e-05 
57 1 1.61696e-06 9.48548e-05 2.5279e-06 1.35706e-05 
33 1 1.51162e-06 9.43618e-05 3.86701e-06 1.4208e-05 
25 1 1.73973e-06 5.78e-05 7.05e-06 1.98e-05 
40 1 1.95189e-06 9.31e-05 1.61e-05 1.99e-05 
44 1 1.69948e-06 5.50651e-05 1.76868e-05 2.32765e-05 
45 1 1.52757e-06 5.33e-05 5.62e-06 2.41e-05 
52 1 1.52416e-06 5.58911e-05 1.65723e-05 2.40808e-05 
32 1 1.63365e-06 9.73e-05 9.25e-06 2.52e-05 
37 1 1.90946e-06 6.31e-05 1.18e-05 3.11e-05 
28 1 1.92007e-06 5.85e-05 1.77e-05 3.11e-05 
54 1 1.56801e-06 5.58179e-05 8.09039e-06 3.59513e-05 
35 1 1.6464e-06 5.53714e-05 7.90521e-06 3.74852e-05 
30 1 1.84581e-06 9.77e-05 1.93e-05 4.07e-05 
2 1 1.57e-06 5.39e-05 2.17e-05 4.57e-05 
15 1 1.94129e-06 7.7e-05 4.47e-05 4.8e-05 
31 1 1.68669e-06 5.76e-05 7.71e-05 2.16e-06 
47 1 1.8246e-06 5.44e-05 6.8e-05 1.37e-05 
24 1 1.93068e-06 8.42e-05 5.11e-05 2.74e-05 
10 1 1.69948e-06 7.24651e-05 5.40868e-05 2.74765e-05 
53 1 1.52416e-06 7.32911e-05 5.29723e-05 2.82808e-05 
56 1 1.53517e-06 8.55117e-05 5.77878e-05 3.21729e-05 
18 1 1.61192e-06 8.50778e-05 5.76078e-05 3.36635e-05 
21 1 1.61243e-06 8.13e-05 7.33e-05 3.72e-05 
38 1 1.54879e-06 8.23e-05 5.63e-05 3.77e-05 
3 1 1.65487e-06 7.74e-05 5.88e-05 3.98e-05 
17 1 1.60183e-06 7.09e-05 6.59e-05 4.17e-05 
ITEM: TIMESTEP
1100
ITEM: NUMBER OF ATOMS
58
ITEM: BOX BOUNDS ff ff ff
0.0000000000000000e+00 1.0000000000000000e-04
0.0000000000000000e+00 1.0000000000000000e-04
0.0000000000000000e+00 5.0000000000000002e-05
ITEM: ATOMS id type diameter x y z 
23 1 1.60064e-06 3.51e-05 7.24e-06 4.18e-06 
19 1 1.96345e-06 2.65e-05 4.85e-05 5.61e-06 
46 1 1.53661e-06 1.99e-05 3.36e-05 9.39e-06 
14 1 1.54729e-06 3.34e-05 8.71e-06 1.5e-05 
7 1 1.62198e-06 3e-05 9.08e-06 1.53e-05 
6 1 1.53661e-06 3.8e-05 3.85e-05 2.01e-05 
1 1 1.55796e-06 3.88e-05 4.18e-05 2.17e-05 
50 1 1.86741e-06 3.85e-05 1.91e-05 2.74e-05 
20 1 1.82473e-06 2.7e-05 3.11e-05 3.29e-05 
11 1 1.80339e-06 1.72e-05 4.77e-06 3.98e-05 
22 1 1.75003e-06 1.37e-05 2.81e-05 4.28e-05 
16 1 1.55796e-06 7.24e-06 7.44e-05 2.18e-06 
39 1 1.70735e-06 2.78e-05 6.83e-05 6.04e-06 
49 1 1.47259e-06 1.37e-05 9.03e-05 6.34e-06 
4 1 1.66467e-06 1.77e-05 6.86e-05 1.05e-05 
48 1 1.67534e-06 2.91e-05 6.25e-05 1.66e-05 
41 1 1.66467e-06 1.77e-06 8.76e-05 1.71e-05 
12 1 1.67534e-06 3.86e-05 9.1e-05 1.83e-05 
5 1 1.68601e-06 1.63e-06 9.42e-05 2.14e-05 
36 1 1.62198e-06 1.87e-05 9.07e-05 2.31e-05 
29 1 1.54729e-06 2.88e-05 8.71e-05 2.94e-05 
43 1 1.80339e-06 2.4e-05 8.03e-05 4.17e-05 
8 1 1.84607e-06 4.94e-06 5.65e-05 4.64e-05 