LAMMPS (20 Nov 2019)
Reading data file ...
  orthogonal box = (0 0 0) to (0.0001 0.0001 1e-05)
  8 by 4 by 1 MPI processor grid
  reading atoms ...
  100 atoms
  4 nutrients
Lattice spacing in x,y,z = 100 100 100
50 atoms in group CYANO
50 atoms in group ECW
Model is defined as a closed system. 
Neighbor list info ...
  update every 1 steps, delay 0 steps, check yes
  max neighbors/atom: 5000, page size: 100000
  master list distance cutoff = 2.42e-06
  ghost atom cutoff = 2.42e-06
  binsize = 1.21e-06, bins = 83 83 9
  1 neighbor lists, perpetual/occasional/extra = 1 0 0
  (1) pair gran/hooke/history, perpetual
      attributes: half, newton off, size, history
      pair build: half/size/bin/newtoff
      stencil: half/bin/3d/newtoff
      bin: standard
Setting up Verlet run ...
  Unit style    : lj
  Current step  : 0
  Time step     : 10
Per MPI rank memory allocation (min/avg/max) = 5.794 | 10.68 | 12.11 Mbytes
Step CPU Atoms c_myNtypes[1] c_myNtypes[2] c_myMass[1] c_myMass[2] c_myCon[1] c_myCon[2] c_myCon[3] c_myCon[4] 
       0            0      100           50           50 4.5683471e-14 9.0144978e-15          0.1        0.009     3.42e-20       0.0299 
number of iterations: 324096 
     100    15.596976      132           50           82 4.6288879e-14 9.008428e-15          0.1 0.0090007897  0.036703238  0.029898685 
number of iterations: 3870 
     200    15.921871      146           50           96 4.6902309e-14 9.0039416e-15          0.1    0.0090008  0.072704483  0.029898667 
number of iterations: 2359 
     300    16.197339      146           50           96 4.7523868e-14 9.0010203e-15          0.1 0.0090008106   0.10914303   0.02989865 
number of iterations: 1913 
     400    16.410453      146           50           96 4.8153665e-14 8.9996473e-15          0.1 0.0090008212   0.14602861  0.029898632 
number of iterations: 1606 
     500     16.62446      146           50           96 4.8791808e-14 8.9998074e-15          0.1  0.009000832   0.18336829  0.029898614 
number of iterations: 1432 
     600    16.841996      148           52           96 4.9438407e-14 9.0014849e-15          0.1  0.009000843     0.221169  0.029898595 
number of iterations: 1396 
     700    17.054697      148           52           96 5.0093576e-14 9.0046677e-15          0.1  0.009000854   0.25943776  0.029898577 
number of iterations: 1399 
     800    17.267149      148           52           96 5.0757426e-14 9.0093489e-15          0.1 0.0090008653   0.29818147  0.029898558 
number of iterations: 1404 
     900    17.455982      151           55           96 5.1430075e-14 9.0155195e-15          0.1 0.0090008767   0.33740721  0.029898539 
number of iterations: 1405 
    1000    17.712524      151           55           96 5.2111637e-14 9.0231716e-15          0.1 0.0090008882   0.37712189   0.02989852 
number of iterations: 1407 
    1100    17.894183      151           55           96 5.2802232e-14 9.0322977e-15          0.1 0.0090008999   0.41733263    0.0298985 
number of iterations: 1410 
    1200     18.07976      151           55           96 5.3501978e-14 9.0428907e-15          0.1 0.0090009118   0.45804659   0.02989848 
number of iterations: 1451 
    1300    18.272559      153           57           96 5.4210998e-14 9.0549451e-15          0.1 0.0090009238    0.4992711   0.02989846 
number of iterations: 1416 
    1400     18.45816      153           57           96 5.4929414e-14 9.0684548e-15          0.1  0.009000936   0.54101341   0.02989844 
number of iterations: 1519 
    1500    18.639545      154           58           96 5.565735e-14 9.0834151e-15          0.1 0.0090009507   0.58328093  0.029898415 
number of iterations: 1481 
    1600    18.822489      155           59           96 5.6394933e-14 9.0998206e-15          0.1 0.0090009567   0.62608102  0.029898405 
number of iterations: 1424 
    1700     18.99067      156           60           96 5.7142291e-14 9.1176707e-15          0.1 0.0090009693   0.66942138  0.029898384 
number of iterations: 1427 
    1800    19.166531      156           60           96 5.7899553e-14 9.1369609e-15          0.1 0.0090009821   0.71330966  0.029898363 
number of iterations: 1430 
    1900    19.338854      156           60           96 5.866685e-14 9.1576892e-15          0.1 0.0090009951   0.75775359  0.029898341 
number of iterations: 1489 
    2000    19.571658      159           62           97 5.9444316e-14 9.1798542e-15          0.1 0.0090010066   0.80276099  0.029898322 
number of iterations: 1436 
    2100    19.742442      159           62           97 6.0232085e-14 9.2034545e-15          0.1 0.0090010198    0.8483398  0.029898299 
number of iterations: 1438 
    2200    19.933294      160           63           97 6.1030293e-14 9.2284902e-15          0.1 0.0090010333   0.89449801  0.029898277 
number of iterations: 1493 
    2300    20.109919      162           65           97 6.183908e-14 9.2549598e-15          0.1 0.0090010469   0.94124373  0.029898254 
number of iterations: 1445 
    2400    20.295435      163           65           98 6.2658584e-14 9.2828671e-15          0.1 0.0090010607   0.98858515  0.029898231 
number of iterations: 1448 
    2500    20.463895      164           65           99 6.3488949e-14 9.3122121e-15          0.1 0.0090010747    1.0365306  0.029898208 
number of iterations: 1454 
    2600    20.651715      165           66           99 6.4330318e-14 9.3429992e-15          0.1 0.0090010889    1.0850883  0.029898184 
number of iterations: 1487 
    2700    20.823018      167           68           99 6.5182837e-14 9.3752273e-15          0.1 0.0090010985    1.1342667  0.029898168 
number of iterations: 1450 
    2800    21.002799      167           68           99 6.6046654e-14 9.4089009e-15          0.1  0.009001113    1.1840745  0.029898144 
number of iterations: 1453 
    2900    21.174112      167           68           99 6.6921918e-14 9.4440239e-15          0.1 0.0090011277    1.2345203  0.029898119 
number of iterations: 1456 
    3000    21.467926      170           71           99 6.7808782e-14 9.4805998e-15          0.1 0.0090011426    1.2856131  0.029898094 
number of iterations: 1454 
    3100     21.65892      174           73          101 6.8707398e-14 9.5186317e-15          0.1 0.0090011576    1.3373616  0.029898069 
number of iterations: 1462 
    3200    21.826295      174           73          101 6.9617923e-14 9.5581271e-15          0.1 0.0090011729    1.3897748  0.029898043 
number of iterations: 1512 
    3300     22.02357      178           74          104 7.0540515e-14 9.5990904e-15          0.1 0.0090011884    1.4428618  0.029898018 
number of iterations: 1468 
    3400    22.214806      179           74          105 7.1475333e-14 9.6415292e-15          0.1 0.0090012041    1.4966319  0.029897991 
number of iterations: 1557 
    3500    22.412734      180           75          105 7.2422539e-14 9.6854508e-15          0.1 0.0090012247    1.5510945  0.029897957 
number of iterations: 1474 
    3600    22.622247      181           75          106 7.3382298e-14 9.7308625e-15          0.1 0.0090012409     1.606259   0.02989793 
number of iterations: 1477 
    3700    22.791342      181           75          106 7.4354775e-14 9.7777723e-15          0.1 0.0090012573     1.662135  0.029897902 
number of iterations: 1480 
    3800     22.99092      181           75          106 7.534014e-14 9.8261885e-15          0.1 0.0090012739    1.7187322  0.029897875 
number of iterations: 1469 
    3900    23.192497      182           76          106 7.6338564e-14  9.87612e-15          0.1 0.0090012908    1.7760603  0.029897847 
number of iterations: 1485 
    4000     23.41605      183           76          107 7.7350218e-14 9.9275763e-15          0.1 0.0090013078    1.8341293  0.029897818 
number of iterations: 1488 
    4100     23.59481      184           76          108 7.837528e-14 9.9805682e-15          0.1 0.0090013251    1.8929492  0.029897789 
number of iterations: 1621 
    4200    23.777522      187           78          109 7.9413925e-14 1.0035105e-14          0.1 0.0090013466      1.95253  0.029897753 
number of iterations: 1494 
    4300    23.948228      187           78          109 8.0466335e-14 1.0091199e-14          0.1 0.0090013644    2.0128822  0.029897724 
number of iterations: 1496 
    4400    24.127222      188           79          109 8.1532692e-14 1.0148862e-14          0.1 0.0090013775    2.0740161  0.029897702 
number of iterations: 1499 
    4500    24.296067      191           79          112 8.261318e-14 1.0208106e-14          0.1 0.0090013957    2.1359424  0.029897671 
number of iterations: 1555 
    4600     24.48202      194           81          113 8.3707987e-14 1.0268939e-14          0.1  0.009001411    2.1986713  0.029897646 
number of iterations: 1505 
    4700    24.649124      195           81          114 8.4817303e-14 1.0331378e-14          0.1 0.0090014296    2.2622141  0.029897615 
number of iterations: 1508 
    4800    24.825919      199           83          116 8.5941319e-14 1.0395439e-14          0.1 0.0090014485    2.3265816  0.029897583 
number of iterations: 1746 
    4900    25.011162      201           85          116 8.7080232e-14 1.0461135e-14          0.1  0.009001473    2.3917849  0.029897542 
number of iterations: 1613 
    5000    25.237797      204           88          116 8.8234237e-14 1.0528483e-14          0.1 0.0090014867    2.4578355  0.029897519 
number of iterations: 1523 
    5100    25.433139      204           88          116 8.9403535e-14 1.0597495e-14          0.1 0.0090015064    2.5247444  0.029897486 
number of iterations: 1525 
    5200    25.615806      205           88          117 9.0588329e-14 1.0668186e-14          0.1 0.0090015263    2.5925233  0.029897453 
number of iterations: 1528 
    5300    25.794758      206           88          118 9.1788825e-14 1.0740571e-14          0.1 0.0090015465    2.6611837  0.029897419 
number of iterations: 1578 
    5400     25.97703      209           90          119 9.3005229e-14 1.0814673e-14          0.1 0.0090015696    2.7307377  0.029897381 
number of iterations: 1500 
    5500    26.174099      211           92          119 9.4237754e-14 1.0890507e-14          0.1 0.0090015828    2.8011972  0.029897359 
number of iterations: 1616 
    5600    26.349574      215           95          120 9.5486612e-14 1.0968085e-14          0.1 0.0090016047     2.872574  0.029897322 
number of iterations: 1631 
    5700    26.548423      216           96          120 9.675202e-14 1.1047431e-14          0.1 0.0090016313    2.9448806  0.029897278 
number of iterations: 1541 
    5800    26.737814      217           97          120 9.8034198e-14 1.1128561e-14          0.1 0.0090016529    3.0181294  0.029897242 
number of iterations: 1544 
    5900       26.905      219           98          121 9.9333367e-14 1.1211501e-14          0.1 0.0090016747    3.0923328  0.029897205 
number of iterations: 1542 
    6000     27.08685      220           98          122 1.0064975e-13 1.1296264e-14          0.1 0.0090016969    3.1675038  0.029897168 
number of iterations: 1544 
    6100    27.293062      222          100          122 1.0198358e-13 1.1382874e-14          0.1 0.0090017207    3.2436552  0.029897128 
number of iterations: 1549 
    6200    27.471212      224          102          122 1.0333509e-13 1.1471348e-14          0.1 0.0090017435    3.3208001   0.02989709 
number of iterations: 1556 
    6300    27.692783      225          102          123 1.0470451e-13 1.1561709e-14          0.1 0.0090017665    3.3989515  0.029897052 
number of iterations: 1663 
    6400    27.882811      228          103          125 1.0609208e-13 1.165398e-14          0.1 0.0090017938    3.4781231  0.029897006 
number of iterations: 1532 
    6500    28.054192      229          104          125 1.0749803e-13 1.1748184e-14          0.1 0.0090018176    3.5583282  0.029896966 
number of iterations: 1563 
    6600    28.259444      231          104          127 1.0892261e-13 1.1844345e-14          0.1 0.0090018416    3.6395808  0.029896926 
number of iterations: 1549 
    6700    28.426568      233          106          127 1.1036608e-13 1.1942486e-14          0.1  0.009001866    3.7218947  0.029896886 
number of iterations: 1617 
    6800    28.626667      234          106          128 1.1182867e-13 1.2042632e-14          0.1 0.0090018931    3.8052839   0.02989684 
number of iterations: 1744 
    6900    28.821423      237          109          128 1.1331065e-13 1.2144806e-14          0.1 0.0090019222     3.889763  0.029896792 
number of iterations: 1614 
    7000    28.993694      239          111          128 1.1481227e-13 1.2249038e-14          0.1 0.0090019502    3.9753461  0.029896745 
number of iterations: 1582 
    7100    29.226713      242          112          130 1.1633378e-13 1.2355351e-14          0.1 0.0090019729    4.0620479  0.029896707 
number of iterations: 1654 
    7200    29.409289      245          115          130 1.1787546e-13 1.246377e-14          0.1 0.0090020034    4.1498833  0.029896656 
number of iterations: 1585 
    7300    29.605513      248          116          132 1.1943757e-13 1.2574325e-14          0.1   0.00900203    4.2388673  0.029896612 
number of iterations: 1586 
    7400    29.787693      252          120          132 1.2102038e-13 1.2687045e-14          0.1 0.0090020484     4.329015  0.029896581 
number of iterations: 1588 
    7500    29.975474      257          122          135 1.2262417e-13 1.2801955e-14          0.1 0.0090020646    4.4203421  0.029896554 
number of iterations: 1592 
    7600    30.178652      259          122          137 1.2424921e-13 1.2919086e-14          0.1 0.0090020919    4.5128639  0.029896508 
number of iterations: 1600 
    7700    30.376963      263          125          138 1.2589578e-13 1.3038466e-14          0.1  0.009002118    4.6065965  0.029896464 
number of iterations: 1661 
    7800    30.557521      268          128          140 1.2756418e-13 1.3160128e-14          0.1 0.0090021491    4.7015557  0.029896412 
number of iterations: 1628 
    7900    30.734881      272          131          141 1.2925468e-13 1.3284103e-14          0.1 0.0090021776    4.7977575  0.029896365 
number of iterations: 1578 
    8000    30.921804      275          134          141 1.3096759e-13 1.341042e-14          0.1 0.0090021973    4.8952187  0.029896332 
number of iterations: 1561 
    8100    31.111152      278          136          142 1.327032e-13 1.3539115e-14          0.1 0.0090022174    4.9939558  0.029896298 
number of iterations: 1605 
    8200    31.277084      281          137          144 1.3446181e-13 1.3670219e-14          0.1 0.0090022405    5.0939857   0.02989626 
number of iterations: 1610 
    8300    31.479876      283          138          145 1.3624373e-13 1.380377e-14          0.1 0.0090022716    5.1953255  0.029896208 
number of iterations: 1610 
    8400    31.653721      289          139          150 1.3804925e-13 1.3939798e-14          0.1 0.0090023016    5.2979925  0.029896158 
number of iterations: 1652 
    8500    31.855103      292          142          150 1.3987871e-13 1.407834e-14          0.1 0.0090023362    5.4020042    0.0298961 
number of iterations: 1617 
    8600     32.03661      294          142          152 1.4173241e-13 1.4219432e-14          0.1 0.0090023671    5.5073784  0.029896048 
number of iterations: 1627 
    8700    32.219651      295          142          153 1.4361068e-13 1.436311e-14          0.1 0.0090023984    5.6141324  0.029895996 
number of iterations: 1665 
    8800    32.416219      303          146          157 1.4551383e-13 1.4509413e-14          0.1  0.009002432    5.7222852   0.02989594 
number of iterations: 1696 
    8900    32.666564      305          148          157 1.4744221e-13 1.4658378e-14          0.1  0.009002469    5.8318553  0.029895878 
number of iterations: 1658 
    9000    32.910107      308          150          158 1.4939615e-13 1.4810044e-14          0.1 0.0090025017    5.9428612  0.029895823 
number of iterations: 1658 
    9100    33.147711      314          152          162 1.5137597e-13 1.4964449e-14          0.1 0.0090025348    6.0553223  0.029895768 
number of iterations: 1672 
    9200    33.338183      315          153          162 1.5338204e-13 1.5121638e-14          0.1  0.009002573    6.1692571  0.029895704 
number of iterations: 1589 
    9300    33.512537      317          155          162 1.5541469e-13 1.5281651e-14          0.1  0.009002596    6.2846853  0.029895666 
number of iterations: 1637 
    9400    33.699589      321          155          166 1.5747427e-13 1.5444529e-14          0.1 0.0090026304    6.4016263  0.029895608 
number of iterations: 1676 
    9500    33.882141      323          157          166 1.5956115e-13 1.5610316e-14          0.1 0.0090026646    6.5201002  0.029895551 
number of iterations: 1639 
    9600    34.060035      326          158          168 1.6167569e-13 1.5779054e-14          0.1 0.0090026966    6.6401272  0.029895498 
number of iterations: 1657 
    9700    34.243459      327          159          168 1.6381825e-13 1.5950789e-14          0.1  0.009002736    6.7617276  0.029895432 
number of iterations: 1627 
    9800    34.434339      331          160          171 1.659892e-13 1.6125565e-14          0.1 0.0090027642    6.8849222  0.029895385 
number of iterations: 1657 
    9900    34.612024      333          160          173 1.6818892e-13 1.630343e-14          0.1 0.0090028008    7.0097319  0.029895324 
number of iterations: 1673 
   10000    34.810102      336          162          174 1.7041779e-13 1.648443e-14          0.1 0.0090028329     7.136178   0.02989527 
number of iterations: 1700 
   10100    34.992994      343          167          176 1.726762e-13 1.6668615e-14          0.1 0.0090028663    7.2642815  0.029895214 
number of iterations: 1659 
   10200    35.188908      344          167          177 1.7496454e-13 1.6856032e-14          0.1 0.0090029042    7.3940649  0.029895151 
number of iterations: 1690 
   10300    35.398086      349          168          181 1.772832e-13 1.7046731e-14          0.1 0.0090029463      7.52555   0.02989508 
number of iterations: 1666 
   10400    35.594748      352          170          182 1.7963259e-13 1.7240763e-14          0.1 0.0090029853    7.6587593  0.029895015 
number of iterations: 1795 
   10500    35.784245      359          175          184 1.8201312e-13 1.7438177e-14          0.1 0.0090030329    7.7937149  0.029894936 
number of iterations: 1717 
   10600    35.992075      363          177          186 1.8442519e-13 1.7639026e-14          0.1 0.0090030721    7.9304403   0.02989487 
number of iterations: 1677 
   10700    36.244943      366          178          188 1.8686923e-13 1.7843367e-14          0.1 0.0090031128    8.0689586  0.029894802 
number of iterations: 1717 
   10800    36.429384      370          181          189 1.8934566e-13 1.8051254e-14          0.1 0.0090031594    8.2092936  0.029894724 
number of iterations: 1670 
   10900    36.605629      374          183          191 1.918549e-13 1.8262742e-14          0.1 0.0090031936     8.351469  0.029894667 
number of iterations: 1671 
   11000      36.7955      379          184          195 1.943974e-13 1.8477886e-14          0.1 0.0090032312     8.495509  0.029894604 
number of iterations: 1670 
   11100    37.022677      383          187          196 1.9697359e-13 1.8696745e-14          0.1 0.0090032716     8.641438  0.029894537 
number of iterations: 1740 
   11200    37.221767      393          194          199 1.9958392e-13 1.8919376e-14          0.1 0.0090033118    8.7892812   0.02989447 
number of iterations: 1700 
   11300    37.409471      400          198          202 2.0222885e-13 1.9145844e-14          0.1 0.0090033536    8.9390632    0.0298944 
number of iterations: 1686 
   11400    37.602782      407          202          205 2.0490882e-13 1.9376208e-14          0.1 0.0090033865    9.0908101  0.029894345 
number of iterations: 1718 
   11500    37.811189      410          204          206 2.0762431e-13 1.9610523e-14          0.1  0.009003431    9.2445476   0.02989427 
number of iterations: 1707 
   11600    38.003957      418          210          208 2.1037579e-13 1.9848861e-14          0.1 0.0090034791    9.4003016   0.02989419 
number of iterations: 1727 
   11700    38.192418      421          212          209 2.1316373e-13 2.0091281e-14          0.1 0.0090035251    9.5580984  0.029894113 
number of iterations: 1754 
   11800    38.376621      428          214          214 2.1598862e-13 2.0337854e-14          0.1 0.0090035752    9.7179648  0.029894029 
number of iterations: 1800 
   11900     38.57935      435          218          217 2.1885094e-13 2.0588645e-14          0.1 0.0090036251    9.8799277  0.029893946 
number of iterations: 1721 
   12000    38.795049      446          222          224 2.2175119e-13 2.084372e-14          0.1 0.0090036731    10.044015  0.029893866 
number of iterations: 1753 
   12100    38.994228      451          225          226 2.2468988e-13 2.1103147e-14          0.1 0.0090037241    10.210254   0.02989378 
number of iterations: 1788 
   12200    39.199473      461          231          230 2.2766751e-13 2.1366995e-14          0.1 0.0090037651    10.378673  0.029893712 
number of iterations: 1726 
   12300    39.385936      468          234          234 2.306846e-13 2.1635338e-14          0.1 0.0090038149    10.549301  0.029893629 
number of iterations: 1697 
   12400    39.563164      472          236          236 2.3374168e-13 2.1908248e-14          0.1 0.0090038626    10.722166  0.029893549 
number of iterations: 1702 
   12500    39.772078      478          239          239 2.3683927e-13 2.2185798e-14          0.1 0.0090039092    10.897298  0.029893471 
number of iterations: 1748 
   12600    39.965423      481          240          241 2.399779e-13 2.2468066e-14          0.1  0.009003966    11.074728  0.029893376 
number of iterations: 1782 
   12700    40.160903      484          242          242 2.4315814e-13 2.2755128e-14          0.1 0.0090040247    11.254485  0.029893278 
number of iterations: 1734 
   12800    40.350004      488          243          245 2.4638051e-13 2.3047062e-14          0.1 0.0090040688      11.4366  0.029893204 
number of iterations: 1791 
   12900    40.563468      497          249          248 2.4964559e-13 2.3343948e-14          0.1 0.0090041328    11.621103  0.029893097 
number of iterations: 1737 
   13000    40.781709      506          252          254 2.5295394e-13 2.3645864e-14          0.1 0.0090041805    11.808025  0.029893018 
number of iterations: 1777 
   13100    41.031027      515          254          261 2.5630613e-13 2.3952893e-14          0.1 0.0090042399      11.9974  0.029892918 
number of iterations: 1741 
   13200    41.222222      519          256          263 2.5970275e-13 2.4265119e-14          0.1 0.0090042961    12.189257  0.029892824 
number of iterations: 1762 
   13300    41.400158      527          260          267 2.6314438e-13 2.4582629e-14          0.1 0.0090043567     12.38363  0.029892723 
number of iterations: 1778 
   13400    41.601814      533          265          268 2.6663161e-13 2.4905508e-14          0.1 0.0090044096    12.580551  0.029892635 
number of iterations: 1792 
   13500    41.789403      540          270          270 2.7016506e-13 2.5233846e-14          0.1 0.0090044778    12.780055  0.029892521 
number of iterations: 1769 
   13600    41.975813      546          274          272 2.7374534e-13 2.5567729e-14          0.1 0.0090045397    12.982175  0.029892417 
number of iterations: 1850 
   13700    42.204615      553          278          275 2.7737306e-13 2.5907252e-14          0.1  0.009004601    13.186945  0.029892315 
number of iterations: 1745 
   13800    42.413747      560          283          277 2.8104886e-13 2.6252505e-14          0.1 0.0090046537      13.3944  0.029892227 
number of iterations: 1812 
   13900    42.605642      567          287          280 2.8477337e-13 2.6603586e-14          0.1 0.0090047142    13.604576  0.029892125 
number of iterations: 1848 
   14000       42.847      577          293          284 2.8854724e-13 2.6960591e-14          0.1 0.0090047821    13.817507  0.029892012 
number of iterations: 1785 
   14100    43.057403      583          297          286 2.9237112e-13 2.7323615e-14          0.1 0.0090048454     14.03323  0.029891906 
number of iterations: 1751 
   14200    43.242791      591          300          291 2.9624567e-13 2.7692759e-14          0.1 0.0090049007    14.251782  0.029891814 
number of iterations: 1776 
   14300    43.425521      601          305          296 3.0017157e-13 2.806812e-14          0.1 0.0090049553    14.473198  0.029891722 
number of iterations: 1770 
   14400    43.603303      606          307          299 3.041495e-13 2.8449806e-14          0.1 0.0090050109    14.697518  0.029891629 
number of iterations: 1783 
   14500    43.806885      612          307          305 3.0818014e-13 2.883792e-14          0.1 0.0090050773    14.924777  0.029891518 
number of iterations: 1763 
   14600    44.008356      619          310          309 3.122642e-13 2.923257e-14          0.1 0.0090051402    15.155017  0.029891413 
number of iterations: 1790 
   14700    44.218671      627          314          313 3.1640238e-13 2.9633866e-14          0.1 0.0090052092    15.388274  0.029891298 
number of iterations: 1779 
   14800    44.402338      634          316          318 3.205954e-13 3.0041911e-14          0.1 0.0090052763    15.624589  0.029891186 
number of iterations: 1796 
   14900    44.612148      642          318          324 3.2484398e-13 3.0456821e-14          0.1 0.0090053417    15.864002  0.029891076 
number of iterations: 1803 
   15000    44.830587      648          320          328 3.2914887e-13 3.0878714e-14          0.1 0.0090054151    16.106553  0.029890953 
number of iterations: 1875 
   15100    45.023774      656          325          331 3.3351081e-13 3.1307705e-14          0.1 0.0090054956    16.352282  0.029890819 
number of iterations: 1803 
   15200    45.219418      664          328          336 3.3793055e-13 3.1743912e-14          0.1 0.0090055699    16.601232  0.029890695 
number of iterations: 1799 
   15300    45.404921      677          334          343 3.4240887e-13 3.2187458e-14          0.1 0.0090056464    16.853444  0.029890567 
number of iterations: 1805 
   15400    45.599561      686          337          349 3.4694653e-13 3.2638463e-14          0.1 0.0090057045    17.108962  0.029890469 
number of iterations: 1818 
   15500    45.808842      693          340          353 3.5154432e-13 3.3097046e-14          0.1  0.009005774    17.367828  0.029890353 
number of iterations: 1788 
   15600    45.995362      699          345          354 3.5620305e-13 3.3563343e-14          0.1 0.0090058454    17.630087  0.029890234 
number of iterations: 1824 
   15700     46.22084      715          352          363 3.6092351e-13 3.4037479e-14          0.1 0.0090059271    17.895782  0.029890097 
number of iterations: 1816 
   15800    46.459864      724          357          367 3.6570653e-13 3.4519583e-14          0.1 0.0090059989    18.164958  0.029889977 
number of iterations: 1820 
   15900    46.681325      731          362          369 3.7055293e-13 3.500979e-14          0.1 0.0090060729     18.43766  0.029889853 
number of iterations: 1823 
   16000    46.892158      738          367          371 3.7546356e-13 3.5508235e-14          0.1 0.0090061601    18.713934  0.029889707 
number of iterations: 1872 
   16100    47.119366      748          371          377 3.8043927e-13 3.6015058e-14          0.1 0.0090062477    18.993829  0.029889561 
number of iterations: 1897 
   16200    47.317294      753          372          381 3.8548091e-13 3.6530396e-14          0.1 0.0090063353     19.27739  0.029889415 
number of iterations: 1806 
   16300    47.512919      766          379          387 3.9058937e-13 3.7054394e-14          0.1 0.0090064124    19.564665  0.029889286 
number of iterations: 1862 
   16400      47.7218      780          385          395 3.9576552e-13 3.7587198e-14          0.1 0.0090065056    19.855703   0.02988913 
number of iterations: 1764 
   16500    47.909449      791          390          401 4.0101027e-13 3.8128955e-14          0.1 0.0090065737    20.150554  0.029889016 
number of iterations: 1857 
   16600    48.114779      807          396          411 4.0632453e-13 3.8679813e-14          0.1 0.0090066602    20.449266  0.029888871 
number of iterations: 1842 
   16700    48.340322      817          399          418 4.1170921e-13 3.9239928e-14          0.1 0.0090067457     20.75189  0.029888728 
number of iterations: 1887 
   16800    48.539589      823          404          419 4.1716524e-13 3.9809453e-14          0.1 0.0090068354    21.058477  0.029888578 
number of iterations: 1830 
   16900    48.733563      840          415          425 4.2269359e-13 4.0388549e-14          0.1 0.0090069287    21.369079  0.029888422 
number of iterations: 1919 
   17000    48.979081      854          420          434 4.2829519e-13 4.0977378e-14          0.1 0.0090070264    21.683748  0.029888259 
number of iterations: 1881 
   17100     49.21272      869          427          442 4.3397103e-13 4.1576103e-14          0.1 0.0090071139    22.002537  0.029888112 
number of iterations: 1863 
   17200     49.41224      881          432          449 4.3972208e-13 4.2184889e-14          0.1 0.0090072045    22.325499  0.029887961 
number of iterations: 1874 
   17300     49.62104      899          440          459 4.4554935e-13 4.2803905e-14          0.1  0.009007285     22.65269  0.029887826 
number of iterations: 1907 
   17400    49.808846      908          446          462 4.5145384e-13 4.3433324e-14          0.1 0.0090073826    22.984164  0.029887663 
number of iterations: 1810 
   17500    50.001515      919          452          467 4.5743658e-13 4.4073324e-14          0.1 0.0090074664    23.319978  0.029887523 
number of iterations: 1953 
   17600    50.207567      936          460          476 4.634986e-13 4.4724081e-14          0.1  0.009007583    23.660187  0.029887328 
number of iterations: 1872 
   17700    50.398411      957          468          489 4.6964095e-13 4.5385775e-14          0.1  0.009007672     24.00485  0.029887179 
number of iterations: 1905 
   17800    50.607208      969          472          497 4.7586471e-13 4.6058592e-14          0.1 0.0090077703    24.354025  0.029887014 
number of iterations: 1911 
   17900    50.825962      978          478          500 4.8217094e-13 4.6742718e-14          0.1 0.0090078777     24.70777  0.029886835 
number of iterations: 1878 
   18000    51.057092      991          485          506 4.8856075e-13 4.7438345e-14          0.1 0.0090079633    25.066145  0.029886691 
number of iterations: 1975 
   18100    51.266478     1003          490          513 4.9503523e-13 4.8145666e-14          0.1 0.0090080829     25.42921  0.029886491 
number of iterations: 1944 
   18200    51.458809     1018          498          520 5.0159551e-13 4.8864882e-14          0.1 0.0090081911    25.797027   0.02988631 
number of iterations: 1849 
   18300    51.654438     1032          509          523 5.0824274e-13 4.9596192e-14          0.1 0.0090082901    26.169657  0.029886145 
number of iterations: 1926 
   18400    51.858521     1047          519          528 5.1497805e-13 5.0339801e-14          0.1 0.0090083993    26.547164  0.029885962 
number of iterations: 1899 
   18500    52.047468     1057          522          535 5.2180261e-13 5.1095917e-14          0.1 0.0090085036     26.92961  0.029885788 
number of iterations: 1921 
   18600    52.263934     1078          534          544 5.2871762e-13 5.1864751e-14          0.1 0.0090086184     27.31706  0.029885595 
number of iterations: 1919 
   18700    52.458041     1095          538          557 5.3572427e-13 5.2646521e-14          0.1 0.0090087363    27.709578  0.029885398 
number of iterations: 1901 
   18800    52.878411     1116          548          568 5.4282377e-13 5.3441445e-14          0.1 0.0090088417    28.107231  0.029885222 
number of iterations: 1932 
   18900    53.098157     1128          553          575 5.5001735e-13 5.4249743e-14          0.1 0.0090089652    28.510086  0.029885015 
number of iterations: 1873 
   19000    53.329458     1139          558          581 5.5730626e-13 5.5071644e-14          0.1   0.00900907     28.91821   0.02988484 
number of iterations: 1912 
   19100    53.533955     1151          562          589 5.6469176e-13 5.5907378e-14          0.1   0.00900918    29.331672  0.029884656 
number of iterations: 1974 
   19200    53.758021     1168          566          602 5.7217514e-13 5.6757179e-14          0.1 0.0090093136    29.750541  0.029884432 
number of iterations: 1938 
   19300    53.959764     1183          570          613 5.7975769e-13 5.7621288e-14          0.1 0.0090094301    30.174888  0.029884237 
number of iterations: 1936 
   19400    54.159946     1201          577          624 5.8744072e-13 5.8499944e-14          0.1 0.0090095752    30.604785  0.029883995 
number of iterations: 1929 
   19500    54.359837     1212          583          629 5.9522557e-13 5.9393396e-14          0.1 0.0090096961    31.040304  0.029883792 
number of iterations: 1955 
   19600     54.56619     1232          594          638 6.0311358e-13 6.0301896e-14          0.1 0.0090098369    31.481519  0.029883557 
number of iterations: 1938 
   19700    54.786727     1248          602          646 6.1110613e-13 6.1225696e-14          0.1  0.009009961    31.928502  0.029883349 
number of iterations: 1956 
   19800    55.025543     1267          610          657 6.1920459e-13 6.2165057e-14          0.1 0.0090101042    32.381329   0.02988311 
number of iterations: 1938 
   19900    55.237734     1292          625          667 6.2741038e-13 6.3120245e-14          0.1 0.0090102405    32.840077  0.029882881 
number of iterations: 2018 
   20000    55.491816     1315          636          679 6.3572491e-13 6.4091524e-14          0.1 0.0090103891    33.304822  0.029882633 
number of iterations: 1960 
   20100    55.709854     1335          645          690 6.4414962e-13 6.5079168e-14          0.1 0.0090105368    33.775641  0.029882386 
number of iterations: 1943 
   20200    55.913348     1358          654          704 6.5268598e-13 6.6083457e-14          0.1 0.0090106808    34.252615  0.029882145 
number of iterations: 1970 
   20300    56.181288     1374          661          713 6.6133546e-13 6.7104673e-14          0.1 0.0090108208    34.735823  0.029881911 
number of iterations: 1998 
   20400    56.422954     1387          667          720 6.7009957e-13 6.8143104e-14          0.1 0.0090109748    35.225347  0.029881653 
number of iterations: 1975 
   20500    56.659553     1403          672          731 6.7897982e-13 6.9199041e-14          0.1 0.0090111285    35.721267  0.029881396 
number of iterations: 1964 
   20600    56.863484     1423          679          744 6.8797775e-13 7.0272785e-14          0.1 0.0090112737    36.223669  0.029881153 
number of iterations: 1957 
   20700    57.087469     1443          684          759 6.9709492e-13 7.1364638e-14          0.1 0.0090114321    36.732635  0.029880888 
number of iterations: 1937 
   20800    57.292183     1465          694          771 7.0633291e-13 7.2474906e-14          0.1 0.0090115756    37.248251  0.029880648 
number of iterations: 1943 
   20900     57.50512     1478          696          782 7.1569332e-13 7.3603904e-14          0.1 0.0090117174    37.770604   0.02988041 
number of iterations: 1965 
   21000    57.790761     1497          707          790 7.2517778e-13 7.4751948e-14          0.1 0.0090118673     38.29978  0.029880159 
number of iterations: 1956 
   21100    58.003975     1518          710          808 7.3478793e-13 7.5919364e-14          0.1 0.0090120219     38.83587  0.029879901 
number of iterations: 2009 
   21200    58.213876     1544          720          824 7.4452543e-13 7.7106483e-14          0.1 0.0090121949    39.378963  0.029879611 
number of iterations: 1992 
   21300    58.445716     1562          724          838 7.5439198e-13 7.8313644e-14          0.1 0.0090123493    39.929147  0.029879353 
number of iterations: 1986 
   21400    58.659178     1580          732          848 7.6438927e-13 7.9541184e-14          0.1 0.0090125206    40.486517  0.029879066 
number of iterations: 1972 
   21500    58.860975     1600          739          861 7.7451905e-13 8.0789442e-14          0.1 0.0090126788    41.051167  0.029878801 
number of iterations: 2009 
   21600    59.094843     1630          754          876 7.8478307e-13 8.2058778e-14          0.1 0.0090128698    41.623191  0.029878482 
number of iterations: 2019 
   21700    59.308597     1655          764          891 7.9518311e-13 8.3349547e-14          0.1 0.0090130561    42.202685   0.02987817 
number of iterations: 1959 
   21800    59.537653     1681          776          905 8.0572097e-13 8.4662113e-14          0.1 0.0090132142    42.789744  0.029877905 
number of iterations: 2025 
   21900    59.772199     1699          788          911 8.1639847e-13 8.599685e-14          0.1 0.0090133898    43.384469  0.029877611 
number of iterations: 2023 
   22000    60.004656     1724          802          922 8.2721748e-13 8.7354139e-14          0.1 0.0090135773     43.98696  0.029877298 
number of iterations: 1960 
   22100    60.207512     1751          815          936 8.3817986e-13 8.8734362e-14          0.1 0.0090137385    44.597315  0.029877028 
number of iterations: 2031 
   22200    60.420029     1786          833          953 8.4928752e-13 9.0137911e-14          0.1  0.009013926    45.215638  0.029876714 
number of iterations: 2042 
   22300    60.643539     1811          846          965 8.6054237e-13 9.156518e-14          0.1 0.0090141131    45.842031  0.029876401 
number of iterations: 2005 
   22400    60.872059     1834          859          975 8.7194637e-13 9.3016577e-14          0.1 0.0090143077      46.4766  0.029876075 
number of iterations: 2026 
   22500    61.119355     1865          871          994 8.835015e-13 9.4492512e-14          0.1 0.0090145069    47.119451  0.029875742 
number of iterations: 1980 
   22600    61.350691     1896          884         1012 8.9520976e-13 9.5993402e-14          0.1 0.0090146865    47.770692  0.029875441 
number of iterations: 2039 
   22700    61.569031     1926          893         1033 9.0707318e-13 9.7519673e-14          0.1 0.0090148698     48.43043  0.029875134 
number of iterations: 2030 
   22800    61.793305     1958          907         1051 9.1909381e-13 9.9071759e-14          0.1 0.0090150461    49.098776  0.029874839 
number of iterations: 1973 
   22900    62.020907     1988          926         1062 9.3127374e-13 1.006501e-13          0.1 0.0090152036    49.775844  0.029874575 
number of iterations: 2038 
   23000    62.239699     2032          947         1085 9.4361507e-13 1.0225514e-13          0.1 0.0090154182    50.461743  0.029874216 
number of iterations: 2025 
   23100    62.456974     2067          958         1109 9.5611996e-13 1.0388734e-13          0.1 0.0090156204    51.156589  0.029873877 
number of iterations: 2031 
   23200    62.677667     2091          966         1125 9.6879056e-13 1.0554715e-13          0.1 0.0090158243    51.860499  0.029873535 
number of iterations: 2049 
   23300     62.95513     2124          981         1143 9.8162907e-13 1.0723505e-13          0.1 0.0090160461     52.57359  0.029873164 
number of iterations: 2053 
   23400    63.180299     2149          992         1157 9.9463772e-13 1.0895153e-13          0.1 0.0090162616    53.295982  0.029872803 
number of iterations: 2093 
   23500    63.426089     2169          999         1170 1.0078188e-12 1.1069706e-13          0.1  0.009016487    54.027796  0.029872426 
number of iterations: 2028 
   23600    63.647048     2197         1008         1189 1.0211745e-12 1.1247215e-13          0.1 0.0090166894    54.769153  0.029872087 
number of iterations: 2004 
   23700    63.868947     2223         1021         1202 1.0347072e-12 1.1427729e-13          0.1  0.009016885    55.520177  0.029871759 
number of iterations: 2088 
   23800    64.082851     2259         1032         1227 1.0484192e-12  1.16113e-13          0.1 0.0090171224    56.280993  0.029871362 
number of iterations: 2056 
   23900    64.301739     2286         1042         1244 1.062313e-12 1.1797981e-13          0.1 0.0090173471    57.051728  0.029870986 
number of iterations: 2070 
   24000    64.539289     2320         1054         1266 1.0763908e-12 1.1987824e-13          0.1 0.0090175843    57.832511  0.029870589 
number of iterations: 2052 
   24100    64.754206     2356         1069         1287 1.0906553e-12 1.2180883e-13          0.1 0.0090178313    58.623473  0.029870175 
number of iterations: 2086 
   24200    64.999952     2392         1089         1303 1.1051087e-12 1.2377214e-13          0.1 0.0090180442    59.424744  0.029869818 
number of iterations: 2102 
   24300    65.218678     2431         1103         1328 1.1197537e-12 1.2576872e-13          0.1 0.0090182944    60.236457    0.0298694 
number of iterations: 2091 
   24400    65.460311     2474         1122         1352 1.1345928e-12 1.2779914e-13          0.1  0.009018536    61.058749  0.029868995 
number of iterations: 2084 
   24500    65.686034     2507         1137         1370 1.1496285e-12 1.2986397e-13          0.1 0.0090188058    61.891756  0.029868543 
number of iterations: 2095 
   24600    65.937581     2544         1151         1393 1.1648635e-12 1.3196381e-13          0.1 0.0090190412    62.735618  0.029868149 
number of iterations: 2086 
   24700    66.226156     2583         1172         1411 1.1803003e-12 1.3409924e-13          0.1 0.0090193028    63.590474  0.029867711 
number of iterations: 2078 
   24800    66.470963     2627         1193         1434 1.1959418e-12 1.362709e-13          0.1 0.0090195495     64.45647  0.029867298 
number of iterations: 2080 
   24900    66.701317     2670         1204         1466 1.2117905e-12 1.3847937e-13          0.1  0.009019803    65.333747  0.029866873 
number of iterations: 2076 
   25000    66.966156     2717         1220         1497 1.2278492e-12 1.4072531e-13          0.1 0.0090200709    66.222452  0.029866424 
number of iterations: 2118 
   25100    67.210837     2761         1239         1522 1.2441208e-12 1.4300934e-13          0.1 0.0090203183    67.122732   0.02986601 
number of iterations: 2072 
   25200    67.441062     2805         1254         1551 1.260608e-12 1.4533212e-13          0.1 0.0090205915    68.034739  0.029865552 
number of iterations: 2081 
   25300    67.671609     2846         1272         1574 1.2773136e-12 1.4769431e-13          0.1 0.0090208652    68.958624  0.029865094 
number of iterations: 2074 
   25400    67.977459     2879         1288         1591 1.2942407e-12 1.5009658e-13          0.1 0.0090211182     69.89454   0.02986467 
number of iterations: 2087 
   25500     68.20363     2923         1306         1617 1.311392e-12 1.5253962e-13          0.1 0.0090213999    70.842644  0.029864198 
number of iterations: 2128 
   25600    68.471112     2953         1311         1642 1.3261882e-12 1.5502411e-13          0.1  0.009021645    71.801119  0.029863787 
number of iterations: 2097 
   25700    68.705064     2996         1327         1669 1.3437629e-12 1.5755077e-13          0.1 0.0090219204    72.772073  0.029863326 
number of iterations: 2098 
   25800    68.941004     3037         1340         1697 1.3615706e-12 1.6012033e-13          0.1 0.0090221983    73.755665   0.02986286 
number of iterations: 2116 
   25900      69.1747     3087         1358         1729 1.3796142e-12 1.627335e-13          0.1 0.0090224826     74.75206  0.029862383 
number of iterations: 2103 
   26000    69.440752     3129         1373         1756 1.3978969e-12 1.6539104e-13          0.1 0.0090227631    75.761425  0.029861913 
number of iterations: 2115 
   26100    69.667738     3166         1387         1779 1.4164219e-12 1.6809371e-13          0.1 0.0090230535    76.783925  0.029861427 
number of iterations: 2126 
   26200    69.898557     3205         1404         1801 1.4351924e-12 1.7084228e-13          0.1 0.0090233496    77.819731  0.029860931 
number of iterations: 2096 
   26300     70.15634     3253         1415         1838 1.4542117e-12 1.7363754e-13          0.1 0.0090236498    78.869016  0.029860428 
number of iterations: 2173 
   26400    70.411712     3309         1437         1872 1.473483e-12 1.7648028e-13          0.1 0.0090239696    79.931952  0.029859892 
number of iterations: 2144 
   26500    70.652769     3360         1458         1902 1.4930096e-12 1.7937132e-13          0.1 0.0090242962    81.008718  0.029859345 
number of iterations: 2162 
   26600    70.921853     3416         1476         1940 1.5127951e-12 1.8231148e-13          0.1 0.0090246291    82.099491  0.029858787 
number of iterations: 2160 
   26700    71.167181     3465         1497         1968 1.5328427e-12 1.853016e-13          0.1 0.0090249463    83.204455  0.029858255 
number of iterations: 2144 
   26800    71.402961     3512         1518         1994 1.553156e-12 1.8834253e-13          0.1  0.009025296    84.323791  0.029857669 
number of iterations: 2171 
   26900    71.627704     3567         1541         2026 1.5737385e-12 1.9143514e-13          0.1 0.0090256281    85.457686  0.029857113 
number of iterations: 2161 
   27000    71.866758     3631         1561         2070 1.5945937e-12 1.9458033e-13          0.1 0.0090259648    86.606326  0.029856549 
number of iterations: 2141 
   27100    72.118931     3677         1580         2097 1.6146564e-12 1.9777898e-13          0.1 0.0090262912    87.769084  0.029856002 
number of iterations: 2164 
   27200    72.383782     3726         1596         2130 1.6360539e-12  2.01032e-13          0.1 0.0090266444     88.94696   0.02985541 
number of iterations: 2138 
   27300    72.631204     3775         1610         2165 1.657735e-12 2.0434034e-13          0.1 0.0090269988    90.140151  0.029854816 
number of iterations: 2137 
   27400    72.925185     3828         1630         2198 1.6797033e-12 2.0770493e-13          0.1 0.0090273475    91.348851  0.029854231 
number of iterations: 2156 
   27500    73.163429     3891         1659         2232 1.7019628e-12 2.1112674e-13          0.1 0.0090277067    92.573266  0.029853629 
number of iterations: 2136 
   27600    73.410411     3950         1678         2272 1.7245173e-12 2.1460675e-13          0.1 0.0090280593    93.813595  0.029853038 
number of iterations: 2164 
   27700    73.642197     4023         1710         2313 1.7473706e-12 2.1814595e-13          0.1 0.0090284253    95.070045  0.029852424 
number of iterations: 2160 
   27800    73.888972     4088         1736         2352 1.7705268e-12 2.2174536e-13          0.1 0.0090287689    96.342825  0.029851848 
number of iterations: 2192 
   27900    74.120303     4157         1766         2391 1.7939899e-12 2.2540601e-13          0.1 0.0090291526    97.632143  0.029851205 
number of iterations: 2171 
   28000    74.355906     4219         1792         2427 1.8177639e-12 2.2912894e-13          0.1 0.0090295046    98.938214  0.029850614 
number of iterations: 2222 
   28100    74.638968     4282         1813         2469 1.8418529e-12 2.3291523e-13          0.1 0.0090299149    100.26126  0.029849927 
number of iterations: 2181 
   28200    74.889337     4360         1846         2514 1.8662612e-12 2.3676595e-13          0.1  0.009030304    101.60149  0.029849275 
number of iterations: 2209 
   28300    75.140798     4431         1866         2565 1.8909929e-12 2.4068221e-13          0.1 0.0090306986    102.95912  0.029848613 
number of iterations: 2184 
   28400    75.387214     4486         1887         2599 1.9160524e-12 2.4466514e-13          0.1 0.0090310725     104.3344  0.029847986 
number of iterations: 2205 
   28500    75.636732     4540         1914         2626 1.9414439e-12 2.4871586e-13          0.1 0.0090314738    105.72753  0.029847313 
number of iterations: 2167 
   28600    75.898468     4624         1952         2672 1.9671719e-12 2.5283555e-13          0.1 0.0090318786    107.13876  0.029846634 
number of iterations: 2233 
   28700    76.210086     4697         1981         2716 1.9932409e-12 2.5702538e-13          0.1  0.009032318    108.56831  0.029845898 
number of iterations: 2171 
   28800    76.484247     4761         2001         2760 2.0196554e-12 2.6128656e-13          0.1 0.0090327397    110.01643  0.029845191 
number of iterations: 2224 
   28900    76.755521     4825         2022         2803 2.0464198e-12 2.6551255e-13          0.1 0.0090331978    111.48338  0.029844423 
number of iterations: 2211 
   29000    77.021755     4899         2046         2853 2.073539e-12 2.6991832e-13          0.1 0.0090336612    112.96938  0.029843647 
number of iterations: 2198 
   29100    77.305767     4983         2072         2911 2.1010175e-12 2.7439913e-13          0.1 0.0090340872    114.47467  0.029842932 
number of iterations: 2154 
   29200    77.546435     5067         2102         2965 2.126868e-12 2.7895626e-13          0.1 0.0090344761    115.99797  0.029842279 
number of iterations: 2185 
   29300    77.822997     5128         2120         3008 2.1550533e-12 2.8359103e-13          0.1 0.0090349151    117.54104  0.029841543 
number of iterations: 2200 
   29400    78.075338     5201         2152         3049 2.183612e-12 2.8830475e-13          0.1 0.0090353611    119.10414  0.029840795 
number of iterations: 2240 
   29500    78.412682     5286         2183         3103 2.2125492e-12 2.9309879e-13          0.1 0.0090358693    120.68752  0.029839943 
number of iterations: 2183 
   29600    78.674182     5365         2205         3160 2.2410339e-12 2.9797451e-13          0.1 0.0090363175     122.2908  0.029839191 
number of iterations: 2251 
   29700    78.950603     5450         2233         3217 2.2707321e-12 3.0293332e-13          0.1 0.0090368204    123.91488  0.029838348 
number of iterations: 2203 
   29800    79.206075     5543         2267         3276 2.3008238e-12 3.0797663e-13          0.1 0.0090372523    125.56003  0.029837623 
number of iterations: 2243 
   29900    79.478762     5647         2303         3344 2.3313142e-12 3.1310591e-13          0.1   0.00903775    127.22652  0.029836788 
number of iterations: 2196 
   30000     79.75006     5722         2340         3382 2.3622088e-12 3.1832261e-13          0.1 0.0090382221    128.91463  0.029835996 
number of iterations: 2236 
   30100    80.001308     5797         2373         3424 2.3923362e-12 3.2362824e-13          0.1 0.0090387076    130.62373  0.029835182 
number of iterations: 2248 
   30200    80.276319     5892         2402         3490 2.4240394e-12 3.2902432e-13          0.1 0.0090391886    132.35498  0.029834375 
number of iterations: 2234 
   30300    80.541112     5974         2432         3542 2.455182e-12 3.345124e-13          0.1 0.0090396887    134.10793  0.029833536 
number of iterations: 2265 
   30400    80.813333     6072         2462         3610 2.487718e-12 3.4009406e-13          0.1 0.0090402291    135.88361  0.029832629 
number of iterations: 2244 
   30500    81.118951     6155         2496         3659 2.5206852e-12 3.457709e-13          0.1 0.0090407997     137.6823  0.029831673 
number of iterations: 2228 
   30600    81.382971     6255         2523         3732 2.5540892e-12 3.5154456e-13          0.1 0.0090413062     139.5043  0.029830823 
number of iterations: 2241 
   30700    81.658097     6342         2559         3783 2.5879359e-12 3.5741668e-13          0.1 0.0090418748    141.34991  0.029829869 
number of iterations: 2256 
   30800    81.961754     6439         2590         3849 2.6222311e-12 3.6338896e-13          0.1 0.0090424067    143.21944  0.029828977 
number of iterations: 2234 
   30900    82.211075     6536         2626         3910 2.6560619e-12 3.6946312e-13          0.1 0.0090429685    145.11249  0.029828034 
number of iterations: 2305 
   31000    82.509461     6641         2664         3977 2.6902533e-12 3.7554009e-13          0.1 0.0090435186    147.02933  0.029827111 
number of iterations: 2263 
   31100    82.780468     6752         2702         4050 2.7259044e-12 3.8182157e-13          0.1 0.0090441182    148.97101  0.029826105 
number of iterations: 2260 
   31200    83.114825     6843         2735         4108 2.7595266e-12 3.8821023e-13          0.1 0.0090447007    150.93592  0.029825128 
number of iterations: 2212 
   31300    83.442706     6965         2772         4193 2.794978e-12 3.9470789e-13          0.1 0.0090452551    152.92543  0.029824198 
number of iterations: 2229 
   31400    83.802438     7053         2797         4256 2.8320169e-12 4.0131643e-13          0.1 0.0090457808    154.94069  0.029823315 
number of iterations: 2283 
   31500    84.071919     7139         2818         4321 2.867006e-12 4.0803772e-13          0.1  0.009046364    156.98012  0.029822337 
number of iterations: 2227 
   31600    84.324063     7250         2855         4395 2.9049993e-12 4.1487373e-13          0.1 0.0090469064    159.04595  0.029821426 
number of iterations: 2298 
   31700    84.602905     7360         2892         4468 2.9434962e-12 4.2182641e-13          0.1 0.0090475508    161.13852  0.029820345 
number of iterations: 2272 
   31800    84.877525     7473         2931         4542 2.9825031e-12 4.2889777e-13          0.1 0.0090481806    163.25818  0.029819288 
number of iterations: 2287 
   31900    85.150456     7583         2965         4618 3.022027e-12 4.3608982e-13          0.1 0.0090488411    165.40527   0.02981818 
number of iterations: 2303 
   32000    85.476579     7695         2999         4696 3.0595648e-12 4.4340463e-13          0.1  0.009049479    167.57825   0.02981711 
number of iterations: 2305 
   32100    85.738148     7804         3035         4769 3.0989201e-12 4.508443e-13          0.1 0.0090501136    169.77843  0.029816045 
number of iterations: 2262 
   32200    86.018517     7936         3082         4854 3.138551e-12  4.58411e-13          0.1 0.0090507655    172.00598   0.02981495 
number of iterations: 2277 
   32300    86.312687     8049         3115         4934 3.1788737e-12 4.6603572e-13          0.1   0.00905139    174.26142  0.029813902 
number of iterations: 2277 
   32400    86.580746     8191         3162         5029 3.2196631e-12 4.7377812e-13          0.1 0.0090520267    176.54504  0.029812833 
number of iterations: 2323 
   32500    86.865768     8312         3205         5107 3.2616012e-12 4.8173644e-13          0.1 0.0090527399    178.85764  0.029811636 
number of iterations: 2305 
   32600    87.165418     8423         3236         5187 3.3026133e-12 4.8983067e-13          0.1 0.0090534192    181.19846  0.029810496 
number of iterations: 2327 
   32700    87.442563     8545         3274         5271 3.3444591e-12 4.9806312e-13          0.1 0.0090541019    183.56808  0.029809349 
number of iterations: 2328 
   32800    87.717506     8667         3322         5345 3.3887795e-12 5.0643618e-13          0.1 0.0090548313    185.96834  0.029808126 
number of iterations: 2326 
   32900    88.035742     8791         3360         5431 3.4336872e-12 5.1484207e-13          0.1 0.0090556007    188.39968  0.029806835 
number of iterations: 2279 
   33000    88.297558     8935         3421         5514  3.47919e-12 5.2350178e-13          0.1  0.009056313    190.86245  0.029805639 
number of iterations: 2316 
   33100    88.589427     9086         3472         5614 3.5244637e-12 5.3230941e-13          0.1 0.0090570205    193.35641   0.02980445 
number of iterations: 2339 
   33200    88.904423     9241         3524         5717 3.5700435e-12 5.4114399e-13          0.1 0.0090578016    195.88182  0.029803139 
number of iterations: 2297 
   33300    89.193261     9380         3574         5806 3.6160024e-12 5.5025304e-13          0.1 0.0090585067    198.43882  0.029801955 
number of iterations: 2326 
   33400    89.488352     9546         3634         5912 3.6639212e-12 5.5951773e-13          0.1 0.0090592911    201.02885  0.029800639 
number of iterations: 2305 
   33500    89.769237     9705         3676         6029 3.7113991e-12 5.6894072e-13          0.1 0.0090599483    203.65153  0.029799533 
number of iterations: 2313 
   33600    90.066775     9843         3721         6122 3.760582e-12 5.7852474e-13          0.1 0.0090607365    206.30808   0.02979821 
number of iterations: 2325 
   33700    90.405013     9984         3758         6226 3.8104168e-12 5.8827255e-13          0.1 0.0090615224    208.99893  0.029796891 
number of iterations: 2327 
   33800    90.696505    10129         3805         6324 3.8595734e-12 5.9818696e-13          0.1  0.009062305    211.72351  0.029795576 
number of iterations: 2345 
   33900    91.033328    10276         3856         6420 3.9096752e-12 6.0827082e-13          0.1 0.0090630725    214.48247  0.029794286 
number of iterations: 2339 
   34000    91.339636    10448         3909         6539 3.9604236e-12 6.1852703e-13          0.1 0.0090638605    217.27623  0.029792962 
number of iterations: 2328 
   34100    91.626535    10607         3955         6652 4.0129065e-12  6.28846e-13          0.1 0.0090646909    220.10611  0.029791567 
number of iterations: 2334 
   34200    91.954429    10769         4007         6762 4.066085e-12 6.3945397e-13          0.1 0.0090655518    222.97252  0.029790122 
number of iterations: 2360 
   34300    92.276065    10927         4056         6871 4.1199681e-12 6.5024329e-13          0.1 0.0090664344    225.87593   0.02978864 
number of iterations: 2322 
   34400    92.593207    11102         4107         6995 4.173487e-12 6.6121705e-13          0.1  0.009067215      228.816  0.029787327 
number of iterations: 2358 
   34500    92.910465    11272         4154         7118 4.2237196e-12 6.7226233e-13          0.1 0.0090679931     231.7902  0.029786019 
number of iterations: 2339 
   34600     93.26415    11464         4207         7257 4.2796917e-12 6.8361253e-13          0.1 0.0090688762    234.80278  0.029784535 
number of iterations: 2378 
   34700    93.641078    11641         4266         7375 4.3345356e-12 6.9473853e-13          0.1 0.0090697783    237.85295   0.02978302 
number of iterations: 2334 
   34800     94.01876    11837         4335         7502 4.3895581e-12 7.0647317e-13          0.1 0.0090706694    240.94061  0.029781523 
number of iterations: 2387 
   34900    94.332158    12017         4390         7627 4.4436945e-12 7.1829008e-13          0.1 0.0090715857    244.06506  0.029779984 
number of iterations: 2347 
   35000    94.630024    12195         4449         7746 4.5014948e-12 7.3042754e-13          0.1 0.0090724814    247.22895  0.029778479 
Loop time of 94.6301 on 32 procs for 35000 steps with 12195 atoms

Performance: 319560178.122 tau/day, 369.861 timesteps/s
91.7% CPU use with 32 MPI tasks x no OpenMP threads

MPI task timing breakdown:
Section |  min time  |  avg time  |  max time  |%varavg| %total
---------------------------------------------------------------
Pair    | 0.019296   | 0.1643     | 0.32365    |  18.7 |  0.17
Neigh   | 0.0087806  | 0.064399   | 0.13681    |  12.0 |  0.07
Comm    | 0.063864   | 0.25706    | 0.4223     |  17.6 |  0.27
Output  | 23.819     | 23.819     | 23.827     |   0.0 | 25.17
Modify  | 69.704     | 69.794     | 69.876     |   0.5 | 73.75
Other   |            | 0.5316     |            |       |  0.56

Nlocal:    381.094 ave 734 max 68 min
Histogram: 4 2 3 0 6 5 9 2 0 1
Nghost:    216.031 ave 513 max 16 min
Histogram: 3 4 5 6 4 3 1 4 1 1
Neighs:    1940.88 ave 4007 max 279 min
Histogram: 4 3 2 3 6 4 7 2 0 1

Total # of neighbors = 62108
Ave neighs/atom = 5.09291
Neighbor list builds = 665
Dangerous builds = 0
Total wall time: 0:01:34
