ITEM: TIMESTEP
0
ITEM: NUMBER OF ATOMS
50
ITEM: BOX BOUNDS ff ff ff
0.0000000000000000e+00 1.0000000000000000e-04
0.0000000000000000e+00 1.0000000000000000e-04
0.0000000000000000e+00 5.0000000000000002e-05
ITEM: ATOMS id type diameter x y z 
18 1 1.92e-06 4.56e-05 2e-05 1.97e-06 
4 1 1.91e-06 3.65e-05 1.4e-05 1.04e-05 
32 1 1.75e-06 3.88e-05 1.34e-05 1.57e-05 
33 1 1.5e-06 2.69e-05 2.58e-05 1.66e-05 
25 1 1.38e-06 3.03e-05 2.85e-05 2.33e-05 
37 1 1.74e-06 3.54e-05 2.36e-05 2.58e-05 
44 1 1.93e-06 3.67e-05 5.34e-06 2.91e-05 
43 1 1.81e-06 3.2e-05 5.02e-06 3.46e-05 
41 1 1.63e-06 3.11e-05 3.64e-05 4.05e-05 
13 1 1.91e-06 1.55e-05 1.24e-05 4.45e-05 
5 1 1.46e-06 3.01e-05 8.2e-06 4.52e-05 
8 1 1.41e-06 7.24e-06 3.73e-05 4.53e-05 
34 1 1.4e-06 2.46e-05 4.21e-05 4.61e-05 
16 1 1.65e-06 1.61e-05 6.86e-05 2.52e-06 
3 1 1.89e-06 1.5e-05 7.2e-05 5.55e-06 
50 1 1.85e-06 3.26e-05 5.32e-05 9.23e-06 
39 1 1.7e-06 9.64e-06 7.61e-05 1.32e-05 
29 1 1.83e-06 3.51e-05 5.09e-05 1.55e-05 
24 1 1.78e-06 4.55e-05 7.54e-05 1.62e-05 
47 1 1.7e-06 2.33e-05 8.54e-05 2.24e-05 
12 1 1.71e-06 2.96e-05 9.65e-05 2.35e-05 
9 1 1.68e-06 2.59e-05 6.23e-05 3.26e-05 
1 1 1.77e-06 3.66e-06 5.04e-05 3.31e-05 
23 1 1.79e-06 7.45e-06 8.37e-05 3.48e-05 
14 1 1.92e-06 2.57e-05 7.36e-05 4.08e-05 
45 1 1.87e-06 4.44e-05 5.48e-05 4.48e-05 
10 1 1.6e-06 1.96e-05 5.87e-05 4.56e-05 
38 1 1.73e-06 8.9e-06 6.33e-05 4.57e-05 
28 1 1.42e-06 6.48e-05 3.2e-05 2.1e-06 
46 1 1.89e-06 6.46e-05 4.41e-05 1.14e-05 
48 1 1.44e-06 6.43e-05 3.37e-05 1.56e-05 
40 1 1.9e-06 5.54e-05 2.13e-05 2.44e-05 
49 1 1.49e-06 5.92e-05 2.19e-05 2.7e-05 
26 1 1.89e-06 5.27e-05 4.04e-05 2.93e-05 
19 1 1.69e-06 9.6e-05 1.17e-05 3.19e-05 
36 1 1.5e-06 5.41e-05 1.31e-05 3.71e-05 
42 1 1.65e-06 7.01e-05 3.61e-05 3.84e-05 
20 1 1.42e-06 7.49e-05 2.78e-05 4.77e-05 
2 1 1.71e-06 7.58e-05 9.71e-05 3.13e-06 
22 1 1.8e-06 5.75e-05 7.45e-05 8.96e-06 
11 1 1.57e-06 7.52e-05 7.8e-05 8.97e-06 
7 1 1.59e-06 8.19e-05 6.73e-05 1.04e-05 
15 1 1.76e-06 9.15e-05 8.89e-05 1.5e-05 
27 1 1.88e-06 5.71e-05 5.4e-05 1.66e-05 
35 1 1.49e-06 6.9e-05 8.82e-05 2.2e-05 
30 1 1.56e-06 9.65e-05 9.19e-05 2.19e-05 
31 1 1.59e-06 8.13e-05 6.44e-05 2.52e-05 
6 1 1.56e-06 5.75e-05 8.42e-05 2.63e-05 
21 1 1.54e-06 6.43e-05 7.42e-05 3.9e-05 
17 1 1.67e-06 7.36e-05 5.11e-05 4.34e-05 
ITEM: TIMESTEP
100
ITEM: NUMBER OF ATOMS
50
ITEM: BOX BOUNDS ff ff ff
0.0000000000000000e+00 1.0000000000000000e-04
0.0000000000000000e+00 1.0000000000000000e-04
0.0000000000000000e+00 5.0000000000000002e-05
ITEM: ATOMS id type diameter x y z 
18 1 1.9306e-06 4.56e-05 2e-05 1.97e-06 
4 1 1.92054e-06 3.65e-05 1.4e-05 1.04e-05 
32 1 1.75966e-06 3.88e-05 1.34e-05 1.57e-05 
33 1 1.50828e-06 2.69e-05 2.58e-05 1.66e-05 
25 1 1.38762e-06 3.03e-05 2.85e-05 2.33e-05 
37 1 1.7496e-06 3.54e-05 2.36e-05 2.58e-05 
44 1 1.94065e-06 3.67e-05 5.34e-06 2.91e-05 
43 1 1.81999e-06 3.2e-05 5.02e-06 3.46e-05 
41 1 1.639e-06 3.11e-05 3.64e-05 4.05e-05 
13 1 1.92054e-06 1.55e-05 1.24e-05 4.45e-05 
5 1 1.46806e-06 3.01e-05 8.2e-06 4.52e-05 
8 1 1.41778e-06 7.24e-06 3.73e-05 4.53e-05 
34 1 1.40773e-06 2.46e-05 4.21e-05 4.61e-05 
16 1 1.65911e-06 1.61e-05 6.86e-05 2.52e-06 
3 1 1.90043e-06 1.5e-05 7.2e-05 5.55e-06 
50 1 1.86021e-06 3.26e-05 5.32e-05 9.23e-06 
39 1 1.70938e-06 9.64e-06 7.61e-05 1.32e-05 
29 1 1.8401e-06 3.51e-05 5.09e-05 1.55e-05 
24 1 1.78982e-06 4.55e-05 7.54e-05 1.62e-05 
47 1 1.70938e-06 2.33e-05 8.54e-05 2.24e-05 
12 1 1.71944e-06 2.96e-05 9.65e-05 2.35e-05 
9 1 1.68927e-06 2.59e-05 6.23e-05 3.26e-05 
1 1 1.77977e-06 3.66e-06 5.04e-05 3.31e-05 
23 1 1.79988e-06 7.45e-06 8.37e-05 3.48e-05 
14 1 1.9306e-06 2.57e-05 7.36e-05 4.08e-05 
45 1 1.88032e-06 4.44e-05 5.48e-05 4.48e-05 
10 1 1.60883e-06 1.96e-05 5.87e-05 4.56e-05 
38 1 1.73955e-06 8.9e-06 6.33e-05 4.57e-05 
28 1 1.42784e-06 6.48e-05 3.2e-05 2.1e-06 
46 1 1.90043e-06 6.46e-05 4.41e-05 1.14e-05 
48 1 1.44795e-06 6.43e-05 3.37e-05 1.56e-05 
40 1 1.91049e-06 5.54e-05 2.13e-05 2.44e-05 
49 1 1.49822e-06 5.92e-05 2.19e-05 2.7e-05 
26 1 1.90043e-06 5.27e-05 4.04e-05 2.93e-05 
19 1 1.69933e-06 9.6e-05 1.17e-05 3.19e-05 
36 1 1.50828e-06 5.41e-05 1.31e-05 3.71e-05 
42 1 1.65911e-06 7.01e-05 3.61e-05 3.84e-05 
20 1 1.42784e-06 7.49e-05 2.78e-05 4.77e-05 
2 1 1.71944e-06 7.58e-05 9.71e-05 3.13e-06 
22 1 1.80994e-06 5.75e-05 7.45e-05 8.96e-06 
11 1 1.57867e-06 7.52e-05 7.8e-05 8.97e-06 
7 1 1.59878e-06 8.19e-05 6.73e-05 1.04e-05 
15 1 1.76971e-06 9.15e-05 8.89e-05 1.5e-05 
27 1 1.89038e-06 5.71e-05 5.4e-05 1.66e-05 
35 1 1.49822e-06 6.9e-05 8.82e-05 2.2e-05 
30 1 1.56861e-06 9.65e-05 9.19e-05 2.19e-05 
31 1 1.59878e-06 8.13e-05 6.44e-05 2.52e-05 
6 1 1.56861e-06 5.75e-05 8.42e-05 2.63e-05 
21 1 1.5485e-06 6.43e-05 7.42e-05 3.9e-05 
17 1 1.67922e-06 7.36e-05 5.11e-05 4.34e-05 
ITEM: TIMESTEP
200
ITEM: NUMBER OF ATOMS
50
ITEM: BOX BOUNDS ff ff ff
0.0000000000000000e+00 1.0000000000000000e-04
0.0000000000000000e+00 1.0000000000000000e-04
0.0000000000000000e+00 5.0000000000000002e-05
ITEM: ATOMS id type diameter x y z 
18 1 1.94125e-06 4.56e-05 2e-05 1.97e-06 
4 1 1.93114e-06 3.65e-05 1.4e-05 1.04e-05 
32 1 1.76937e-06 3.88e-05 1.34e-05 1.57e-05 
33 1 1.5166e-06 2.69e-05 2.58e-05 1.66e-05 
25 1 1.39528e-06 3.03e-05 2.85e-05 2.33e-05 
37 1 1.75926e-06 3.54e-05 2.36e-05 2.58e-05 
44 1 1.95136e-06 3.67e-05 5.34e-06 2.91e-05 
43 1 1.83004e-06 3.2e-05 5.02e-06 3.46e-05 
41 1 1.64804e-06 3.11e-05 3.64e-05 4.05e-05 
13 1 1.93114e-06 1.55e-05 1.24e-05 4.45e-05 
5 1 1.47616e-06 3.01e-05 8.2e-06 4.52e-05 
8 1 1.42561e-06 7.24e-06 3.73e-05 4.53e-05 
34 1 1.4155e-06 2.46e-05 4.21e-05 4.61e-05 
16 1 1.66826e-06 1.61e-05 6.86e-05 2.52e-06 
3 1 1.91092e-06 1.5e-05 7.2e-05 5.55e-06 
50 1 1.87048e-06 3.26e-05 5.32e-05 9.23e-06 
39 1 1.71882e-06 9.64e-06 7.61e-05 1.32e-05 
29 1 1.85026e-06 3.51e-05 5.09e-05 1.55e-05 
24 1 1.7997e-06 4.55e-05 7.54e-05 1.62e-05 
47 1 1.71882e-06 2.33e-05 8.54e-05 2.24e-05 
12 1 1.72893e-06 2.96e-05 9.65e-05 2.35e-05 
9 1 1.6986e-06 2.59e-05 6.23e-05 3.26e-05 
1 1 1.78959e-06 3.66e-06 5.04e-05 3.31e-05 
23 1 1.80981e-06 7.45e-06 8.37e-05 3.48e-05 
14 1 1.94125e-06 2.57e-05 7.36e-05 4.08e-05 
45 1 1.8907e-06 4.44e-05 5.48e-05 4.48e-05 
10 1 1.61771e-06 1.96e-05 5.87e-05 4.56e-05 
38 1 1.74915e-06 8.9e-06 6.33e-05 4.57e-05 
28 1 1.43572e-06 6.48e-05 3.2e-05 2.1e-06 
46 1 1.91092e-06 6.46e-05 4.41e-05 1.14e-05 
48 1 1.45594e-06 6.43e-05 3.37e-05 1.56e-05 
40 1 1.92103e-06 5.54e-05 2.13e-05 2.44e-05 
49 1 1.50649e-06 5.92e-05 2.19e-05 2.7e-05 
26 1 1.91092e-06 5.27e-05 4.04e-05 2.93e-05 
19 1 1.70871e-06 9.6e-05 1.17e-05 3.19e-05 
36 1 1.5166e-06 5.41e-05 1.31e-05 3.71e-05 
42 1 1.66826e-06 7.01e-05 3.61e-05 3.84e-05 
20 1 1.43572e-06 7.49e-05 2.78e-05 4.77e-05 
2 1 1.72893e-06 7.58e-05 9.71e-05 3.13e-06 
22 1 1.81992e-06 5.75e-05 7.45e-05 8.96e-06 
11 1 1.58738e-06 7.52e-05 7.8e-05 8.97e-06 
7 1 1.6076e-06 8.19e-05 6.73e-05 1.04e-05 
15 1 1.77948e-06 9.15e-05 8.89e-05 1.5e-05 
27 1 1.90081e-06 5.71e-05 5.4e-05 1.66e-05 
35 1 1.50649e-06 6.9e-05 8.82e-05 2.2e-05 
30 1 1.57727e-06 9.65e-05 9.19e-05 2.19e-05 
31 1 1.6076e-06 8.13e-05 6.44e-05 2.52e-05 
6 1 1.57727e-06 5.75e-05 8.42e-05 2.63e-05 
21 1 1.55705e-06 6.43e-05 7.42e-05 3.9e-05 
17 1 1.68849e-06 7.36e-05 5.11e-05 4.34e-05 
ITEM: TIMESTEP
300
ITEM: NUMBER OF ATOMS
50
ITEM: BOX BOUNDS ff ff ff
0.0000000000000000e+00 1.0000000000000000e-04
0.0000000000000000e+00 1.0000000000000000e-04
0.0000000000000000e+00 5.0000000000000002e-05
ITEM: ATOMS id type diameter x y z 
18 1 1.95197e-06 4.56e-05 2e-05 1.97e-06 
4 1 1.9418e-06 3.65e-05 1.4e-05 1.04e-05 
32 1 1.77914e-06 3.88e-05 1.34e-05 1.57e-05 
33 1 1.52497e-06 2.69e-05 2.58e-05 1.66e-05 
25 1 1.40298e-06 3.03e-05 2.85e-05 2.33e-05 
37 1 1.76897e-06 3.54e-05 2.36e-05 2.58e-05 
44 1 1.96213e-06 3.67e-05 5.34e-06 2.91e-05 
43 1 1.84014e-06 3.2e-05 5.02e-06 3.46e-05 
41 1 1.65714e-06 3.11e-05 3.64e-05 4.05e-05 
13 1 1.9418e-06 1.55e-05 1.24e-05 4.45e-05 
5 1 1.48431e-06 3.01e-05 8.2e-06 4.52e-05 
8 1 1.43348e-06 7.24e-06 3.73e-05 4.53e-05 
34 1 1.42331e-06 2.46e-05 4.21e-05 4.61e-05 
16 1 1.67747e-06 1.61e-05 6.86e-05 2.52e-06 
3 1 1.92147e-06 1.5e-05 7.2e-05 5.55e-06 
50 1 1.8808e-06 3.26e-05 5.32e-05 9.23e-06 
39 1 1.7283e-06 9.64e-06 7.61e-05 1.32e-05 
29 1 1.86047e-06 3.51e-05 5.09e-05 1.55e-05 
24 1 1.80964e-06 4.55e-05 7.54e-05 1.62e-05 
47 1 1.7283e-06 2.33e-05 8.54e-05 2.24e-05 
12 1 1.73847e-06 2.96e-05 9.65e-05 2.35e-05 
9 1 1.70797e-06 2.59e-05 6.23e-05 3.26e-05 
1 1 1.79947e-06 3.66e-06 5.04e-05 3.31e-05 
23 1 1.8198e-06 7.45e-06 8.37e-05 3.48e-05 
14 1 1.95197e-06 2.57e-05 7.36e-05 4.08e-05 
45 1 1.90114e-06 4.44e-05 5.48e-05 4.48e-05 
10 1 1.62664e-06 1.96e-05 5.87e-05 4.56e-05 
38 1 1.7588e-06 8.9e-06 6.33e-05 4.57e-05 
28 1 1.44364e-06 6.48e-05 3.2e-05 2.1e-06 
46 1 1.92147e-06 6.46e-05 4.41e-05 1.14e-05 
48 1 1.46398e-06 6.43e-05 3.37e-05 1.56e-05 
40 1 1.93163e-06 5.54e-05 2.13e-05 2.44e-05 
49 1 1.51481e-06 5.92e-05 2.19e-05 2.7e-05 
26 1 1.92147e-06 5.27e-05 4.04e-05 2.93e-05 
19 1 1.71814e-06 9.6e-05 1.17e-05 3.19e-05 
36 1 1.52497e-06 5.41e-05 1.31e-05 3.71e-05 
42 1 1.67747e-06 7.01e-05 3.61e-05 3.84e-05 
20 1 1.44364e-06 7.49e-05 2.78e-05 4.77e-05 
2 1 1.73847e-06 7.58e-05 9.71e-05 3.13e-06 
22 1 1.82997e-06 5.75e-05 7.45e-05 8.96e-06 
11 1 1.59614e-06 7.52e-05 7.8e-05 8.97e-06 
7 1 1.61647e-06 8.19e-05 6.73e-05 1.04e-05 
15 1 1.7893e-06 9.15e-05 8.89e-05 1.5e-05 
27 1 1.9113e-06 5.71e-05 5.4e-05 1.66e-05 
35 1 1.51481e-06 6.9e-05 8.82e-05 2.2e-05 
30 1 1.58597e-06 9.65e-05 9.19e-05 2.19e-05 
31 1 1.61647e-06 8.13e-05 6.44e-05 2.52e-05 
6 1 1.58597e-06 5.75e-05 8.42e-05 2.63e-05 
21 1 1.56564e-06 6.43e-05 7.42e-05 3.9e-05 
17 1 1.69781e-06 7.36e-05 5.11e-05 4.34e-05 
ITEM: TIMESTEP
400
ITEM: NUMBER OF ATOMS
51
ITEM: BOX BOUNDS ff ff ff
0.0000000000000000e+00 1.0000000000000000e-04
0.0000000000000000e+00 1.0000000000000000e-04
0.0000000000000000e+00 5.0000000000000002e-05
ITEM: ATOMS id type diameter x y z 
18 1 1.96274e-06 4.56e-05 2e-05 1.97e-06 
4 1 1.95252e-06 3.65e-05 1.4e-05 1.04e-05 
32 1 1.78896e-06 3.88e-05 1.34e-05 1.57e-05 
33 1 1.53339e-06 2.69e-05 2.58e-05 1.66e-05 
25 1 1.41072e-06 3.03e-05 2.85e-05 2.33e-05 
37 1 1.77873e-06 3.54e-05 2.36e-05 2.58e-05 
44 1 1.57987e-06 3.6225e-05 5.75858e-06 2.95717e-05 
43 1 1.85029e-06 3.2e-05 5.02e-06 3.46e-05 
41 1 1.66629e-06 3.11e-05 3.64e-05 4.05e-05 
13 1 1.95252e-06 1.55e-05 1.24e-05 4.45e-05 
5 1 1.4925e-06 3.01e-05 8.2e-06 4.52e-05 
8 1 1.44139e-06 7.24e-06 3.73e-05 4.53e-05 
34 1 1.43117e-06 2.46e-05 4.21e-05 4.61e-05 
51 1 1.55177e-06 3.71666e-05 4.92887e-06 2.86367e-05 
16 1 1.68673e-06 1.61e-05 6.86e-05 2.52e-06 
3 1 1.93207e-06 1.5e-05 7.2e-05 5.55e-06 
50 1 1.89118e-06 3.26e-05 5.32e-05 9.23e-06 
39 1 1.73784e-06 9.64e-06 7.61e-05 1.32e-05 
29 1 1.87074e-06 3.51e-05 5.09e-05 1.55e-05 
24 1 1.81963e-06 4.55e-05 7.54e-05 1.62e-05 
47 1 1.73784e-06 2.33e-05 8.54e-05 2.24e-05 
12 1 1.74807e-06 2.96e-05 9.65e-05 2.35e-05 
9 1 1.7174e-06 2.59e-05 6.23e-05 3.26e-05 
1 1 1.8094e-06 3.66e-06 5.04e-05 3.31e-05 
23 1 1.82985e-06 7.45e-06 8.37e-05 3.48e-05 
14 1 1.96274e-06 2.57e-05 7.36e-05 4.08e-05 
45 1 1.91163e-06 4.44e-05 5.48e-05 4.48e-05 
10 1 1.63562e-06 1.96e-05 5.87e-05 4.56e-05 
38 1 1.76851e-06 8.9e-06 6.33e-05 4.57e-05 
28 1 1.45161e-06 6.48e-05 3.2e-05 2.1e-06 
46 1 1.93207e-06 6.46e-05 4.41e-05 1.14e-05 
48 1 1.47206e-06 6.43e-05 3.37e-05 1.56e-05 
40 1 1.9423e-06 5.54e-05 2.13e-05 2.44e-05 
49 1 1.52317e-06 5.92e-05 2.19e-05 2.7e-05 
26 1 1.93207e-06 5.27e-05 4.04e-05 2.93e-05 
19 1 1.72762e-06 9.6e-05 1.17e-05 3.19e-05 
36 1 1.53339e-06 5.41e-05 1.31e-05 3.71e-05 
42 1 1.68673e-06 7.01e-05 3.61e-05 3.84e-05 
20 1 1.45161e-06 7.49e-05 2.78e-05 4.77e-05 
2 1 1.74807e-06 7.58e-05 9.71e-05 3.13e-06 
22 1 1.84007e-06 5.75e-05 7.45e-05 8.96e-06 
11 1 1.60495e-06 7.52e-05 7.8e-05 8.97e-06 
7 1 1.6254e-06 8.19e-05 6.73e-05 1.04e-05 
15 1 1.79918e-06 9.15e-05 8.89e-05 1.5e-05 
27 1 1.92185e-06 5.71e-05 5.4e-05 1.66e-05 
35 1 1.52317e-06 6.9e-05 8.82e-05 2.2e-05 
30 1 1.59473e-06 9.65e-05 9.19e-05 2.19e-05 
31 1 1.6254e-06 8.13e-05 6.44e-05 2.52e-05 
6 1 1.59473e-06 5.75e-05 8.42e-05 2.63e-05 
21 1 1.57428e-06 6.43e-05 7.42e-05 3.9e-05 
17 1 1.70718e-06 7.36e-05 5.11e-05 4.34e-05 
ITEM: TIMESTEP
500
ITEM: NUMBER OF ATOMS
53
ITEM: BOX BOUNDS ff ff ff
0.0000000000000000e+00 1.0000000000000000e-04
0.0000000000000000e+00 1.0000000000000000e-04
0.0000000000000000e+00 5.0000000000000002e-05
ITEM: ATOMS id type diameter x y z 
18 1 1.58036e-06 4.51249e-05 2.04187e-05 2.44186e-06 
4 1 1.9633e-06 3.65e-05 1.4e-05 1.04e-05 
32 1 1.79883e-06 3.88e-05 1.34e-05 1.57e-05 
33 1 1.54186e-06 2.69e-05 2.58e-05 1.66e-05 
52 1 1.55225e-06 4.60667e-05 1.95887e-05 1.50653e-06 
25 1 1.41851e-06 3.03e-05 2.85e-05 2.33e-05 
37 1 1.78855e-06 3.54e-05 2.36e-05 2.58e-05 
44 1 1.58859e-06 3.6225e-05 5.75858e-06 2.95717e-05 
43 1 1.86051e-06 3.2e-05 5.02e-06 3.46e-05 
41 1 1.67548e-06 3.11e-05 3.64e-05 4.05e-05 
13 1 1.9633e-06 1.55e-05 1.24e-05 4.45e-05 
5 1 1.50074e-06 3.01e-05 8.2e-06 4.52e-05 
8 1 1.44934e-06 7.24e-06 3.73e-05 4.53e-05 
34 1 1.43907e-06 2.46e-05 4.21e-05 4.61e-05 
51 1 1.56033e-06 3.71666e-05 4.92887e-06 2.86367e-05 
16 1 1.69604e-06 1.61e-05 6.86e-05 2.52e-06 
3 1 1.94274e-06 1.5e-05 7.2e-05 5.55e-06 
50 1 1.90162e-06 3.26e-05 5.32e-05 9.23e-06 
39 1 1.74744e-06 9.64e-06 7.61e-05 1.32e-05 
29 1 1.88106e-06 3.51e-05 5.09e-05 1.55e-05 
24 1 1.82967e-06 4.55e-05 7.54e-05 1.62e-05 
47 1 1.74744e-06 2.33e-05 8.54e-05 2.24e-05 
12 1 1.75772e-06 2.96e-05 9.65e-05 2.35e-05 
9 1 1.72688e-06 2.59e-05 6.23e-05 3.26e-05 
1 1 1.81939e-06 3.66e-06 5.04e-05 3.31e-05 
23 1 1.83995e-06 7.45e-06 8.37e-05 3.48e-05 
14 1 1.58036e-06 2.52249e-05 7.40187e-05 4.12719e-05 
45 1 1.92218e-06 4.44e-05 5.48e-05 4.48e-05 
10 1 1.64465e-06 1.96e-05 5.87e-05 4.56e-05 
38 1 1.77827e-06 8.9e-06 6.33e-05 4.57e-05 
53 1 1.55225e-06 2.61667e-05 7.31887e-05 4.03365e-05 
28 1 1.45962e-06 6.48e-05 3.2e-05 2.1e-06 
46 1 1.94274e-06 6.46e-05 4.41e-05 1.14e-05 
48 1 1.48018e-06 6.43e-05 3.37e-05 1.56e-05 
40 1 1.95302e-06 5.54e-05 2.13e-05 2.44e-05 
49 1 1.53158e-06 5.92e-05 2.19e-05 2.7e-05 
26 1 1.94274e-06 5.27e-05 4.04e-05 2.93e-05 
19 1 1.73716e-06 9.6e-05 1.17e-05 3.19e-05 
36 1 1.54186e-06 5.41e-05 1.31e-05 3.71e-05 
42 1 1.69604e-06 7.01e-05 3.61e-05 3.84e-05 
20 1 1.45962e-06 7.49e-05 2.78e-05 4.77e-05 
2 1 1.75772e-06 7.58e-05 9.71e-05 3.13e-06 
22 1 1.85023e-06 5.75e-05 7.45e-05 8.96e-06 
11 1 1.61381e-06 7.52e-05 7.8e-05 8.97e-06 
7 1 1.63437e-06 8.19e-05 6.73e-05 1.04e-05 
15 1 1.80911e-06 9.15e-05 8.89e-05 1.5e-05 
27 1 1.93246e-06 5.71e-05 5.4e-05 1.66e-05 
35 1 1.53158e-06 6.9e-05 8.82e-05 2.2e-05 
30 1 1.60353e-06 9.65e-05 9.19e-05 2.19e-05 
31 1 1.63437e-06 8.13e-05 6.44e-05 2.52e-05 
6 1 1.60353e-06 5.75e-05 8.42e-05 2.63e-05 
21 1 1.58297e-06 6.43e-05 7.42e-05 3.9e-05 
17 1 1.7166e-06 7.36e-05 5.11e-05 4.34e-05 
ITEM: TIMESTEP
600
ITEM: NUMBER OF ATOMS
55
ITEM: BOX BOUNDS ff ff ff
0.0000000000000000e+00 1.0000000000000000e-04
0.0000000000000000e+00 1.0000000000000000e-04
0.0000000000000000e+00 5.0000000000000002e-05
ITEM: ATOMS id type diameter x y z 
18 1 1.58908e-06 4.51249e-05 2.04187e-05 2.44186e-06 
4 1 1.62645e-06 3.65775e-05 1.40566e-05 1.12071e-05 
32 1 1.80876e-06 3.88e-05 1.34e-05 1.57e-05 
33 1 1.55037e-06 2.69e-05 2.58e-05 1.66e-05 
52 1 1.56081e-06 4.60667e-05 1.95887e-05 1.50653e-06 
54 1 1.50238e-06 3.64284e-05 1.39477e-05 9.65445e-06 
25 1 1.42634e-06 3.03e-05 2.85e-05 2.33e-05 
37 1 1.79842e-06 3.54e-05 2.36e-05 2.58e-05 
44 1 1.59736e-06 3.6225e-05 5.75858e-06 2.95717e-05 
43 1 1.87077e-06 3.2e-05 5.02e-06 3.46e-05 
41 1 1.68473e-06 3.11e-05 3.64e-05 4.05e-05 
13 1 1.62645e-06 1.55775e-05 1.24566e-05 4.53071e-05 
5 1 1.50902e-06 3.01e-05 8.2e-06 4.52e-05 
8 1 1.45734e-06 7.24e-06 3.73e-05 4.53e-05 
34 1 1.44701e-06 2.46e-05 4.21e-05 4.61e-05 
51 1 1.56894e-06 3.71666e-05 4.92887e-06 2.86367e-05 
55 1 1.50238e-06 1.54284e-05 1.23477e-05 4.37544e-05 
16 1 1.7054e-06 1.61e-05 6.86e-05 2.52e-06 
3 1 1.95346e-06 1.5e-05 7.2e-05 5.55e-06 
50 1 1.91212e-06 3.26e-05 5.32e-05 9.23e-06 
39 1 1.75708e-06 9.64e-06 7.61e-05 1.32e-05 
29 1 1.89145e-06 3.51e-05 5.09e-05 1.55e-05 
24 1 1.83977e-06 4.55e-05 7.54e-05 1.62e-05 
47 1 1.75708e-06 2.33e-05 8.54e-05 2.24e-05 
12 1 1.76742e-06 2.96e-05 9.65e-05 2.35e-05 
9 1 1.73641e-06 2.59e-05 6.23e-05 3.26e-05 
1 1 1.82943e-06 3.66e-06 5.04e-05 3.31e-05 
23 1 1.8501e-06 7.45e-06 8.37e-05 3.48e-05 
14 1 1.58908e-06 2.52249e-05 7.40187e-05 4.12719e-05 
45 1 1.93279e-06 4.44e-05 5.48e-05 4.48e-05 
10 1 1.65372e-06 1.96e-05 5.87e-05 4.56e-05 
38 1 1.78809e-06 8.9e-06 6.33e-05 4.57e-05 
53 1 1.56081e-06 2.61667e-05 7.31887e-05 4.03365e-05 
28 1 1.46768e-06 6.48e-05 3.2e-05 2.1e-06 
46 1 1.95346e-06 6.46e-05 4.41e-05 1.14e-05 
48 1 1.48835e-06 6.43e-05 3.37e-05 1.56e-05 
40 1 1.9638e-06 5.54e-05 2.13e-05 2.44e-05 
49 1 1.54003e-06 5.92e-05 2.19e-05 2.7e-05 
26 1 1.95346e-06 5.27e-05 4.04e-05 2.93e-05 
19 1 1.74675e-06 9.6e-05 1.17e-05 3.19e-05 
36 1 1.55037e-06 5.41e-05 1.31e-05 3.71e-05 
42 1 1.7054e-06 7.01e-05 3.61e-05 3.84e-05 
20 1 1.46768e-06 7.49e-05 2.78e-05 4.77e-05 
2 1 1.76742e-06 7.58e-05 9.71e-05 3.13e-06 
22 1 1.86044e-06 5.75e-05 7.45e-05 8.96e-06 
11 1 1.62272e-06 7.52e-05 7.8e-05 8.97e-06 
7 1 1.64339e-06 8.19e-05 6.73e-05 1.04e-05 
15 1 1.8191e-06 9.15e-05 8.89e-05 1.5e-05 
27 1 1.94313e-06 5.71e-05 5.4e-05 1.66e-05 
35 1 1.54003e-06 6.9e-05 8.82e-05 2.2e-05 
30 1 1.61238e-06 9.65e-05 9.19e-05 2.19e-05 
31 1 1.64339e-06 8.13e-05 6.44e-05 2.52e-05 
6 1 1.61238e-06 5.75e-05 8.42e-05 2.63e-05 
21 1 1.59171e-06 6.43e-05 7.42e-05 3.9e-05 
17 1 1.72607e-06 7.36e-05 5.11e-05 4.34e-05 
ITEM: TIMESTEP
700
ITEM: NUMBER OF ATOMS
56
ITEM: BOX BOUNDS ff ff ff
0.0000000000000000e+00 1.0000000000000000e-04
0.0000000000000000e+00 1.0000000000000000e-04
0.0000000000000000e+00 5.0000000000000002e-05
ITEM: ATOMS id type diameter x y z 
18 1 1.59785e-06 4.51249e-05 2.04187e-05 2.44186e-06 
4 1 1.63543e-06 3.65775e-05 1.40566e-05 1.12071e-05 
32 1 1.81874e-06 3.88e-05 1.34e-05 1.57e-05 
33 1 1.55892e-06 2.69e-05 2.58e-05 1.66e-05 
52 1 1.56943e-06 4.60667e-05 1.95887e-05 1.50653e-06 
54 1 1.51067e-06 3.64284e-05 1.39477e-05 9.65445e-06 
25 1 1.43421e-06 3.03e-05 2.85e-05 2.33e-05 
37 1 1.80835e-06 3.54e-05 2.36e-05 2.58e-05 
44 1 1.60617e-06 3.6225e-05 5.75858e-06 2.95717e-05 
43 1 1.8811e-06 3.2e-05 5.02e-06 3.46e-05 
41 1 1.69403e-06 3.11e-05 3.64e-05 4.05e-05 
13 1 1.63543e-06 1.55775e-05 1.24566e-05 4.53071e-05 
5 1 1.51735e-06 3.01e-05 8.2e-06 4.52e-05 
8 1 1.46539e-06 7.24e-06 3.73e-05 4.53e-05 
34 1 1.45499e-06 2.46e-05 4.21e-05 4.61e-05 
51 1 1.5776e-06 3.71666e-05 4.92887e-06 2.86367e-05 
55 1 1.51067e-06 1.54284e-05 1.23477e-05 4.37544e-05 
16 1 1.71482e-06 1.61e-05 6.86e-05 2.52e-06 
3 1 1.96424e-06 1.5e-05 7.2e-05 5.55e-06 
50 1 1.92267e-06 3.26e-05 5.32e-05 9.23e-06 
39 1 1.76678e-06 9.64e-06 7.61e-05 1.32e-05 
29 1 1.90189e-06 3.51e-05 5.09e-05 1.55e-05 
24 1 1.84992e-06 4.55e-05 7.54e-05 1.62e-05 
47 1 1.76678e-06 2.33e-05 8.54e-05 2.24e-05 
12 1 1.77717e-06 2.96e-05 9.65e-05 2.35e-05 
9 1 1.74599e-06 2.59e-05 6.23e-05 3.26e-05 
1 1 1.83953e-06 3.66e-06 5.04e-05 3.31e-05 
23 1 1.86031e-06 7.45e-06 8.37e-05 3.48e-05 
14 1 1.59785e-06 2.52249e-05 7.40187e-05 4.12719e-05 
45 1 1.94346e-06 4.44e-05 5.48e-05 4.48e-05 
10 1 1.66285e-06 1.96e-05 5.87e-05 4.56e-05 
38 1 1.79796e-06 8.9e-06 6.33e-05 4.57e-05 
53 1 1.56943e-06 2.61667e-05 7.31887e-05 4.03365e-05 
28 1 1.47578e-06 6.48e-05 3.2e-05 2.1e-06 
46 1 1.96424e-06 6.46e-05 4.41e-05 1.14e-05 
48 1 1.49657e-06 6.43e-05 3.37e-05 1.56e-05 
40 1 1.58121e-06 5.49246e-05 2.17189e-05 2.48721e-05 
49 1 1.54853e-06 5.92e-05 2.19e-05 2.7e-05 
26 1 1.96424e-06 5.27e-05 4.04e-05 2.93e-05 
19 1 1.75639e-06 9.6e-05 1.17e-05 3.19e-05 
36 1 1.55892e-06 5.41e-05 1.31e-05 3.71e-05 
42 1 1.71482e-06 7.01e-05 3.61e-05 3.84e-05 
20 1 1.47578e-06 7.49e-05 2.78e-05 4.77e-05 
56 1 1.55308e-06 5.58669e-05 2.08885e-05 2.39363e-05 
2 1 1.77717e-06 7.58e-05 9.71e-05 3.13e-06 
22 1 1.87071e-06 5.75e-05 7.45e-05 8.96e-06 
11 1 1.63167e-06 7.52e-05 7.8e-05 8.97e-06 
7 1 1.65246e-06 8.19e-05 6.73e-05 1.04e-05 
15 1 1.82914e-06 9.15e-05 8.89e-05 1.5e-05 
27 1 1.95385e-06 5.71e-05 5.4e-05 1.66e-05 
35 1 1.54853e-06 6.9e-05 8.82e-05 2.2e-05 
30 1 1.62128e-06 9.65e-05 9.19e-05 2.19e-05 
31 1 1.65246e-06 8.13e-05 6.44e-05 2.52e-05 
6 1 1.62128e-06 5.75e-05 8.42e-05 2.63e-05 
21 1 1.60049e-06 6.43e-05 7.42e-05 3.9e-05 
17 1 1.7356e-06 7.36e-05 5.11e-05 4.34e-05 
ITEM: TIMESTEP
800
ITEM: NUMBER OF ATOMS
59
ITEM: BOX BOUNDS ff ff ff
0.0000000000000000e+00 1.0000000000000000e-04
0.0000000000000000e+00 1.0000000000000000e-04
0.0000000000000000e+00 5.0000000000000002e-05
ITEM: ATOMS id type diameter x y z 
18 1 1.60667e-06 4.51249e-05 2.04187e-05 2.44186e-06 
4 1 1.64445e-06 3.65775e-05 1.40566e-05 1.12071e-05 
32 1 1.82878e-06 3.88e-05 1.34e-05 1.57e-05 
33 1 1.56753e-06 2.69e-05 2.58e-05 1.66e-05 
52 1 1.57809e-06 4.60667e-05 1.95887e-05 1.50653e-06 
54 1 1.51901e-06 3.64284e-05 1.39477e-05 9.65445e-06 
25 1 1.44213e-06 3.03e-05 2.85e-05 2.33e-05 
37 1 1.81833e-06 3.54e-05 2.36e-05 2.58e-05 
44 1 1.61504e-06 3.6213e-05 5.76918e-06 2.95837e-05 
43 1 1.89148e-06 3.2e-05 5.02e-06 3.46e-05 
41 1 1.70338e-06 3.11e-05 3.64e-05 4.05e-05 
13 1 1.64445e-06 1.55775e-05 1.24566e-05 4.53071e-05 
5 1 1.52573e-06 3.01e-05 8.2e-06 4.52e-05 
8 1 1.47348e-06 7.24e-06 3.73e-05 4.53e-05 
34 1 1.46303e-06 2.46e-05 4.21e-05 4.61e-05 
51 1 1.58631e-06 3.71786e-05 4.91826e-06 2.86247e-05 
55 1 1.51901e-06 1.54284e-05 1.23477e-05 4.37544e-05 
16 1 1.72428e-06 1.61e-05 6.86e-05 2.52e-06 
3 1 1.58157e-06 1.45245e-05 7.2419e-05 6.02222e-06 
50 1 1.93328e-06 3.26e-05 5.32e-05 9.23e-06 
39 1 1.77653e-06 9.64e-06 7.61e-05 1.32e-05 
29 1 1.91238e-06 3.51e-05 5.09e-05 1.55e-05 
24 1 1.86013e-06 4.55e-05 7.54e-05 1.62e-05 
57 1 1.55343e-06 1.54671e-05 7.15884e-05 5.08618e-06 
47 1 1.77653e-06 2.33e-05 8.54e-05 2.24e-05 
12 1 1.78698e-06 2.96e-05 9.65e-05 2.35e-05 
9 1 1.75563e-06 2.59e-05 6.23e-05 3.26e-05 
1 1 1.84968e-06 3.66e-06 5.04e-05 3.31e-05 
23 1 1.87058e-06 7.45e-06 8.37e-05 3.48e-05 
14 1 1.60667e-06 2.52249e-05 7.40187e-05 4.12719e-05 
45 1 1.95418e-06 4.44e-05 5.48e-05 4.48e-05 
10 1 1.67203e-06 1.96e-05 5.87e-05 4.56e-05 
38 1 1.80788e-06 8.9e-06 6.33e-05 4.57e-05 
53 1 1.57809e-06 2.61667e-05 7.31887e-05 4.03365e-05 
28 1 1.48393e-06 6.48e-05 3.2e-05 2.1e-06 
46 1 1.58157e-06 6.41245e-05 4.4519e-05 1.18722e-05 
48 1 1.50483e-06 6.43e-05 3.37e-05 1.56e-05 
58 1 1.55343e-06 6.50671e-05 4.36884e-05 1.09362e-05 
40 1 1.58993e-06 5.49246e-05 2.17189e-05 2.48721e-05 
49 1 1.55708e-06 5.92e-05 2.19e-05 2.7e-05 
26 1 1.62723e-06 5.27775e-05 4.04566e-05 3.01075e-05 
19 1 1.76608e-06 9.6e-05 1.17e-05 3.19e-05 
36 1 1.56753e-06 5.41e-05 1.31e-05 3.71e-05 
42 1 1.72428e-06 7.01e-05 3.61e-05 3.84e-05 
20 1 1.48393e-06 7.49e-05 2.78e-05 4.77e-05 
56 1 1.56165e-06 5.58669e-05 2.08885e-05 2.39363e-05 
59 1 1.5031e-06 5.26284e-05 4.03477e-05 2.85541e-05 
2 1 1.78698e-06 7.58e-05 9.71e-05 3.13e-06 
22 1 1.88103e-06 5.75e-05 7.45e-05 8.96e-06 
11 1 1.64068e-06 7.52e-05 7.8e-05 8.97e-06 
7 1 1.66158e-06 8.19e-05 6.73e-05 1.04e-05 
15 1 1.83923e-06 9.15e-05 8.89e-05 1.5e-05 
27 1 1.96463e-06 5.71e-05 5.4e-05 1.66e-05 
35 1 1.55708e-06 6.9e-05 8.82e-05 2.2e-05 
30 1 1.63023e-06 9.65e-05 9.19e-05 2.19e-05 
31 1 1.66158e-06 8.13e-05 6.44e-05 2.52e-05 
6 1 1.63023e-06 5.75e-05 8.42e-05 2.63e-05 
21 1 1.60933e-06 6.43e-05 7.42e-05 3.9e-05 
17 1 1.74518e-06 7.36e-05 5.11e-05 4.34e-05 
ITEM: TIMESTEP
900
ITEM: NUMBER OF ATOMS
60
ITEM: BOX BOUNDS ff ff ff
0.0000000000000000e+00 1.0000000000000000e-04
0.0000000000000000e+00 1.0000000000000000e-04
0.0000000000000000e+00 5.0000000000000002e-05
ITEM: ATOMS id type diameter x y z 
18 1 1.61554e-06 4.51128e-05 2.04293e-05 2.45381e-06 
4 1 1.65353e-06 3.65775e-05 1.40566e-05 1.12071e-05 
32 1 1.83888e-06 3.88e-05 1.34e-05 1.57e-05 
33 1 1.57618e-06 2.69e-05 2.58e-05 1.66e-05 
52 1 1.5868e-06 4.60787e-05 1.95781e-05 1.49458e-06 
54 1 1.52739e-06 3.64284e-05 1.39477e-05 9.65445e-06 
25 1 1.45008e-06 3.03e-05 2.85e-05 2.33e-05 
37 1 1.82837e-06 3.54e-05 2.36e-05 2.58e-05 
44 1 1.62395e-06 3.6213e-05 5.76918e-06 2.95837e-05 
43 1 1.90192e-06 3.2e-05 5.02e-06 3.46e-05 
41 1 1.71278e-06 3.11e-05 3.64e-05 4.05e-05 
13 1 1.65353e-06 1.55775e-05 1.24566e-05 4.53071e-05 
5 1 1.53415e-06 3.01e-05 8.2e-06 4.52e-05 
8 1 1.48161e-06 7.24e-06 3.73e-05 4.53e-05 
34 1 1.4711e-06 2.46e-05 4.21e-05 4.61e-05 
51 1 1.59507e-06 3.71786e-05 4.91826e-06 2.86247e-05 
55 1 1.52739e-06 1.54284e-05 1.23477e-05 4.37544e-05 
16 1 1.7338e-06 1.61e-05 6.86e-05 2.52e-06 
3 1 1.59029e-06 1.45245e-05 7.2419e-05 6.02222e-06 
50 1 1.94395e-06 3.26e-05 5.32e-05 9.23e-06 
39 1 1.78634e-06 9.64e-06 7.61e-05 1.32e-05 
29 1 1.92294e-06 3.51e-05 5.09e-05 1.55e-05 
24 1 1.8704e-06 4.55e-05 7.54e-05 1.62e-05 
57 1 1.56201e-06 1.54671e-05 7.15884e-05 5.08618e-06 
47 1 1.78634e-06 2.33e-05 8.54e-05 2.24e-05 
12 1 1.79684e-06 2.96e-05 9.65e-05 2.35e-05 
9 1 1.76532e-06 2.59e-05 6.23e-05 3.26e-05 
1 1 1.85989e-06 3.66e-06 5.04e-05 3.31e-05 
23 1 1.88091e-06 7.45e-06 8.37e-05 3.48e-05 
14 1 1.61554e-06 2.52128e-05 7.40293e-05 4.12838e-05 
45 1 1.96497e-06 4.44e-05 5.48e-05 4.48e-05 
10 1 1.68126e-06 1.96e-05 5.87e-05 4.56e-05 
38 1 1.81786e-06 8.9e-06 6.33e-05 4.57e-05 
53 1 1.5868e-06 2.61787e-05 7.31781e-05 4.03246e-05 
28 1 1.49212e-06 6.48e-05 3.2e-05 2.1e-06 
46 1 1.59029e-06 6.41245e-05 4.4519e-05 1.18722e-05 
48 1 1.51313e-06 6.43e-05 3.37e-05 1.56e-05 
58 1 1.56201e-06 6.50671e-05 4.36884e-05 1.09362e-05 
40 1 1.59871e-06 5.49246e-05 2.17189e-05 2.48721e-05 
49 1 1.56567e-06 5.92e-05 2.19e-05 2.7e-05 
26 1 1.63621e-06 5.27775e-05 4.04566e-05 3.01075e-05 
19 1 1.77583e-06 9.6e-05 1.17e-05 3.19e-05 
36 1 1.57618e-06 5.41e-05 1.31e-05 3.71e-05 
42 1 1.7338e-06 7.01e-05 3.61e-05 3.84e-05 
20 1 1.49212e-06 7.49e-05 2.78e-05 4.77e-05 
56 1 1.57027e-06 5.58669e-05 2.08885e-05 2.39363e-05 
59 1 1.5114e-06 5.26284e-05 4.03477e-05 2.85541e-05 
2 1 1.79684e-06 7.58e-05 9.71e-05 3.13e-06 
22 1 1.89142e-06 5.75e-05 7.45e-05 8.96e-06 
11 1 1.64973e-06 7.52e-05 7.8e-05 8.97e-06 
7 1 1.67075e-06 8.19e-05 6.73e-05 1.04e-05 
15 1 1.84938e-06 9.15e-05 8.89e-05 1.5e-05 
27 1 1.58188e-06 5.66244e-05 5.44191e-05 1.70723e-05 
60 1 1.55374e-06 5.75671e-05 5.35883e-05 1.61361e-05 
35 1 1.56567e-06 6.9e-05 8.82e-05 2.2e-05 
30 1 1.63923e-06 9.65e-05 9.19e-05 2.19e-05 
31 1 1.67075e-06 8.13e-05 6.44e-05 2.52e-05 
6 1 1.63923e-06 5.75e-05 8.42e-05 2.63e-05 
21 1 1.61821e-06 6.43e-05 7.42e-05 3.9e-05 
17 1 1.75481e-06 7.36e-05 5.11e-05 4.34e-05 
ITEM: TIMESTEP
1000
ITEM: NUMBER OF ATOMS
61
ITEM: BOX BOUNDS ff ff ff
0.0000000000000000e+00 1.0000000000000000e-04
0.0000000000000000e+00 1.0000000000000000e-04
0.0000000000000000e+00 5.0000000000000002e-05
ITEM: ATOMS id type diameter x y z 
52 1 1.59556e-06 4.60787e-05 1.95781e-05 1.49458e-06 
18 1 1.62445e-06 4.51128e-05 2.04293e-05 2.45381e-06 
54 1 1.53582e-06 3.64265e-05 1.39463e-05 9.63459e-06 
4 1 1.66266e-06 3.65794e-05 1.4058e-05 1.1227e-05 
32 1 1.84903e-06 3.88e-05 1.34e-05 1.57e-05 
33 1 1.58488e-06 2.69e-05 2.58e-05 1.66e-05 
25 1 1.45809e-06 3.03e-05 2.85e-05 2.33e-05 
37 1 1.83846e-06 3.54e-05 2.36e-05 2.58e-05 
51 1 1.60387e-06 3.71786e-05 4.91826e-06 2.86247e-05 
44 1 1.63292e-06 3.6213e-05 5.76918e-06 2.95837e-05 
43 1 1.91242e-06 3.2e-05 5.02e-06 3.46e-05 
41 1 1.72224e-06 3.11e-05 3.64e-05 4.05e-05 
55 1 1.53582e-06 1.54265e-05 1.23463e-05 4.37346e-05 
5 1 1.54262e-06 3.01e-05 8.2e-06 4.52e-05 
13 1 1.66266e-06 1.55794e-05 1.2458e-05 4.5327e-05 
8 1 1.48979e-06 7.24e-06 3.73e-05 4.53e-05 
34 1 1.47922e-06 2.46e-05 4.21e-05 4.61e-05 
16 1 1.74337e-06 1.61e-05 6.86e-05 2.52e-06 
57 1 1.57063e-06 1.54671e-05 7.15884e-05 5.08618e-06 
3 1 1.59907e-06 1.45245e-05 7.2419e-05 6.02222e-06 
50 1 1.95468e-06 3.26e-05 5.32e-05 9.23e-06 
39 1 1.7962e-06 9.64e-06 7.61e-05 1.32e-05 
29 1 1.93355e-06 3.51e-05 5.09e-05 1.55e-05 
24 1 1.88072e-06 4.55e-05 7.54e-05 1.62e-05 
47 1 1.7962e-06 2.33e-05 8.54e-05 2.24e-05 
12 1 1.80676e-06 2.96e-05 9.65e-05 2.35e-05 
9 1 1.77506e-06 2.59e-05 6.23e-05 3.26e-05 
1 1 1.87016e-06 3.66e-06 5.04e-05 3.31e-05 
23 1 1.89129e-06 7.45e-06 8.37e-05 3.48e-05 
53 1 1.59556e-06 2.61787e-05 7.31781e-05 4.03246e-05 
14 1 1.62445e-06 2.52128e-05 7.40293e-05 4.12838e-05 
61 1 1.50366e-06 4.43284e-05 5.47477e-05 4.40538e-05 
45 1 1.62784e-06 4.44775e-05 5.48567e-05 4.56078e-05 
10 1 1.69054e-06 1.96e-05 5.87e-05 4.56e-05 
38 1 1.82789e-06 8.9e-06 6.33e-05 4.57e-05 
28 1 1.50035e-06 6.48e-05 3.2e-05 2.1e-06 
58 1 1.57063e-06 6.50671e-05 4.36884e-05 1.09362e-05 
46 1 1.59907e-06 6.41245e-05 4.4519e-05 1.18722e-05 
48 1 1.52148e-06 6.43e-05 3.37e-05 1.56e-05 
56 1 1.57894e-06 5.58669e-05 2.08885e-05 2.39363e-05 
40 1 1.60753e-06 5.49246e-05 2.17189e-05 2.48721e-05 
49 1 1.57431e-06 5.92e-05 2.19e-05 2.7e-05 
59 1 1.51974e-06 5.26284e-05 4.03477e-05 2.85541e-05 
26 1 1.64525e-06 5.27775e-05 4.04566e-05 3.01075e-05 
19 1 1.78563e-06 9.6e-05 1.17e-05 3.19e-05 
36 1 1.58488e-06 5.41e-05 1.31e-05 3.71e-05 
42 1 1.74337e-06 7.01e-05 3.61e-05 3.84e-05 
20 1 1.50035e-06 7.49e-05 2.78e-05 4.77e-05 
2 1 1.80676e-06 7.58e-05 9.71e-05 3.13e-06 
22 1 1.90185e-06 5.75e-05 7.45e-05 8.96e-06 
11 1 1.65884e-06 7.52e-05 7.8e-05 8.97e-06 
7 1 1.67997e-06 8.19e-05 6.73e-05 1.04e-05 
15 1 1.85959e-06 9.15e-05 8.89e-05 1.5e-05 
60 1 1.56232e-06 5.75671e-05 5.35883e-05 1.61361e-05 
27 1 1.59061e-06 5.66244e-05 5.44191e-05 1.70723e-05 
35 1 1.57431e-06 6.9e-05 8.82e-05 2.2e-05 
30 1 1.64827e-06 9.65e-05 9.19e-05 2.19e-05 
31 1 1.67997e-06 8.13e-05 6.44e-05 2.52e-05 
6 1 1.64827e-06 5.75e-05 8.42e-05 2.63e-05 
21 1 1.62714e-06 6.43e-05 7.42e-05 3.9e-05 
17 1 1.7645e-06 7.36e-05 5.11e-05 4.34e-05 
ITEM: TIMESTEP
1100
ITEM: NUMBER OF ATOMS
61
ITEM: BOX BOUNDS ff ff ff
0.0000000000000000e+00 1.0000000000000000e-04
0.0000000000000000e+00 1.0000000000000000e-04
0.0000000000000000e+00 5.0000000000000002e-05