 NUFEB Simulation

     50 atoms 
     2 atom types 
     4 nutrients 

  0.0e-4   1.00e-04  xlo xhi 
  0.0e-4   1.00e-04  ylo yhi 
  0.0e-4   5.00e-05  zlo zhi 

 Atoms 

     1 1 1.60e-06  370 1.85e-05 5.43e-05 1.25e-05 1.60e-06 
     2 1 1.92e-06  370 1.64e-05 2.37e-05 3.64e-05 1.92e-06 
     3 1 1.93e-06  370 3.41e-05 8.59e-05 3.39e-05 1.93e-06 
     4 1 1.67e-06  370 4.93e-05 5.47e-05 3.61e-05 1.67e-06 
     5 1 1.70e-06  370 3.71e-05 6.07e-05 2.64e-05 1.70e-06 
     6 1 1.92e-06  370 5.40e-05 9.19e-05 4.28e-05 1.92e-06 
     7 1 1.41e-06  370 9.38e-05 1.64e-05 3.52e-06 1.41e-06 
     8 1 1.51e-06  370 3.12e-05 9.03e-05 3.35e-05 1.51e-06 
     9 1 1.66e-06  370 1.76e-06 7.07e-05 2.25e-05 1.66e-06 
     10 1 1.78e-06  370 7.61e-05 2.58e-05 2.79e-06 1.78e-06 
     11 1 1.55e-06  370 4.17e-05 9.67e-05 2.35e-05 1.55e-06 
     12 1 1.94e-06  370 4.28e-05 4.15e-05 2.22e-05 1.94e-06 
     13 1 1.41e-06  370 6.67e-05 6.23e-05 1.01e-05 1.41e-06 
     14 1 1.42e-06  370 4.79e-05 2.11e-05 9.81e-06 1.42e-06 
     15 1 1.83e-06  370 8.11e-05 6.49e-05 1.63e-05 1.83e-06 
     16 1 1.72e-06  370 1.32e-05 4.39e-05 2.97e-05 1.72e-06 
     17 1 1.87e-06  370 8.46e-05 5.38e-05 3.31e-05 1.87e-06 
     18 1 1.47e-06  370 3.15e-05 1.30e-05 2.83e-05 1.47e-06 
     19 1 1.50e-06  370 9.26e-05 6.13e-05 1.07e-05 1.50e-06 
     20 1 1.39e-06  370 3.67e-05 5.71e-05 2.10e-05 1.39e-06 
     21 1 1.49e-06  370 3.71e-06 6.46e-05 5.00e-06 1.49e-06 
     22 1 1.86e-06  370 3.46e-05 2.88e-05 4.74e-05 1.86e-06 
     23 1 1.39e-06  370 5.59e-05 8.21e-05 2.80e-05 1.39e-06 
     24 1 1.69e-06  370 7.74e-05 2.62e-05 4.24e-05 1.69e-06 
     25 1 1.49e-06  370 4.68e-05 7.97e-05 4.55e-06 1.49e-06 
     26 1 1.77e-06  370 1.92e-05 1.56e-05 8.08e-06 1.77e-06 
     27 1 1.71e-06  370 6.67e-06 2.54e-05 1.87e-05 1.71e-06 
     28 1 1.72e-06  370 7.20e-05 4.27e-06 4.27e-06 1.72e-06 
     29 1 1.80e-06  370 4.50e-05 2.74e-05 1.94e-05 1.80e-06 
     30 1 1.92e-06  370 3.20e-05 5.47e-05 2.13e-05 1.92e-06 
     31 1 1.51e-06  370 4.60e-05 6.62e-05 1.94e-05 1.51e-06 
     32 1 1.82e-06  370 9.61e-05 6.40e-05 3.70e-05 1.82e-06 
     33 1 1.75e-06  370 8.52e-05 1.07e-05 2.69e-05 1.75e-06 
     34 1 1.40e-06  370 5.70e-05 7.56e-05 2.16e-05 1.40e-06 
     35 1 1.76e-06  370 7.65e-06 1.60e-05 4.09e-05 1.76e-06 
     36 1 1.80e-06  370 9.55e-06 6.57e-05 2.72e-05 1.80e-06 
     37 1 1.81e-06  370 7.22e-05 7.15e-05 3.73e-05 1.81e-06 
     38 1 1.58e-06  370 1.39e-05 2.02e-05 7.94e-06 1.58e-06 
     39 1 1.78e-06  370 4.34e-05 4.29e-05 4.27e-05 1.78e-06 
     40 1 1.89e-06  370 5.13e-05 2.98e-05 3.39e-05 1.89e-06 
     41 1 1.75e-06  370 7.25e-05 4.43e-05 2.60e-05 1.75e-06 
     42 1 1.54e-06  370 8.73e-05 3.71e-05 2.79e-05 1.54e-06 
     43 1 1.41e-06  370 8.62e-05 4.35e-05 1.50e-05 1.41e-06 
     44 1 1.88e-06  370 2.26e-05 2.75e-05 2.82e-05 1.88e-06 
     45 1 1.80e-06  370 5.29e-05 1.80e-05 4.18e-05 1.80e-06 
     46 1 1.76e-06  370 1.16e-05 1.74e-05 3.87e-05 1.76e-06 
     47 1 1.76e-06  370 8.29e-05 1.11e-05 3.79e-05 1.76e-06 
     48 1 1.89e-06  370 5.85e-05 8.52e-05 2.98e-05 1.89e-06 
     49 1 1.64e-06  370 5.90e-05 1.80e-05 2.28e-05 1.64e-06 
     50 1 1.83e-06  370 8.14e-05 8.84e-05 2.09e-05 1.83e-06 

 Nutrients 

     1 sub g nn nn nn 1.00e-01 1.00e-01 
     2 o2 l nn nn nd 9.00e-03 9.00e-03 
     3 suc l nn nn nn 3.42e-20 3.42e-20 
     4 co2 l nn nn nd 2.99e-02 2.99e-02 

 Type Name 

     1 cyano  
     2 ecw  

 Diffusion Coeffs 

     sub 0 
     o2 2.3e-09 
     suc 5.2e-10 
     co2 1.9e-09 

 Growth Rate 

     cyano 2.047e-05 
     ecw 6.71e-05 

 Ks 

     cyano 0.00035 0.0002 0.01 0.000138 
     ecw 0 0.001 3.6 0.05 

 Yield 

     cyano 0.55 
     ecw 0.43 

 Maintenance 

     cyano 0 
     ecw 9.5e-07 

 Decay 

     cyano 0 
     ecw 0 



