ITEM: TIMESTEP
0
ITEM: NUMBER OF ATOMS
50
ITEM: BOX BOUNDS ff ff ff
0.0000000000000000e+00 1.0000000000000000e-04
0.0000000000000000e+00 1.0000000000000000e-04
0.0000000000000000e+00 5.0000000000000002e-05
ITEM: ATOMS id type diameter x y z 
38 1 1.58e-06 1.39e-05 2.02e-05 7.94e-06 
26 1 1.77e-06 1.92e-05 1.56e-05 8.08e-06 
14 1 1.42e-06 4.79e-05 2.11e-05 9.81e-06 
27 1 1.71e-06 6.67e-06 2.54e-05 1.87e-05 
29 1 1.8e-06 4.5e-05 2.74e-05 1.94e-05 
12 1 1.94e-06 4.28e-05 4.15e-05 2.22e-05 
18 1 1.47e-06 3.15e-05 1.3e-05 2.83e-05 
44 1 1.88e-06 2.26e-05 2.75e-05 2.82e-05 
16 1 1.72e-06 1.32e-05 4.39e-05 2.97e-05 
2 1 1.92e-06 1.64e-05 2.37e-05 3.64e-05 
46 1 1.76e-06 1.16e-05 1.74e-05 3.87e-05 
35 1 1.76e-06 7.65e-06 1.6e-05 4.09e-05 
39 1 1.78e-06 4.34e-05 4.29e-05 4.27e-05 
22 1 1.86e-06 3.46e-05 2.88e-05 4.74e-05 
25 1 1.49e-06 4.68e-05 7.97e-05 4.55e-06 
21 1 1.49e-06 3.71e-06 6.46e-05 5e-06 
1 1 1.6e-06 1.85e-05 5.43e-05 1.25e-05 
31 1 1.51e-06 4.6e-05 6.62e-05 1.94e-05 
20 1 1.39e-06 3.67e-05 5.71e-05 2.1e-05 
30 1 1.92e-06 3.2e-05 5.47e-05 2.13e-05 
9 1 1.66e-06 1.76e-06 7.07e-05 2.25e-05 
11 1 1.55e-06 4.17e-05 9.67e-05 2.35e-05 
5 1 1.7e-06 3.71e-05 6.07e-05 2.64e-05 
36 1 1.8e-06 9.55e-06 6.57e-05 2.72e-05 
3 1 1.93e-06 3.41e-05 8.59e-05 3.39e-05 
8 1 1.51e-06 3.12e-05 9.03e-05 3.35e-05 
4 1 1.67e-06 4.93e-05 5.47e-05 3.61e-05 
10 1 1.78e-06 7.61e-05 2.58e-05 2.79e-06 
7 1 1.41e-06 9.38e-05 1.64e-05 3.52e-06 
28 1 1.72e-06 7.2e-05 4.27e-06 4.27e-06 
43 1 1.41e-06 8.62e-05 4.35e-05 1.5e-05 
49 1 1.64e-06 5.9e-05 1.8e-05 2.28e-05 
41 1 1.75e-06 7.25e-05 4.43e-05 2.6e-05 
33 1 1.75e-06 8.52e-05 1.07e-05 2.69e-05 
42 1 1.54e-06 8.73e-05 3.71e-05 2.79e-05 
40 1 1.89e-06 5.13e-05 2.98e-05 3.39e-05 
47 1 1.76e-06 8.29e-05 1.11e-05 3.79e-05 
45 1 1.8e-06 5.29e-05 1.8e-05 4.18e-05 
24 1 1.69e-06 7.74e-05 2.62e-05 4.24e-05 
13 1 1.41e-06 6.67e-05 6.23e-05 1.01e-05 
19 1 1.5e-06 9.26e-05 6.13e-05 1.07e-05 
15 1 1.83e-06 8.11e-05 6.49e-05 1.63e-05 
50 1 1.83e-06 8.14e-05 8.84e-05 2.09e-05 
34 1 1.4e-06 5.7e-05 7.56e-05 2.16e-05 
23 1 1.39e-06 5.59e-05 8.21e-05 2.8e-05 
48 1 1.89e-06 5.85e-05 8.52e-05 2.98e-05 
17 1 1.87e-06 8.46e-05 5.38e-05 3.31e-05 
32 1 1.82e-06 9.61e-05 6.4e-05 3.7e-05 
37 1 1.81e-06 7.22e-05 7.15e-05 3.73e-05 
6 1 1.92e-06 5.4e-05 9.19e-05 4.28e-05 
ITEM: TIMESTEP
100
ITEM: NUMBER OF ATOMS
50
ITEM: BOX BOUNDS ff ff ff
0.0000000000000000e+00 1.0000000000000000e-04
0.0000000000000000e+00 1.0000000000000000e-04
0.0000000000000000e+00 5.0000000000000002e-05
ITEM: ATOMS id type diameter x y z 
38 1 1.58999e-06 1.39e-05 2.02e-05 7.94e-06 
26 1 1.78119e-06 1.92e-05 1.56e-05 8.08e-06 
14 1 1.42898e-06 4.79e-05 2.11e-05 9.81e-06 
27 1 1.72081e-06 6.67e-06 2.54e-05 1.87e-05 
29 1 1.81138e-06 4.5e-05 2.74e-05 1.94e-05 
12 1 1.95226e-06 4.28e-05 4.15e-05 2.22e-05 
18 1 1.47929e-06 3.15e-05 1.3e-05 2.83e-05 
44 1 1.89189e-06 2.26e-05 2.75e-05 2.82e-05 
16 1 1.73087e-06 1.32e-05 4.39e-05 2.97e-05 
2 1 1.93214e-06 1.64e-05 2.37e-05 3.64e-05 
46 1 1.77113e-06 1.16e-05 1.74e-05 3.87e-05 
35 1 1.77113e-06 7.65e-06 1.6e-05 4.09e-05 
39 1 1.79125e-06 4.34e-05 4.29e-05 4.27e-05 
22 1 1.87176e-06 3.46e-05 2.88e-05 4.74e-05 
25 1 1.49942e-06 4.68e-05 7.97e-05 4.55e-06 
21 1 1.49942e-06 3.71e-06 6.46e-05 5e-06 
1 1 1.61012e-06 1.85e-05 5.43e-05 1.25e-05 
31 1 1.51955e-06 4.6e-05 6.62e-05 1.94e-05 
20 1 1.39879e-06 3.67e-05 5.71e-05 2.1e-05 
30 1 1.93214e-06 3.2e-05 5.47e-05 2.13e-05 
9 1 1.67049e-06 1.76e-06 7.07e-05 2.25e-05 
11 1 1.5598e-06 4.17e-05 9.67e-05 2.35e-05 
5 1 1.71075e-06 3.71e-05 6.07e-05 2.64e-05 
36 1 1.81138e-06 9.55e-06 6.57e-05 2.72e-05 
3 1 1.9422e-06 3.41e-05 8.59e-05 3.39e-05 
8 1 1.51955e-06 3.12e-05 9.03e-05 3.35e-05 
4 1 1.68056e-06 4.93e-05 5.47e-05 3.61e-05 
10 1 1.79125e-06 7.61e-05 2.58e-05 2.79e-06 
7 1 1.41891e-06 9.38e-05 1.64e-05 3.52e-06 
28 1 1.73087e-06 7.2e-05 4.27e-06 4.27e-06 
43 1 1.41891e-06 8.62e-05 4.35e-05 1.5e-05 
49 1 1.65037e-06 5.9e-05 1.8e-05 2.28e-05 
41 1 1.76106e-06 7.25e-05 4.43e-05 2.6e-05 
33 1 1.76106e-06 8.52e-05 1.07e-05 2.69e-05 
42 1 1.54974e-06 8.73e-05 3.71e-05 2.79e-05 
40 1 1.90195e-06 5.13e-05 2.98e-05 3.39e-05 
47 1 1.77113e-06 8.29e-05 1.11e-05 3.79e-05 
45 1 1.81138e-06 5.29e-05 1.8e-05 4.18e-05 
24 1 1.70068e-06 7.74e-05 2.62e-05 4.24e-05 
13 1 1.41891e-06 6.67e-05 6.23e-05 1.01e-05 
19 1 1.50948e-06 9.26e-05 6.13e-05 1.07e-05 
15 1 1.84157e-06 8.11e-05 6.49e-05 1.63e-05 
50 1 1.84157e-06 8.14e-05 8.84e-05 2.09e-05 
34 1 1.40885e-06 5.7e-05 7.56e-05 2.16e-05 
23 1 1.39879e-06 5.59e-05 8.21e-05 2.8e-05 
48 1 1.90195e-06 5.85e-05 8.52e-05 2.98e-05 
17 1 1.88182e-06 8.46e-05 5.38e-05 3.31e-05 
32 1 1.83151e-06 9.61e-05 6.4e-05 3.7e-05 
37 1 1.82144e-06 7.22e-05 7.15e-05 3.73e-05 
6 1 1.93214e-06 5.4e-05 9.19e-05 4.28e-05 
ITEM: TIMESTEP
200
ITEM: NUMBER OF ATOMS
50
ITEM: BOX BOUNDS ff ff ff
0.0000000000000000e+00 1.0000000000000000e-04
0.0000000000000000e+00 1.0000000000000000e-04
0.0000000000000000e+00 5.0000000000000002e-05
ITEM: ATOMS id type diameter x y z 
38 1 1.60004e-06 1.39e-05 2.02e-05 7.94e-06 
26 1 1.79245e-06 1.92e-05 1.56e-05 8.08e-06 
14 1 1.43801e-06 4.79e-05 2.11e-05 9.81e-06 
27 1 1.73169e-06 6.67e-06 2.54e-05 1.87e-05 
29 1 1.82283e-06 4.5e-05 2.74e-05 1.94e-05 
12 1 1.96461e-06 4.28e-05 4.15e-05 2.22e-05 
18 1 1.48865e-06 3.15e-05 1.3e-05 2.83e-05 
44 1 1.90385e-06 2.26e-05 2.75e-05 2.82e-05 
16 1 1.74182e-06 1.32e-05 4.39e-05 2.97e-05 
2 1 1.94435e-06 1.64e-05 2.37e-05 3.64e-05 
46 1 1.78232e-06 1.16e-05 1.74e-05 3.87e-05 
35 1 1.78232e-06 7.65e-06 1.6e-05 4.09e-05 
39 1 1.80258e-06 4.34e-05 4.29e-05 4.27e-05 
22 1 1.88359e-06 3.46e-05 2.88e-05 4.74e-05 
25 1 1.5089e-06 4.68e-05 7.97e-05 4.55e-06 
21 1 1.5089e-06 3.71e-06 6.46e-05 5e-06 
1 1 1.62029e-06 1.85e-05 5.43e-05 1.25e-05 
31 1 1.52915e-06 4.6e-05 6.62e-05 1.94e-05 
20 1 1.40763e-06 3.67e-05 5.71e-05 2.1e-05 
30 1 1.94435e-06 3.2e-05 5.47e-05 2.13e-05 
9 1 1.68106e-06 1.76e-06 7.07e-05 2.25e-05 
11 1 1.56966e-06 4.17e-05 9.67e-05 2.35e-05 
5 1 1.72156e-06 3.71e-05 6.07e-05 2.64e-05 
36 1 1.82283e-06 9.55e-06 6.57e-05 2.72e-05 
3 1 1.95448e-06 3.41e-05 8.59e-05 3.39e-05 
8 1 1.52915e-06 3.12e-05 9.03e-05 3.35e-05 
4 1 1.69118e-06 4.93e-05 5.47e-05 3.61e-05 
10 1 1.80258e-06 7.61e-05 2.58e-05 2.79e-06 
7 1 1.42788e-06 9.38e-05 1.64e-05 3.52e-06 
28 1 1.74182e-06 7.2e-05 4.27e-06 4.27e-06 
43 1 1.42788e-06 8.62e-05 4.35e-05 1.5e-05 
49 1 1.6608e-06 5.9e-05 1.8e-05 2.28e-05 
41 1 1.7722e-06 7.25e-05 4.43e-05 2.6e-05 
33 1 1.7722e-06 8.52e-05 1.07e-05 2.69e-05 
42 1 1.55953e-06 8.73e-05 3.71e-05 2.79e-05 
40 1 1.91397e-06 5.13e-05 2.98e-05 3.39e-05 
47 1 1.78232e-06 8.29e-05 1.11e-05 3.79e-05 
45 1 1.82283e-06 5.29e-05 1.8e-05 4.18e-05 
24 1 1.71144e-06 7.74e-05 2.62e-05 4.24e-05 
13 1 1.42788e-06 6.67e-05 6.23e-05 1.01e-05 
19 1 1.51903e-06 9.26e-05 6.13e-05 1.07e-05 
15 1 1.85321e-06 8.11e-05 6.49e-05 1.63e-05 
50 1 1.85321e-06 8.14e-05 8.84e-05 2.09e-05 
34 1 1.41776e-06 5.7e-05 7.56e-05 2.16e-05 
23 1 1.40763e-06 5.59e-05 8.21e-05 2.8e-05 
48 1 1.91397e-06 5.85e-05 8.52e-05 2.98e-05 
17 1 1.89372e-06 8.46e-05 5.38e-05 3.31e-05 
32 1 1.84309e-06 9.61e-05 6.4e-05 3.7e-05 
37 1 1.83296e-06 7.22e-05 7.15e-05 3.73e-05 
6 1 1.94435e-06 5.4e-05 9.19e-05 4.28e-05 
ITEM: TIMESTEP
300
ITEM: NUMBER OF ATOMS
51
ITEM: BOX BOUNDS ff ff ff
0.0000000000000000e+00 1.0000000000000000e-04
0.0000000000000000e+00 1.0000000000000000e-04
0.0000000000000000e+00 5.0000000000000002e-05
ITEM: ATOMS id type diameter x y z 
38 1 1.61016e-06 1.39e-05 2.02e-05 7.94e-06 
26 1 1.80378e-06 1.92e-05 1.56e-05 8.08e-06 
14 1 1.4471e-06 4.79e-05 2.11e-05 9.81e-06 
27 1 1.74264e-06 6.67e-06 2.54e-05 1.87e-05 
29 1 1.83436e-06 4.5e-05 2.74e-05 1.94e-05 
12 1 1.63791e-06 4.28573e-05 4.18421e-05 2.29407e-05 
18 1 1.49806e-06 3.15e-05 1.3e-05 2.83e-05 
44 1 1.91588e-06 2.26e-05 2.75e-05 2.82e-05 
16 1 1.75283e-06 1.32e-05 4.39e-05 2.97e-05 
2 1 1.95665e-06 1.64e-05 2.37e-05 3.64e-05 
46 1 1.79359e-06 1.16e-05 1.74e-05 3.87e-05 
35 1 1.79359e-06 7.65e-06 1.6e-05 4.09e-05 
39 1 1.81397e-06 4.34e-05 4.29e-05 4.27e-05 
22 1 1.8955e-06 3.46e-05 2.88e-05 4.74e-05 
51 1 1.49381e-06 4.27478e-05 4.1188e-05 2.15245e-05 
25 1 1.51844e-06 4.68e-05 7.97e-05 4.55e-06 
21 1 1.51844e-06 3.71e-06 6.46e-05 5e-06 
1 1 1.63054e-06 1.85e-05 5.43e-05 1.25e-05 
31 1 1.53882e-06 4.6e-05 6.62e-05 1.94e-05 
20 1 1.41653e-06 3.67e-05 5.71e-05 2.1e-05 
30 1 1.95665e-06 3.2e-05 5.47e-05 2.13e-05 
9 1 1.69168e-06 1.76e-06 7.07e-05 2.25e-05 
11 1 1.57958e-06 4.17e-05 9.67e-05 2.35e-05 
5 1 1.73245e-06 3.71e-05 6.07e-05 2.64e-05 
36 1 1.83436e-06 9.55e-06 6.57e-05 2.72e-05 
3 1 1.96684e-06 3.41e-05 8.59e-05 3.39e-05 
8 1 1.53882e-06 3.12e-05 9.03e-05 3.35e-05 
4 1 1.70187e-06 4.93e-05 5.47e-05 3.61e-05 
10 1 1.81397e-06 7.61e-05 2.58e-05 2.79e-06 
7 1 1.43691e-06 9.38e-05 1.64e-05 3.52e-06 
28 1 1.75283e-06 7.2e-05 4.27e-06 4.27e-06 
43 1 1.43691e-06 8.62e-05 4.35e-05 1.5e-05 
49 1 1.6713e-06 5.9e-05 1.8e-05 2.28e-05 
41 1 1.7834e-06 7.25e-05 4.43e-05 2.6e-05 
33 1 1.7834e-06 8.52e-05 1.07e-05 2.69e-05 
42 1 1.56939e-06 8.73e-05 3.71e-05 2.79e-05 
40 1 1.92607e-06 5.13e-05 2.98e-05 3.39e-05 
47 1 1.79359e-06 8.29e-05 1.11e-05 3.79e-05 
45 1 1.83436e-06 5.29e-05 1.8e-05 4.18e-05 
24 1 1.72226e-06 7.74e-05 2.62e-05 4.24e-05 
13 1 1.43691e-06 6.67e-05 6.23e-05 1.01e-05 
19 1 1.52863e-06 9.26e-05 6.13e-05 1.07e-05 
15 1 1.86493e-06 8.11e-05 6.49e-05 1.63e-05 
50 1 1.86493e-06 8.14e-05 8.84e-05 2.09e-05 
34 1 1.42672e-06 5.7e-05 7.56e-05 2.16e-05 
23 1 1.41653e-06 5.59e-05 8.21e-05 2.8e-05 
48 1 1.92607e-06 5.85e-05 8.52e-05 2.98e-05 
17 1 1.90569e-06 8.46e-05 5.38e-05 3.31e-05 
32 1 1.85474e-06 9.61e-05 6.4e-05 3.7e-05 
37 1 1.84455e-06 7.22e-05 7.15e-05 3.73e-05 
6 1 1.95665e-06 5.4e-05 9.19e-05 4.28e-05 
ITEM: TIMESTEP
400
ITEM: NUMBER OF ATOMS
52
ITEM: BOX BOUNDS ff ff ff
0.0000000000000000e+00 1.0000000000000000e-04
0.0000000000000000e+00 1.0000000000000000e-04
0.0000000000000000e+00 5.0000000000000002e-05
ITEM: ATOMS id type diameter x y z 
38 1 1.62034e-06 1.39e-05 2.02e-05 7.94e-06 
26 1 1.81519e-06 1.92e-05 1.56e-05 8.08e-06 
14 1 1.45625e-06 4.79e-05 2.11e-05 9.81e-06 
27 1 1.75366e-06 6.67e-06 2.54e-05 1.87e-05 
29 1 1.84595e-06 4.5e-05 2.74e-05 1.94e-05 
12 1 1.64827e-06 4.28573e-05 4.18421e-05 2.29407e-05 
18 1 1.50753e-06 3.15e-05 1.3e-05 2.83e-05 
44 1 1.928e-06 2.26e-05 2.75e-05 2.82e-05 
16 1 1.76391e-06 1.32e-05 4.39e-05 2.97e-05 
2 1 1.96902e-06 1.64e-05 2.37e-05 3.64e-05 
46 1 1.80493e-06 1.16e-05 1.74e-05 3.87e-05 
35 1 1.80493e-06 7.65e-06 1.6e-05 4.09e-05 
39 1 1.82544e-06 4.34e-05 4.29e-05 4.27e-05 
22 1 1.90748e-06 3.46e-05 2.88e-05 4.74e-05 
51 1 1.50325e-06 4.27478e-05 4.1188e-05 2.15245e-05 
25 1 1.52804e-06 4.68e-05 7.97e-05 4.55e-06 
21 1 1.52804e-06 3.71e-06 6.46e-05 5e-06 
1 1 1.64085e-06 1.85e-05 5.43e-05 1.25e-05 
31 1 1.54855e-06 4.6e-05 6.62e-05 1.94e-05 
20 1 1.42549e-06 3.67e-05 5.71e-05 2.1e-05 
30 1 1.96902e-06 3.2e-05 5.47e-05 2.13e-05 
9 1 1.70238e-06 1.76e-06 7.07e-05 2.25e-05 
11 1 1.58957e-06 4.17e-05 9.67e-05 2.35e-05 
5 1 1.7434e-06 3.71e-05 6.07e-05 2.64e-05 
36 1 1.84595e-06 9.55e-06 6.57e-05 2.72e-05 
3 1 1.63977e-06 3.41573e-05 8.62424e-05 3.46416e-05 
8 1 1.54855e-06 3.12e-05 9.03e-05 3.35e-05 
4 1 1.71263e-06 4.93e-05 5.47e-05 3.61e-05 
52 1 1.4955e-06 3.40477e-05 8.55877e-05 3.32237e-05 
10 1 1.82544e-06 7.61e-05 2.58e-05 2.79e-06 
7 1 1.446e-06 9.38e-05 1.64e-05 3.52e-06 
28 1 1.76391e-06 7.2e-05 4.27e-06 4.27e-06 
43 1 1.446e-06 8.62e-05 4.35e-05 1.5e-05 
49 1 1.68187e-06 5.9e-05 1.8e-05 2.28e-05 
41 1 1.79468e-06 7.25e-05 4.43e-05 2.6e-05 
33 1 1.79468e-06 8.52e-05 1.07e-05 2.69e-05 
42 1 1.57932e-06 8.73e-05 3.71e-05 2.79e-05 
40 1 1.93825e-06 5.13e-05 2.98e-05 3.39e-05 
47 1 1.80493e-06 8.29e-05 1.11e-05 3.79e-05 
45 1 1.84595e-06 5.29e-05 1.8e-05 4.18e-05 
24 1 1.73314e-06 7.74e-05 2.62e-05 4.24e-05 
13 1 1.446e-06 6.67e-05 6.23e-05 1.01e-05 
19 1 1.53829e-06 9.26e-05 6.13e-05 1.07e-05 
15 1 1.87672e-06 8.11e-05 6.49e-05 1.63e-05 
50 1 1.87672e-06 8.14e-05 8.84e-05 2.09e-05 
34 1 1.43574e-06 5.7e-05 7.56e-05 2.16e-05 
23 1 1.42549e-06 5.59e-05 8.21e-05 2.8e-05 
48 1 1.93825e-06 5.85e-05 8.52e-05 2.98e-05 
17 1 1.91774e-06 8.46e-05 5.38e-05 3.31e-05 
32 1 1.86646e-06 9.61e-05 6.4e-05 3.7e-05 
37 1 1.85621e-06 7.22e-05 7.15e-05 3.73e-05 
6 1 1.96902e-06 5.4e-05 9.19e-05 4.28e-05 
ITEM: TIMESTEP
500
ITEM: NUMBER OF ATOMS
55
ITEM: BOX BOUNDS ff ff ff
0.0000000000000000e+00 1.0000000000000000e-04
0.0000000000000000e+00 1.0000000000000000e-04
0.0000000000000000e+00 5.0000000000000002e-05
ITEM: ATOMS id type diameter x y z 
38 1 1.63058e-06 1.39e-05 2.02e-05 7.94e-06 
26 1 1.82666e-06 1.92e-05 1.56e-05 8.08e-06 
14 1 1.46546e-06 4.79e-05 2.11e-05 9.81e-06 
27 1 1.76474e-06 6.67e-06 2.54e-05 1.87e-05 
29 1 1.85762e-06 4.5e-05 2.74e-05 1.94e-05 
12 1 1.65869e-06 4.28573e-05 4.18421e-05 2.29407e-05 
18 1 1.51706e-06 3.15e-05 1.3e-05 2.83e-05 
44 1 1.94018e-06 2.26e-05 2.75e-05 2.82e-05 
16 1 1.77506e-06 1.32e-05 4.39e-05 2.97e-05 
2 1 1.60795e-06 1.60584e-05 2.29935e-05 3.62299e-05 
46 1 1.81634e-06 1.16e-05 1.74e-05 3.87e-05 
35 1 1.81634e-06 7.65e-06 1.6e-05 4.09e-05 
39 1 1.83698e-06 4.34e-05 4.29e-05 4.27e-05 
22 1 1.91954e-06 3.46e-05 2.88e-05 4.74e-05 
51 1 1.51275e-06 4.27478e-05 4.1188e-05 2.15245e-05 
53 1 1.53577e-06 1.67262e-05 2.43747e-05 3.65624e-05 
25 1 1.5377e-06 4.68e-05 7.97e-05 4.55e-06 
21 1 1.5377e-06 3.71e-06 6.46e-05 5e-06 
1 1 1.65122e-06 1.85e-05 5.43e-05 1.25e-05 
31 1 1.55834e-06 4.6e-05 6.62e-05 1.94e-05 
20 1 1.4345e-06 3.67e-05 5.71e-05 2.1e-05 
30 1 1.60795e-06 3.16584e-05 5.39935e-05 2.11299e-05 
9 1 1.71314e-06 1.76e-06 7.07e-05 2.25e-05 
11 1 1.59962e-06 4.17e-05 9.67e-05 2.35e-05 
5 1 1.75442e-06 3.71e-05 6.07e-05 2.64e-05 
36 1 1.85762e-06 9.55e-06 6.57e-05 2.72e-05 
3 1 1.65014e-06 3.41573e-05 8.62424e-05 3.46416e-05 
8 1 1.55834e-06 3.12e-05 9.03e-05 3.35e-05 
4 1 1.72346e-06 4.93e-05 5.47e-05 3.61e-05 
52 1 1.50496e-06 3.40477e-05 8.55877e-05 3.32237e-05 
54 1 1.53577e-06 3.23262e-05 5.53747e-05 2.14624e-05 
10 1 1.83698e-06 7.61e-05 2.58e-05 2.79e-06 
7 1 1.45514e-06 9.38e-05 1.64e-05 3.52e-06 
28 1 1.77506e-06 7.2e-05 4.27e-06 4.27e-06 
43 1 1.45514e-06 8.62e-05 4.35e-05 1.5e-05 
49 1 1.6925e-06 5.9e-05 1.8e-05 2.28e-05 
41 1 1.80602e-06 7.25e-05 4.43e-05 2.6e-05 
33 1 1.80602e-06 8.52e-05 1.07e-05 2.69e-05 
42 1 1.5893e-06 8.73e-05 3.71e-05 2.79e-05 
40 1 1.9505e-06 5.13e-05 2.98e-05 3.39e-05 
47 1 1.81634e-06 8.29e-05 1.11e-05 3.79e-05 
45 1 1.85762e-06 5.29e-05 1.8e-05 4.18e-05 
24 1 1.7441e-06 7.74e-05 2.62e-05 4.24e-05 
13 1 1.45514e-06 6.67e-05 6.23e-05 1.01e-05 
19 1 1.54802e-06 9.26e-05 6.13e-05 1.07e-05 
15 1 1.88858e-06 8.11e-05 6.49e-05 1.63e-05 
50 1 1.88858e-06 8.14e-05 8.84e-05 2.09e-05 
34 1 1.44482e-06 5.7e-05 7.56e-05 2.16e-05 
23 1 1.4345e-06 5.59e-05 8.21e-05 2.8e-05 
48 1 1.9505e-06 5.85e-05 8.52e-05 2.98e-05 
17 1 1.92986e-06 8.46e-05 5.38e-05 3.31e-05 
32 1 1.87826e-06 9.61e-05 6.4e-05 3.7e-05 
37 1 1.86794e-06 7.22e-05 7.15e-05 3.73e-05 
6 1 1.64159e-06 5.40574e-05 9.22428e-05 4.35424e-05 
55 1 1.49716e-06 5.39477e-05 9.15873e-05 4.21229e-05 
ITEM: TIMESTEP
600
ITEM: NUMBER OF ATOMS
55
ITEM: BOX BOUNDS ff ff ff
0.0000000000000000e+00 1.0000000000000000e-04
0.0000000000000000e+00 1.0000000000000000e-04
0.0000000000000000e+00 5.0000000000000002e-05
ITEM: ATOMS id type diameter x y z 
38 1 1.64089e-06 1.39e-05 2.02e-05 7.94e-06 
26 1 1.83821e-06 1.92e-05 1.56e-05 8.08e-06 
14 1 1.47472e-06 4.79e-05 2.11e-05 9.81e-06 
27 1 1.7759e-06 6.67e-06 2.54e-05 1.87e-05 
29 1 1.86937e-06 4.5e-05 2.74e-05 1.94e-05 
12 1 1.66917e-06 4.28587e-05 4.18504e-05 2.29588e-05 
18 1 1.52665e-06 3.15e-05 1.3e-05 2.83e-05 
44 1 1.95245e-06 2.26e-05 2.75e-05 2.82e-05 
16 1 1.78628e-06 1.32e-05 4.39e-05 2.97e-05 
2 1 1.61812e-06 1.60584e-05 2.29935e-05 3.62299e-05 
46 1 1.82783e-06 1.16e-05 1.74e-05 3.87e-05 
35 1 1.82783e-06 7.65e-06 1.6e-05 4.09e-05 
39 1 1.8486e-06 4.34e-05 4.29e-05 4.27e-05 
22 1 1.93168e-06 3.46e-05 2.88e-05 4.74e-05 
51 1 1.52232e-06 4.27464e-05 4.11797e-05 2.15063e-05 
53 1 1.54548e-06 1.67262e-05 2.43747e-05 3.65624e-05 
25 1 1.54742e-06 4.68e-05 7.97e-05 4.55e-06 
21 1 1.54742e-06 3.71e-06 6.46e-05 5e-06 
1 1 1.66166e-06 1.85e-05 5.43e-05 1.25e-05 
31 1 1.56819e-06 4.6e-05 6.62e-05 1.94e-05 
20 1 1.44357e-06 3.67e-05 5.71e-05 2.1e-05 
30 1 1.61812e-06 3.16584e-05 5.39935e-05 2.11299e-05 
9 1 1.72397e-06 1.76e-06 7.07e-05 2.25e-05 
11 1 1.60973e-06 4.17e-05 9.67e-05 2.35e-05 
5 1 1.76551e-06 3.71e-05 6.07e-05 2.64e-05 
36 1 1.86937e-06 9.55e-06 6.57e-05 2.72e-05 
3 1 1.66057e-06 3.41573e-05 8.62424e-05 3.46416e-05 
8 1 1.56819e-06 3.12e-05 9.03e-05 3.35e-05 
4 1 1.73436e-06 4.93e-05 5.47e-05 3.61e-05 
52 1 1.51447e-06 3.40477e-05 8.55877e-05 3.32237e-05 
54 1 1.54548e-06 3.23262e-05 5.53747e-05 2.14624e-05 
10 1 1.8486e-06 7.61e-05 2.58e-05 2.79e-06 
7 1 1.46434e-06 9.38e-05 1.64e-05 3.52e-06 
28 1 1.78628e-06 7.2e-05 4.27e-06 4.27e-06 
43 1 1.46434e-06 8.62e-05 4.35e-05 1.5e-05 
49 1 1.7032e-06 5.9e-05 1.8e-05 2.28e-05 
41 1 1.81744e-06 7.25e-05 4.43e-05 2.6e-05 
33 1 1.81744e-06 8.52e-05 1.07e-05 2.69e-05 
42 1 1.59935e-06 8.73e-05 3.71e-05 2.79e-05 
40 1 1.96284e-06 5.13e-05 2.98e-05 3.39e-05 
47 1 1.82783e-06 8.29e-05 1.11e-05 3.79e-05 
45 1 1.86937e-06 5.29e-05 1.8e-05 4.18e-05 
24 1 1.75513e-06 7.74e-05 2.62e-05 4.24e-05 
13 1 1.46434e-06 6.67e-05 6.23e-05 1.01e-05 
19 1 1.55781e-06 9.26e-05 6.13e-05 1.07e-05 
15 1 1.90052e-06 8.11e-05 6.49e-05 1.63e-05 
50 1 1.90052e-06 8.14e-05 8.84e-05 2.09e-05 
34 1 1.45395e-06 5.7e-05 7.56e-05 2.16e-05 
23 1 1.44357e-06 5.59e-05 8.21e-05 2.8e-05 
48 1 1.96284e-06 5.85e-05 8.52e-05 2.98e-05 
17 1 1.94207e-06 8.46e-05 5.38e-05 3.31e-05 
32 1 1.89014e-06 9.61e-05 6.4e-05 3.7e-05 
37 1 1.87975e-06 7.22e-05 7.15e-05 3.73e-05 
6 1 1.65197e-06 5.40574e-05 9.22428e-05 4.35424e-05 
55 1 1.50662e-06 5.39477e-05 9.15873e-05 4.21229e-05 
ITEM: TIMESTEP
700
ITEM: NUMBER OF ATOMS
57
ITEM: BOX BOUNDS ff ff ff
0.0000000000000000e+00 1.0000000000000000e-04
0.0000000000000000e+00 1.0000000000000000e-04
0.0000000000000000e+00 5.0000000000000002e-05
ITEM: ATOMS id type diameter x y z 
38 1 1.65126e-06 1.39e-05 2.02e-05 7.94e-06 
26 1 1.84983e-06 1.92e-05 1.56e-05 8.08e-06 
14 1 1.48405e-06 4.79e-05 2.11e-05 9.81e-06 
27 1 1.78713e-06 6.67e-06 2.54e-05 1.87e-05 
29 1 1.88119e-06 4.5e-05 2.74e-05 1.94e-05 
12 1 1.67973e-06 4.28587e-05 4.18504e-05 2.29588e-05 
18 1 1.5363e-06 3.15e-05 1.3e-05 2.83e-05 
44 1 1.96479e-06 2.26e-05 2.75e-05 2.82e-05 
16 1 1.79758e-06 1.32e-05 4.39e-05 2.97e-05 
2 1 1.62835e-06 1.60584e-05 2.29935e-05 3.62299e-05 
46 1 1.83938e-06 1.16e-05 1.74e-05 3.87e-05 
35 1 1.83938e-06 7.65e-06 1.6e-05 4.09e-05 
39 1 1.86028e-06 4.34e-05 4.29e-05 4.27e-05 
22 1 1.94389e-06 3.46e-05 2.88e-05 4.74e-05 
51 1 1.53194e-06 4.27464e-05 4.11797e-05 2.15063e-05 
53 1 1.55525e-06 1.67262e-05 2.43747e-05 3.65624e-05 
25 1 1.5572e-06 4.68e-05 7.97e-05 4.55e-06 
21 1 1.5572e-06 3.71e-06 6.46e-05 5e-06 
1 1 1.67217e-06 1.85e-05 5.43e-05 1.25e-05 
31 1 1.57811e-06 4.6e-05 6.62e-05 1.94e-05 
20 1 1.45269e-06 3.67e-05 5.71e-05 2.1e-05 
30 1 1.62835e-06 3.16584e-05 5.39935e-05 2.11299e-05 
9 1 1.73487e-06 1.76e-06 7.07e-05 2.25e-05 
11 1 1.61991e-06 4.17e-05 9.67e-05 2.35e-05 
5 1 1.77668e-06 3.71e-05 6.07e-05 2.64e-05 
36 1 1.88119e-06 9.55e-06 6.57e-05 2.72e-05 
3 1 1.67107e-06 3.41587e-05 8.62508e-05 3.46597e-05 
8 1 1.57811e-06 3.12e-05 9.03e-05 3.35e-05 
4 1 1.74532e-06 4.93e-05 5.47e-05 3.61e-05 
52 1 1.52405e-06 3.40463e-05 8.55793e-05 3.32056e-05 
54 1 1.55525e-06 3.23262e-05 5.53747e-05 2.14624e-05 
10 1 1.86028e-06 7.61e-05 2.58e-05 2.79e-06 
7 1 1.4736e-06 9.38e-05 1.64e-05 3.52e-06 
28 1 1.79758e-06 7.2e-05 4.27e-06 4.27e-06 
43 1 1.4736e-06 8.62e-05 4.35e-05 1.5e-05 
49 1 1.71397e-06 5.9e-05 1.8e-05 2.28e-05 
41 1 1.82893e-06 7.25e-05 4.43e-05 2.6e-05 
33 1 1.82893e-06 8.52e-05 1.07e-05 2.69e-05 
42 1 1.60946e-06 8.73e-05 3.71e-05 2.79e-05 
40 1 1.63644e-06 5.13572e-05 3.01417e-05 3.464e-05 
47 1 1.83938e-06 8.29e-05 1.11e-05 3.79e-05 
45 1 1.88119e-06 5.29e-05 1.8e-05 4.18e-05 
24 1 1.76622e-06 7.74e-05 2.62e-05 4.24e-05 
56 1 1.49246e-06 5.12478e-05 2.94883e-05 3.32251e-05 
13 1 1.4736e-06 6.67e-05 6.23e-05 1.01e-05 
19 1 1.56765e-06 9.26e-05 6.13e-05 1.07e-05 
15 1 1.91254e-06 8.11e-05 6.49e-05 1.63e-05 
50 1 1.91254e-06 8.14e-05 8.84e-05 2.09e-05 
34 1 1.46314e-06 5.7e-05 7.56e-05 2.16e-05 
23 1 1.45269e-06 5.59e-05 8.21e-05 2.8e-05 
48 1 1.60291e-06 5.81595e-05 8.44958e-05 2.96305e-05 
17 1 1.95434e-06 8.46e-05 5.38e-05 3.31e-05 
32 1 1.90209e-06 9.61e-05 6.4e-05 3.7e-05 
37 1 1.89164e-06 7.22e-05 7.15e-05 3.73e-05 
6 1 1.66241e-06 5.40574e-05 9.22428e-05 4.35424e-05 
55 1 1.51615e-06 5.39477e-05 9.15873e-05 4.21229e-05 
57 1 1.53095e-06 5.88252e-05 8.58726e-05 2.99619e-05 
ITEM: TIMESTEP
800
ITEM: NUMBER OF ATOMS
58
ITEM: BOX BOUNDS ff ff ff
0.0000000000000000e+00 1.0000000000000000e-04
0.0000000000000000e+00 1.0000000000000000e-04
0.0000000000000000e+00 5.0000000000000002e-05
ITEM: ATOMS id type diameter x y z 
38 1 1.6617e-06 1.39e-05 2.02e-05 7.94e-06 
26 1 1.86153e-06 1.92e-05 1.56e-05 8.08e-06 
14 1 1.49343e-06 4.79e-05 2.11e-05 9.81e-06 
27 1 1.79842e-06 6.67e-06 2.54e-05 1.87e-05 
29 1 1.89308e-06 4.5e-05 2.74e-05 1.94e-05 
12 1 1.69035e-06 4.28587e-05 4.18504e-05 2.29588e-05 
18 1 1.54601e-06 3.15e-05 1.3e-05 2.83e-05 
44 1 1.53766e-06 2.25959e-05 2.75003e-05 2.74322e-05 
16 1 1.80894e-06 1.32e-05 4.39e-05 2.97e-05 
2 1 1.63864e-06 1.60499e-05 2.29759e-05 3.62257e-05 
46 1 1.85101e-06 1.16e-05 1.74e-05 3.87e-05 
35 1 1.85101e-06 7.65e-06 1.6e-05 4.09e-05 
39 1 1.87204e-06 4.34e-05 4.29e-05 4.27e-05 
22 1 1.95618e-06 3.46e-05 2.88e-05 4.74e-05 
51 1 1.54163e-06 4.27464e-05 4.11797e-05 2.15063e-05 
53 1 1.56508e-06 1.67347e-05 2.43923e-05 3.65667e-05 
58 1 1.59975e-06 2.26043e-05 2.74997e-05 2.89988e-05 
25 1 1.56705e-06 4.68e-05 7.97e-05 4.55e-06 
21 1 1.56705e-06 3.71e-06 6.46e-05 5e-06 
1 1 1.68274e-06 1.85e-05 5.43e-05 1.25e-05 
31 1 1.58808e-06 4.6e-05 6.62e-05 1.94e-05 
20 1 1.46188e-06 3.67e-05 5.71e-05 2.1e-05 
30 1 1.63864e-06 3.16499e-05 5.39759e-05 2.11257e-05 
9 1 1.74584e-06 1.76e-06 7.07e-05 2.25e-05 
11 1 1.63015e-06 4.17e-05 9.67e-05 2.35e-05 
5 1 1.78791e-06 3.71e-05 6.07e-05 2.64e-05 
36 1 1.89308e-06 9.55e-06 6.57e-05 2.72e-05 
3 1 1.68163e-06 3.41587e-05 8.62508e-05 3.46597e-05 
8 1 1.58808e-06 3.12e-05 9.03e-05 3.35e-05 
4 1 1.75636e-06 4.93e-05 5.47e-05 3.61e-05 
52 1 1.53368e-06 3.40463e-05 8.55793e-05 3.32056e-05 
54 1 1.56508e-06 3.23347e-05 5.53923e-05 2.14667e-05 
10 1 1.87204e-06 7.61e-05 2.58e-05 2.79e-06 
7 1 1.48291e-06 9.38e-05 1.64e-05 3.52e-06 
28 1 1.80894e-06 7.2e-05 4.27e-06 4.27e-06 
43 1 1.48291e-06 8.62e-05 4.35e-05 1.5e-05 
49 1 1.72481e-06 5.9e-05 1.8e-05 2.28e-05 
41 1 1.84049e-06 7.25e-05 4.43e-05 2.6e-05 
33 1 1.84049e-06 8.52e-05 1.07e-05 2.69e-05 
42 1 1.61963e-06 8.73e-05 3.71e-05 2.79e-05 
40 1 1.64678e-06 5.13572e-05 3.01417e-05 3.464e-05 
47 1 1.85101e-06 8.29e-05 1.11e-05 3.79e-05 
45 1 1.89308e-06 5.29e-05 1.8e-05 4.18e-05 
24 1 1.77739e-06 7.74e-05 2.62e-05 4.24e-05 
56 1 1.5019e-06 5.12478e-05 2.94883e-05 3.32251e-05 
13 1 1.48291e-06 6.67e-05 6.23e-05 1.01e-05 
19 1 1.57757e-06 9.26e-05 6.13e-05 1.07e-05 
15 1 1.92463e-06 8.11e-05 6.49e-05 1.63e-05 
50 1 1.92463e-06 8.14e-05 8.84e-05 2.09e-05 
34 1 1.47239e-06 5.7e-05 7.56e-05 2.16e-05 
23 1 1.46188e-06 5.59e-05 8.21e-05 2.8e-05 
48 1 1.61304e-06 5.81595e-05 8.44958e-05 2.96305e-05 
17 1 1.9667e-06 8.46e-05 5.38e-05 3.31e-05 
32 1 1.91411e-06 9.61e-05 6.4e-05 3.7e-05 
37 1 1.9036e-06 7.22e-05 7.15e-05 3.73e-05 
6 1 1.67292e-06 5.40588e-05 9.22512e-05 4.35605e-05 
55 1 1.52574e-06 5.39463e-05 9.1579e-05 4.21048e-05 
57 1 1.54063e-06 5.88252e-05 8.58726e-05 2.99619e-05 
ITEM: TIMESTEP
900
ITEM: NUMBER OF ATOMS
59
ITEM: BOX BOUNDS ff ff ff
0.0000000000000000e+00 1.0000000000000000e-04
0.0000000000000000e+00 1.0000000000000000e-04
0.0000000000000000e+00 5.0000000000000002e-05
ITEM: ATOMS id type diameter x y z 
38 1 1.67221e-06 1.39e-05 2.02e-05 7.94e-06 
26 1 1.8733e-06 1.92e-05 1.56e-05 8.08e-06 
14 1 1.50287e-06 4.79e-05 2.11e-05 9.81e-06 
27 1 1.80979e-06 6.67e-06 2.54e-05 1.87e-05 
29 1 1.90505e-06 4.5e-05 2.74e-05 1.94e-05 
12 1 1.70103e-06 4.28587e-05 4.18504e-05 2.29588e-05 
18 1 1.55579e-06 3.15e-05 1.3e-05 2.83e-05 
44 1 1.54738e-06 2.25959e-05 2.75003e-05 2.74322e-05 
16 1 1.82038e-06 1.32e-05 4.39e-05 2.97e-05 
2 1 1.649e-06 1.60499e-05 2.29759e-05 3.62257e-05 
46 1 1.86271e-06 1.16e-05 1.74e-05 3.87e-05 
35 1 1.86271e-06 7.65e-06 1.6e-05 4.09e-05 
39 1 1.88388e-06 4.34e-05 4.29e-05 4.27e-05 
22 1 1.96855e-06 3.46e-05 2.88e-05 4.74e-05 
51 1 1.55137e-06 4.27464e-05 4.11797e-05 2.15063e-05 
53 1 1.57498e-06 1.67347e-05 2.43923e-05 3.65667e-05 
58 1 1.60986e-06 2.26043e-05 2.74997e-05 2.89988e-05 
25 1 1.57696e-06 4.68e-05 7.97e-05 4.55e-06 
21 1 1.57696e-06 3.71e-06 6.46e-05 5e-06 
1 1 1.69338e-06 1.85e-05 5.43e-05 1.25e-05 
31 1 1.59812e-06 4.6e-05 6.62e-05 1.94e-05 
20 1 1.47112e-06 3.67e-05 5.71e-05 2.1e-05 
30 1 1.649e-06 3.16499e-05 5.39759e-05 2.11257e-05 
9 1 1.75688e-06 1.76e-06 7.07e-05 2.25e-05 
11 1 1.64046e-06 4.17e-05 9.67e-05 2.35e-05 
5 1 1.79921e-06 3.71e-05 6.07e-05 2.64e-05 
36 1 1.90505e-06 9.55e-06 6.57e-05 2.72e-05 
3 1 1.69226e-06 3.41587e-05 8.62508e-05 3.46597e-05 
8 1 1.59812e-06 3.12e-05 9.03e-05 3.35e-05 
4 1 1.76746e-06 4.93e-05 5.47e-05 3.61e-05 
52 1 1.54338e-06 3.40463e-05 8.55793e-05 3.32056e-05 
54 1 1.57498e-06 3.23347e-05 5.53923e-05 2.14667e-05 
10 1 1.88388e-06 7.61e-05 2.58e-05 2.79e-06 
7 1 1.49229e-06 9.38e-05 1.64e-05 3.52e-06 
28 1 1.82038e-06 7.2e-05 4.27e-06 4.27e-06 
43 1 1.49229e-06 8.62e-05 4.35e-05 1.5e-05 
49 1 1.73571e-06 5.9e-05 1.8e-05 2.28e-05 
41 1 1.85213e-06 7.25e-05 4.43e-05 2.6e-05 
33 1 1.85213e-06 8.52e-05 1.07e-05 2.69e-05 
42 1 1.62987e-06 8.73e-05 3.71e-05 2.79e-05 
40 1 1.65719e-06 5.13572e-05 3.01417e-05 3.464e-05 
47 1 1.86271e-06 8.29e-05 1.11e-05 3.79e-05 
45 1 1.90505e-06 5.29e-05 1.8e-05 4.18e-05 
24 1 1.78863e-06 7.74e-05 2.62e-05 4.24e-05 
56 1 1.51139e-06 5.12478e-05 2.94883e-05 3.32251e-05 
13 1 1.49229e-06 6.67e-05 6.23e-05 1.01e-05 
19 1 1.58754e-06 9.26e-05 6.13e-05 1.07e-05 
15 1 1.9368e-06 8.11e-05 6.49e-05 1.63e-05 
50 1 1.9368e-06 8.14e-05 8.84e-05 2.09e-05 
34 1 1.4817e-06 5.7e-05 7.56e-05 2.16e-05 
23 1 1.47112e-06 5.59e-05 8.21e-05 2.8e-05 
48 1 1.62324e-06 5.81595e-05 8.44958e-05 2.96305e-05 
17 1 1.53915e-06 8.45959e-05 5.38003e-05 3.23314e-05 
32 1 1.92621e-06 9.61e-05 6.4e-05 3.7e-05 
37 1 1.91563e-06 7.22e-05 7.15e-05 3.73e-05 
6 1 1.6835e-06 5.40588e-05 9.22512e-05 4.35605e-05 
55 1 1.53538e-06 5.39463e-05 9.1579e-05 4.21048e-05 
57 1 1.55037e-06 5.88252e-05 8.58726e-05 2.99619e-05 
59 1 1.6013e-06 8.46043e-05 5.37997e-05 3.38996e-05 
ITEM: TIMESTEP
1000
ITEM: NUMBER OF ATOMS
60
ITEM: BOX BOUNDS ff ff ff
0.0000000000000000e+00 1.0000000000000000e-04
0.0000000000000000e+00 1.0000000000000000e-04
0.0000000000000000e+00 5.0000000000000002e-05
ITEM: ATOMS id type diameter x y z 
38 1 1.68278e-06 1.39e-05 2.02e-05 7.94e-06 
26 1 1.88514e-06 1.92e-05 1.56e-05 8.08e-06 
14 1 1.51237e-06 4.79e-05 2.11e-05 9.81e-06 
27 1 1.82124e-06 6.67e-06 2.54e-05 1.87e-05 
29 1 1.91709e-06 4.5e-05 2.74e-05 1.94e-05 
51 1 1.56118e-06 4.2745e-05 4.11713e-05 2.14882e-05 
12 1 1.71179e-06 4.28601e-05 4.18588e-05 2.29769e-05 
44 1 1.55716e-06 2.25959e-05 2.75003e-05 2.74322e-05 
18 1 1.56562e-06 3.15e-05 1.3e-05 2.83e-05 
58 1 1.62004e-06 2.26043e-05 2.74997e-05 2.89988e-05 
16 1 1.83189e-06 1.32e-05 4.39e-05 2.97e-05 
2 1 1.65943e-06 1.60499e-05 2.29759e-05 3.62257e-05 
53 1 1.58494e-06 1.67347e-05 2.43923e-05 3.65667e-05 
46 1 1.87449e-06 1.16e-05 1.74e-05 3.87e-05 
35 1 1.87449e-06 7.65e-06 1.6e-05 4.09e-05 
39 1 1.89579e-06 4.34e-05 4.29e-05 4.27e-05 
60 1 1.64459e-06 3.51734e-05 2.91967e-05 4.69662e-05 
22 1 1.4927e-06 3.40795e-05 2.84399e-05 4.77937e-05 
25 1 1.58693e-06 4.68e-05 7.97e-05 4.55e-06 
21 1 1.58693e-06 3.71e-06 6.46e-05 5e-06 
1 1 1.70408e-06 1.85e-05 5.43e-05 1.25e-05 
31 1 1.60823e-06 4.6e-05 6.62e-05 1.94e-05 
20 1 1.48042e-06 3.67e-05 5.71e-05 2.1e-05 
30 1 1.65943e-06 3.16499e-05 5.39759e-05 2.11257e-05 
54 1 1.58494e-06 3.23347e-05 5.53923e-05 2.14667e-05 
9 1 1.76798e-06 1.76e-06 7.07e-05 2.25e-05 
11 1 1.65083e-06 4.17e-05 9.67e-05 2.35e-05 
5 1 1.81059e-06 3.71e-05 6.07e-05 2.64e-05 
36 1 1.91709e-06 9.55e-06 6.57e-05 2.72e-05 
52 1 1.55314e-06 3.40463e-05 8.55793e-05 3.32056e-05 
8 1 1.60823e-06 3.12e-05 9.03e-05 3.35e-05 
3 1 1.70296e-06 3.41587e-05 8.62508e-05 3.46597e-05 
4 1 1.77863e-06 4.93e-05 5.47e-05 3.61e-05 
10 1 1.89579e-06 7.61e-05 2.58e-05 2.79e-06 
7 1 1.50172e-06 9.38e-05 1.64e-05 3.52e-06 
28 1 1.83189e-06 7.2e-05 4.27e-06 4.27e-06 
43 1 1.50172e-06 8.62e-05 4.35e-05 1.5e-05 
49 1 1.74668e-06 5.9e-05 1.8e-05 2.28e-05 
41 1 1.86384e-06 7.25e-05 4.43e-05 2.6e-05 
33 1 1.86384e-06 8.52e-05 1.07e-05 2.69e-05 
42 1 1.64018e-06 8.73e-05 3.71e-05 2.79e-05 
56 1 1.52095e-06 5.12464e-05 2.948e-05 3.3207e-05 
40 1 1.66767e-06 5.13586e-05 3.01501e-05 3.46582e-05 
47 1 1.87449e-06 8.29e-05 1.11e-05 3.79e-05 
45 1 1.91709e-06 5.29e-05 1.8e-05 4.18e-05 
24 1 1.79994e-06 7.74e-05 2.62e-05 4.24e-05 
13 1 1.50172e-06 6.67e-05 6.23e-05 1.01e-05 
19 1 1.59758e-06 9.26e-05 6.13e-05 1.07e-05 
15 1 1.94904e-06 8.11e-05 6.49e-05 1.63e-05 
50 1 1.94904e-06 8.14e-05 8.84e-05 2.09e-05 
34 1 1.49107e-06 5.7e-05 7.56e-05 2.16e-05 
23 1 1.48042e-06 5.59e-05 8.21e-05 2.8e-05 
48 1 1.6335e-06 5.8151e-05 8.44782e-05 2.96262e-05 
57 1 1.56017e-06 5.88337e-05 8.58902e-05 2.99662e-05 
17 1 1.54888e-06 8.45959e-05 5.38003e-05 3.23314e-05 
59 1 1.61142e-06 8.46043e-05 5.37997e-05 3.38996e-05 
32 1 1.93839e-06 9.61e-05 6.4e-05 3.7e-05 
37 1 1.92774e-06 7.22e-05 7.15e-05 3.73e-05 
55 1 1.54509e-06 5.39463e-05 9.1579e-05 4.21048e-05 
6 1 1.69414e-06 5.40588e-05 9.22512e-05 4.35605e-05 
ITEM: TIMESTEP
1100
ITEM: NUMBER OF ATOMS
60
ITEM: BOX BOUNDS ff ff ff
0.0000000000000000e+00 1.0000000000000000e-04