 NUFEB Simulation

     100 atoms 
     2 atom types 
     4 nutrients 

  0.0e-4   1.00e-04  xlo xhi 
  0.0e-4   1.00e-04  ylo yhi 
  0.0e-4   1.00e-05  zlo zhi 

 Atoms 

     1 1 1.80e-06  370 2.90e-06 6.99e-06 2.86e-06 1.80e-06 
     2 1 1.86e-06  370 4.99e-05 8.04e-05 7.17e-06 1.86e-06 
     3 1 1.84e-06  370 4.13e-05 5.38e-05 5.33e-06 1.84e-06 
     4 1 1.72e-06  370 3.21e-05 2.79e-05 2.11e-06 1.72e-06 
     5 1 1.78e-06  370 5.63e-06 3.59e-05 4.31e-06 1.78e-06 
     6 1 1.67e-06  370 1.97e-05 1.20e-05 6.02e-06 1.67e-06 
     7 1 1.51e-06  370 7.54e-05 8.63e-05 2.57e-06 1.51e-06 
     8 1 1.71e-06  370 1.27e-05 6.41e-05 3.76e-06 1.71e-06 
     9 1 1.54e-06  370 8.90e-05 7.54e-05 6.55e-06 1.54e-06 
     10 1 1.77e-06  370 6.68e-06 4.76e-05 8.22e-06 1.77e-06 
     11 1 1.51e-06  370 5.27e-05 6.75e-05 7.04e-06 1.51e-06 
     12 1 1.82e-06  370 5.01e-05 6.16e-05 2.96e-06 1.82e-06 
     13 1 1.38e-06  370 6.32e-05 2.68e-06 6.37e-06 1.38e-06 
     14 1 1.84e-06  370 4.73e-05 2.90e-06 2.50e-06 1.84e-06 
     15 1 1.70e-06  370 1.66e-05 4.80e-05 5.86e-06 1.70e-06 
     16 1 1.60e-06  370 4.43e-05 5.58e-05 4.46e-06 1.60e-06 
     17 1 1.87e-06  370 6.11e-05 8.91e-05 6.38e-06 1.87e-06 
     18 1 1.71e-06  370 6.09e-06 2.68e-05 5.64e-06 1.71e-06 
     19 1 1.88e-06  370 1.49e-05 1.96e-05 4.51e-06 1.88e-06 
     20 1 1.83e-06  370 6.40e-05 6.33e-05 4.83e-06 1.83e-06 
     21 1 1.86e-06  370 5.48e-05 5.50e-05 2.25e-06 1.86e-06 
     22 1 1.74e-06  370 2.67e-05 2.62e-05 4.95e-06 1.74e-06 
     23 1 1.63e-06  370 1.47e-05 9.09e-05 3.31e-06 1.63e-06 
     24 1 1.78e-06  370 7.63e-05 8.67e-05 5.69e-06 1.78e-06 
     25 1 1.64e-06  370 7.34e-05 1.39e-05 2.35e-06 1.64e-06 
     26 1 1.94e-06  370 2.21e-05 5.92e-05 4.48e-06 1.94e-06 
     27 1 1.47e-06  370 1.90e-05 1.82e-05 5.26e-06 1.47e-06 
     28 1 1.60e-06  370 4.51e-05 6.58e-05 4.00e-06 1.60e-06 
     29 1 1.73e-06  370 3.67e-05 9.50e-05 6.60e-06 1.73e-06 
     30 1 1.86e-06  370 4.17e-05 4.11e-05 5.18e-06 1.86e-06 
     31 1 1.80e-06  370 8.92e-05 7.23e-05 4.77e-06 1.80e-06 
     32 1 1.53e-06  370 4.21e-06 9.64e-05 5.45e-06 1.53e-06 
     33 1 1.67e-06  370 8.62e-05 9.75e-05 4.68e-06 1.67e-06 
     34 1 1.91e-06  370 6.47e-05 7.81e-05 4.45e-06 1.91e-06 
     35 1 1.54e-06  370 5.18e-05 3.76e-05 3.39e-06 1.54e-06 
     36 1 1.70e-06  370 5.56e-05 6.27e-05 6.49e-06 1.70e-06 
     37 1 1.44e-06  370 5.39e-05 9.70e-05 1.76e-06 1.44e-06 
     38 1 1.82e-06  370 9.24e-05 7.72e-06 6.01e-06 1.82e-06 
     39 1 1.93e-06  370 6.72e-05 9.07e-05 3.32e-06 1.93e-06 
     40 1 1.82e-06  370 4.52e-05 1.61e-05 5.72e-06 1.82e-06 
     41 1 1.92e-06  370 3.19e-05 8.76e-05 5.55e-06 1.92e-06 
     42 1 1.78e-06  370 3.95e-05 3.08e-05 7.37e-06 1.78e-06 
     43 1 1.54e-06  370 1.53e-05 2.40e-05 2.23e-06 1.54e-06 
     44 1 1.63e-06  370 2.13e-05 3.29e-05 5.60e-06 1.63e-06 
     45 1 1.70e-06  370 6.49e-05 4.92e-05 8.13e-06 1.70e-06 
     46 1 1.83e-06  370 5.57e-05 2.22e-05 4.55e-06 1.83e-06 
     47 1 1.40e-06  370 8.66e-06 1.19e-05 5.18e-06 1.40e-06 
     48 1 1.45e-06  370 2.21e-05 1.38e-05 1.65e-06 1.45e-06 
     49 1 1.55e-06  370 9.65e-05 3.17e-06 6.03e-06 1.55e-06 
     50 1 1.63e-06  370 6.79e-05 8.57e-05 5.35e-06 1.63e-06 
     51 2 1.30e-06  230 5.48e-05 5.12e-05 5.53e-06 1.30e-06 
     52 2 1.24e-06  230 1.47e-05 6.67e-05 2.64e-06 1.24e-06 
     53 2 1.14e-06  230 3.13e-05 9.17e-05 5.31e-06 1.14e-06 
     54 2 1.06e-06  230 5.65e-05 5.57e-05 6.70e-06 1.06e-06 
     55 2 9.24e-07  230 5.89e-05 1.69e-05 4.46e-06 9.24e-07 
     56 2 8.82e-07  230 2.72e-05 9.49e-05 1.68e-06 8.82e-07 
     57 2 1.13e-06  230 4.09e-05 3.68e-06 6.19e-06 1.13e-06 
     58 2 9.59e-07  230 4.09e-05 6.71e-05 1.00e-06 9.59e-07 
     59 2 1.06e-06  230 4.53e-05 2.84e-05 3.38e-06 1.06e-06 
     60 2 1.26e-06  230 5.58e-05 4.73e-05 8.16e-06 1.26e-06 
     61 2 1.28e-06  230 4.20e-06 6.05e-05 4.80e-06 1.28e-06 
     62 2 8.92e-07  230 6.43e-05 4.11e-05 5.04e-06 8.92e-07 
     63 2 9.67e-07  230 4.91e-05 6.90e-05 5.12e-06 9.67e-07 
     64 2 1.23e-06  230 8.90e-05 3.35e-05 7.60e-06 1.23e-06 
     65 2 1.28e-06  230 4.96e-05 8.86e-05 3.48e-06 1.28e-06 
     66 2 1.07e-06  230 8.33e-05 9.70e-05 1.69e-06 1.07e-06 
     67 2 1.29e-06  230 4.43e-05 4.70e-05 3.71e-06 1.29e-06 
     68 2 1.37e-06  230 7.04e-05 4.24e-05 2.32e-06 1.37e-06 
     69 2 1.35e-06  230 3.41e-05 7.66e-05 2.13e-06 1.35e-06 
     70 2 8.88e-07  230 7.63e-05 6.11e-06 3.03e-06 8.88e-07 
     71 2 1.29e-06  230 1.59e-05 3.05e-05 4.68e-06 1.29e-06 
     72 2 1.01e-06  230 3.33e-05 1.46e-05 5.00e-06 1.01e-06 
     73 2 1.18e-06  230 5.63e-06 7.71e-05 1.64e-06 1.18e-06 
     74 2 1.24e-06  230 7.73e-05 1.79e-05 5.31e-06 1.24e-06 
     75 2 1.21e-06  230 6.94e-05 8.98e-05 5.30e-06 1.21e-06 
     76 2 1.33e-06  230 6.98e-05 8.93e-05 8.10e-06 1.33e-06 
     77 2 1.28e-06  230 1.73e-05 1.38e-05 5.41e-06 1.28e-06 
     78 2 1.26e-06  230 7.48e-05 5.57e-05 2.92e-06 1.26e-06 
     79 2 1.33e-06  230 8.50e-05 3.61e-05 6.47e-06 1.33e-06 
     80 2 1.23e-06  230 8.16e-05 7.70e-05 2.75e-06 1.23e-06 
     81 2 9.89e-07  230 1.15e-06 1.18e-05 4.03e-06 9.89e-07 
     82 2 1.21e-06  230 6.07e-05 4.43e-05 3.46e-06 1.21e-06 
     83 2 1.22e-06  230 3.19e-05 2.11e-05 6.92e-06 1.22e-06 
     84 2 1.38e-06  230 2.56e-05 6.97e-05 7.22e-06 1.38e-06 
     85 2 1.24e-06  230 1.51e-06 6.16e-05 2.61e-06 1.24e-06 
     86 2 9.71e-07  230 2.74e-05 4.82e-05 6.23e-06 9.71e-07 
     87 2 1.31e-06  230 6.71e-05 2.60e-05 7.27e-06 1.31e-06 
     88 2 1.22e-06  230 5.07e-05 4.96e-05 6.20e-06 1.22e-06 
     89 2 9.76e-07  230 2.69e-05 3.53e-05 4.34e-06 9.76e-07 
     90 2 8.99e-07  230 1.75e-06 3.58e-05 6.74e-06 8.99e-07 
     91 2 1.24e-06  230 8.27e-05 6.09e-05 7.43e-06 1.24e-06 
     92 2 1.14e-06  230 6.38e-05 7.72e-05 7.54e-06 1.14e-06 
     93 2 9.85e-07  230 3.26e-05 4.08e-05 6.05e-06 9.85e-07 
     94 2 1.13e-06  230 4.00e-05 7.81e-05 8.45e-06 1.13e-06 
     95 2 1.33e-06  230 7.97e-05 3.06e-05 2.30e-06 1.33e-06 
     96 2 9.32e-07  230 6.23e-05 3.68e-05 3.17e-06 9.32e-07 
     97 2 9.17e-07  230 2.03e-05 7.57e-05 4.17e-06 9.17e-07 
     98 2 1.06e-06  230 7.50e-05 1.50e-05 2.13e-06 1.06e-06 
     99 2 1.20e-06  230 7.20e-05 6.52e-05 3.97e-06 1.20e-06 
     100 2 1.17e-06  230 6.99e-05 3.23e-05 7.92e-06 1.17e-06 

 Nutrients 

     1 sub g nn nn nn 1.00e-01 1.00e-01 
     2 o2 l nn nn nd 9.00e-03 9.00e-03 
     3 suc l nn nn nn 3.42e-20 3.42e-20 
     4 co2 l nn nn nd 2.99e-02 2.99e-02 

 Type Name 

     1 cyano  
     2 ecw  

 Diffusion Coeffs 

     sub 0 
     o2 2.3e-09 
     suc 5.2e-10 
     co2 1.9e-09 

 Growth Rate 

     cyano 1.67e-05 
     ecw 4e-06 

 Ks 

     cyano 0.00035 0.0002 0.01 0.000138 
     ecw 0 0.001 3.6 0.05 

 Yield 

     cyano 0.55 
     ecw 0.43 

 Maintenance 

     cyano 0 
     ecw 9.5e-07 

 Decay 

     cyano 0 
     ecw 0 



