LAMMPS (20 Nov 2019)
Reading data file ...
  orthogonal box = (0 0 0) to (0.0001 0.0001 1e-05)
  8 by 4 by 1 MPI processor grid
  reading atoms ...
  100 atoms
  4 nutrients
Lattice spacing in x,y,z = 100 100 100
50 atoms in group CYANO
50 atoms in group ECW
Model is defined as a closed system. 
Neighbor list info ...
  update every 1 steps, delay 0 steps, check yes
  max neighbors/atom: 5000, page size: 100000
  master list distance cutoff = 2.41e-06
  ghost atom cutoff = 2.41e-06
  binsize = 1.205e-06, bins = 83 83 9
  1 neighbor lists, perpetual/occasional/extra = 1 0 0
  (1) pair gran/hooke/history, perpetual
      attributes: half, newton off, size, history
      pair build: half/size/bin/newtoff
      stencil: half/bin/3d/newtoff
      bin: standard
Setting up Verlet run ...
  Unit style    : lj
  Current step  : 0
  Time step     : 10
Per MPI rank memory allocation (min/avg/max) = 5.794 | 10.59 | 12.11 Mbytes
Step CPU Atoms c_myNtypes[1] c_myNtypes[2] c_myMass[1] c_myMass[2] c_myCon[1] c_myCon[2] c_myCon[3] c_myCon[4] 
       0            0      100           50           50 4.3283071e-14 9.9380871e-15          0.1        0.009     3.42e-20       0.0299 
number of iterations: 322829 
     100    15.664608      139           50           89 4.3856667e-14 9.9300178e-15          0.1 0.0090007406  0.034771269  0.029898766 
number of iterations: 4392 
     200     16.03163      159           50          109 4.4437865e-14 9.9223771e-15          0.1 0.0090007503  0.068908313   0.02989875 
number of iterations: 2766 
     300    16.316166      159           50          109 4.5026766e-14 9.9151583e-15          0.1 0.0090007603   0.10348346  0.029898733 
number of iterations: 2259 
     400    16.553066      159           50          109 4.562347e-14 9.9083541e-15          0.1 0.0090007703   0.13850619  0.029898717 
number of iterations: 1952 
     500    16.767855      159           50          109 4.6228082e-14 9.9019602e-15          0.1 0.0090007805   0.17398324    0.0298987 
number of iterations: 1738 
     600    16.972209      159           50          109 4.6840707e-14 9.8959728e-15          0.1 0.0090007909   0.20992109  0.029898682 
number of iterations: 1577 
     700    17.187334      160           51          109 4.746145e-14 9.8903886e-15          0.1 0.0090008013   0.24632626  0.029898665 
number of iterations: 1449 
     800    17.393866      160           51          109 4.809042e-14 9.8852039e-15          0.1 0.0090008119   0.28320517  0.029898647 
number of iterations: 1344 
     900    17.605574      161           52          109 4.8727724e-14 9.8804153e-15          0.1   0.00900082   0.32056436  0.029898634 
number of iterations: 1568 
    1000    17.833642      163           54          109 4.9373475e-14 9.8760187e-15          0.1 0.0090008338   0.35841042  0.029898611 
number of iterations: 1405 
    1100    18.038949      163           54          109 5.0027783e-14 9.8720121e-15          0.1 0.0090008448   0.39675002  0.029898592 
number of iterations: 1408 
    1200    18.223962      163           54          109 5.0690762e-14 9.8683926e-15          0.1  0.009000856   0.43558991  0.029898574 
number of iterations: 1410 
    1300    18.410191      164           55          109 5.1362527e-14 9.8651573e-15          0.1 0.0090008673   0.47493693  0.029898555 
number of iterations: 1413 
    1400    18.598977      164           55          109 5.2043194e-14 9.8623031e-15          0.1 0.0090008788   0.51479798  0.029898536 
number of iterations: 1390 
    1500    18.775384      165           56          109 5.2732882e-14 9.8598272e-15          0.1 0.0090008904   0.55518013  0.029898516 
number of iterations: 1372 
    1600     18.94468      167           58          109 5.3431709e-14 9.8577272e-15          0.1 0.0090008956   0.59609039  0.029898508 
number of iterations: 1419 
    1700    19.140578      167           58          109 5.4139798e-14 9.8560001e-15          0.1 0.0090009074   0.63753599  0.029898488 
number of iterations: 1422 
    1800    19.337937      168           59          109 5.485727e-14 9.8546432e-15          0.1 0.0090009194    0.6795242  0.029898468 
number of iterations: 1425 
    1900    19.578884      168           59          109 5.558425e-14 9.8536538e-15          0.1 0.0090009316   0.72206239  0.029898448 
number of iterations: 1424 
    2000    19.784638      169           60          109 5.6320865e-14 9.8530294e-15          0.1  0.009000944   0.76515803  0.029898427 
number of iterations: 1538 
    2100    19.991195      170           61          109 5.7067241e-14 9.8527675e-15          0.1 0.0090009623   0.80881869  0.029898397 
number of iterations: 1433 
    2200    20.170966      171           62          109 5.7823508e-14 9.8528654e-15          0.1 0.0090009751   0.85305201  0.029898375 
number of iterations: 1436 
    2300    20.369043      171           62          109 5.8589798e-14 9.8533203e-15          0.1  0.009000988   0.89786573  0.029898354 
number of iterations: 1439 
    2400    20.539968      171           62          109 5.9366243e-14 9.8541298e-15          0.1 0.0090010011    0.9432677  0.029898332 
number of iterations: 1442 
    2500    20.734033      171           62          109 6.0152977e-14 9.8552914e-15          0.1 0.0090010143   0.98926587   0.02989831 
number of iterations: 1445 
    2600    20.904963      171           62          109 6.0950137e-14 9.8568029e-15          0.1 0.0090010278    1.0358683  0.029898288 
number of iterations: 1447 
    2700    21.086251      171           62          109 6.1757861e-14 9.8586617e-15          0.1 0.0090010414    1.0830832  0.029898265 
number of iterations: 1450 
    2800    21.284668      171           62          109 6.2576289e-14 9.8608657e-15          0.1 0.0090010552    1.1309187  0.029898242 
number of iterations: 1453 
    2900    21.495074      171           62          109 6.3405564e-14 9.8634124e-15          0.1 0.0090010691    1.1793833  0.029898219 
number of iterations: 1456 
    3000    21.700329      171           62          109 6.4245828e-14 9.8662997e-15          0.1 0.0090010833    1.2284856  0.029898195 
number of iterations: 1467 
    3100    21.908175      172           63          109 6.5097227e-14 9.8695258e-15          0.1 0.0090010991    1.2782339  0.029898169 
number of iterations: 1504 
    3200    22.099276      172           63          109 6.5959909e-14 9.8730877e-15          0.1 0.0090011137    1.3286372  0.029898144 
number of iterations: 1464 
    3300    22.296981      172           63          109 6.6834024e-14 9.8769836e-15          0.1 0.0090011284    1.3797042   0.02989812 
number of iterations: 1470 
    3400     22.46507      174           65          109 6.7719723e-14 9.8812116e-15          0.1 0.0090011434    1.4314438  0.029898095 
number of iterations: 1471 
    3500    22.637915      175           66          109 6.8617159e-14 9.8857685e-15          0.1 0.0090011572    1.4838652  0.029898072 
number of iterations: 1473 
    3600    22.819894      175           66          109 6.9526488e-14 9.8906531e-15          0.1 0.0090011725    1.5369774  0.029898046 
number of iterations: 1455 
    3700    22.987751      178           69          109 7.0447868e-14 9.8958636e-15          0.1 0.0090011867    1.5907898  0.029898023 
number of iterations: 1484 
    3800    23.179251      180           71          109 7.1381458e-14 9.9013988e-15          0.1 0.0090012025    1.6453119  0.029897996 
number of iterations: 1480 
    3900    23.371323      181           72          109 7.232742e-14 9.9072556e-15          0.1  0.009001211    1.7005531  0.029897982 
number of iterations: 1484 
    4000    23.563248      181           72          109 7.3285918e-14 9.9134321e-15          0.1  0.009001227    1.7565231  0.029897955 
number of iterations: 1443 
    4100    23.746209      182           73          109 7.4257119e-14 9.9199264e-15          0.1 0.0090012379    1.8132317  0.029897937 
number of iterations: 1485 
    4200    23.919443      182           73          109 7.524119e-14 9.9267366e-15          0.1 0.0090012543    1.8706889   0.02989791 
number of iterations: 1488 
    4300    24.095333      182           73          109 7.6238302e-14 9.9338609e-15          0.1 0.0090012709    1.9289047  0.029897882 
number of iterations: 1484 
    4400     24.26863      184           75          109 7.7248628e-14 9.9412972e-15          0.1 0.0090012878    1.9878889  0.029897854 
number of iterations: 1494 
    4500    24.489706      184           75          109 7.8272343e-14 9.9490438e-15          0.1 0.0090013048    2.0476523  0.029897826 
number of iterations: 1496 
    4600    24.718396      185           76          109 7.9309625e-14 9.9570991e-15          0.1 0.0090013221    2.1082053  0.029897797 
number of iterations: 1499 
    4700    24.904035      185           76          109 8.0360653e-14 9.9654613e-15          0.1 0.0090013397    2.1695584  0.029897768 
number of iterations: 1652 
    4800    25.088016      187           78          109 8.1425609e-14 9.9741283e-15          0.1 0.0090013618    2.2317223  0.029897731 
number of iterations: 1505 
    4900    25.278435      188           78          110 8.2504678e-14 9.9830987e-15          0.1 0.0090013799     2.294708  0.029897701 
number of iterations: 1523 
    5000    25.475392      188           78          110 8.3598048e-14 9.9923708e-15          0.1 0.0090013982    2.3585265   0.02989767 
number of iterations: 1527 
    5100    25.655898      190           80          110 8.4705907e-14 1.0001943e-14          0.1 0.0090014167    2.4231893  0.029897639 
number of iterations: 1513 
    5200    25.836919      191           81          110 8.5828447e-14 1.0011813e-14          0.1 0.0090014355    2.4887073  0.029897608 
number of iterations: 1534 
    5300    26.010068      191           81          110 8.6965863e-14 1.002198e-14          0.1 0.0090014545    2.5550921  0.029897576 
number of iterations: 1540 
    5400    26.188825      193           83          110 8.8118353e-14 1.0032443e-14          0.1 0.0090014738    2.6223552  0.029897544 
number of iterations: 1580 
    5500    26.366257      194           84          110 8.9286116e-14 1.0043199e-14          0.1 0.0090014982    2.6905084  0.029897504 
number of iterations: 1505 
    5600    26.562571      196           86          110 9.0469354e-14 1.0054248e-14          0.1 0.0090015126    2.7595634   0.02989748 
number of iterations: 1533 
    5700    26.742926      196           86          110 9.1668273e-14 1.0065587e-14          0.1 0.0090015327    2.8295323  0.029897446 
number of iterations: 1544 
    5800    26.929581      198           88          110 9.288308e-14 1.0077216e-14          0.1  0.009001553    2.9004275  0.029897412 
number of iterations: 1510 
    5900    27.100441      202           91          111 9.4113986e-14 1.0089134e-14          0.1 0.0090015683    2.9722615  0.029897387 
number of iterations: 1566 
    6000    27.319099      202           91          111 9.5361204e-14 1.0101337e-14          0.1 0.0090015891    3.0450466  0.029897352 
number of iterations: 1537 
    6100    27.511574      202           91          111 9.662495e-14 1.0113825e-14          0.1 0.0090016101    3.1187957  0.029897317 
number of iterations: 1572 
    6200    27.682951      206           95          111 9.7905444e-14 1.0126596e-14          0.1 0.0090016315    3.1935215  0.029897282 
number of iterations: 1543 
    6300    27.869294      206           95          111 9.9202907e-14 1.013965e-14          0.1 0.0090016531    3.2692373  0.029897246 
number of iterations: 1517 
    6400     28.05423      208           97          111 1.0051756e-13 1.0152984e-14          0.1 0.0090016703    3.3459564  0.029897217 
number of iterations: 1564 
    6500    28.254011      211          100          111 1.0184964e-13 1.0166598e-14          0.1 0.0090016887    3.4236921  0.029897186 
number of iterations: 1562 
    6600    28.457856      214          103          111 1.0319938e-13 1.018049e-14          0.1 0.0090017085    3.5024581  0.029897153 
number of iterations: 1676 
    6700    28.673248      217          106          111  1.04567e-13 1.0194659e-14          0.1 0.0090017353    3.5822686  0.029897109 
number of iterations: 1558 
    6800     28.84798      217          106          111 1.0595274e-13 1.0209105e-14          0.1 0.0090017583     3.663137   0.02989707 
number of iterations: 1525 
    6900     29.03864      220          108          112 1.0735685e-13 1.0223824e-14          0.1 0.0090017752    3.7450774  0.029897042 
number of iterations: 1634 
    7000    29.234675      223          111          112 1.0877956e-13 1.0238816e-14          0.1 0.0090018018    3.8281038  0.029896998 
number of iterations: 1550 
    7100    29.435719      226          113          113 1.1022113e-13 1.0254082e-14          0.1 0.0090018209    3.9122309  0.029896966 
number of iterations: 1669 
    7200    29.709542      229          116          113 1.1168181e-13 1.0269618e-14          0.1 0.0090018424    3.9974732   0.02989693 
number of iterations: 1566 
    7300    29.910137      230          117          113 1.1316184e-13 1.0285423e-14          0.1 0.0090018641    4.0838458  0.029896894 
number of iterations: 1571 
    7400    30.115249      230          117          113 1.1466148e-13 1.0301497e-14          0.1 0.0090018888    4.1713639  0.029896853 
number of iterations: 1683 
    7500    30.307512      233          119          114  1.16181e-13 1.0317838e-14          0.1 0.0090019196    4.2600431  0.029896801 
number of iterations: 1570 
    7600    30.490143      234          120          114 1.1772065e-13 1.0334446e-14          0.1 0.0090019403    4.3498986  0.029896767 
number of iterations: 1620 
    7700    30.670144      236          121          115 1.1928071e-13 1.0351318e-14          0.1 0.0090019718    4.4409462  0.029896715 
number of iterations: 1551 
    7800    30.860541      238          123          115 1.2086144e-13 1.0368455e-14          0.1 0.0090019932    4.5332016  0.029896679 
number of iterations: 1619 
    7900    31.035238      239          124          115 1.2246312e-13 1.0385854e-14          0.1 0.0090020225    4.6266811   0.02989663 
number of iterations: 1577 
    8000    31.218945      241          126          115 1.2408603e-13 1.0403515e-14          0.1 0.0090020493    4.7214012  0.029896585 
number of iterations: 1590 
    8100    31.462754      241          126          115 1.2573044e-13 1.0421438e-14          0.1 0.0090020765    4.8173783   0.02989654 
number of iterations: 1582 
    8200    31.659561      242          127          115 1.2739665e-13 1.0439619e-14          0.1 0.0090021012     4.914629  0.029896499 
number of iterations: 1620 
    8300    31.841416      243          128          115 1.2908493e-13 1.0458059e-14          0.1 0.0090021336    5.0131703  0.029896445 
number of iterations: 1608 
    8400    32.025672      244          129          115 1.3079559e-13 1.0476758e-14          0.1 0.0090021619    5.1130195  0.029896398 
number of iterations: 1602 
    8500    32.233654      244          129          115 1.3252892e-13 1.0495713e-14          0.1 0.0090021905     5.214194   0.02989635 
number of iterations: 1704 
    8600    32.415158      246          131          115 1.3428522e-13 1.0514924e-14          0.1 0.0090022226    5.3167115  0.029896297 
number of iterations: 1624 
    8700    32.605225      248          133          115 1.360648e-13 1.053439e-14          0.1 0.0090022523    5.4205895  0.029896247 
number of iterations: 1710 
    8800    32.788317      250          135          115 1.3786796e-13 1.055411e-14          0.1 0.0090022854    5.5258464  0.029896192 
number of iterations: 1615 
    8900    32.982107      252          136          116 1.3969501e-13 1.0574083e-14          0.1 0.0090023157    5.6325008  0.029896142 
number of iterations: 1617 
    9000    33.172022      254          138          116 1.4154628e-13 1.0594308e-14          0.1 0.0090023464    5.7405709  0.029896091 
number of iterations: 1620 
    9100    33.365663      254          138          116 1.4342207e-13 1.0614785e-14          0.1 0.0090023775    5.8500759  0.029896039 
number of iterations: 1671 
    9200    33.552972      257          140          117 1.4532273e-13 1.0635512e-14          0.1 0.0090024116    5.9610349  0.029895982 
number of iterations: 1632 
    9300    33.744236      260          143          117 1.4724858e-13 1.0656489e-14          0.1 0.0090024452    6.0734674  0.029895926 
number of iterations: 1636 
    9400    33.927718      265          148          117 1.4919995e-13 1.0677716e-14          0.1  0.009002473    6.1873933   0.02989588 
number of iterations: 1631 
    9500    34.105289      265          148          117 1.5117717e-13 1.069919e-14          0.1 0.0090025043    6.3028317  0.029895828 
number of iterations: 1634 
    9600    34.281657      267          150          117 1.531806e-13 1.0720911e-14          0.1 0.0090025375     6.419803  0.029895772 
number of iterations: 1739 
    9700    34.472729      270          153          117 1.5521058e-13 1.0742879e-14          0.1 0.0090025743    6.5383276  0.029895711 
number of iterations: 1642 
    9800    34.731203      271          154          117 1.5726746e-13 1.0765093e-14          0.1 0.0090026084    6.6584263  0.029895654 
number of iterations: 1624 
    9900    34.926308      273          156          117 1.593516e-13 1.0787552e-14          0.1  0.009002643    6.7801202  0.029895596 
number of iterations: 1652 
   10000    35.099187      275          158          117 1.6146336e-13 1.0810255e-14          0.1 0.0090026785    6.9034307  0.029895537 
number of iterations: 1659 
   10100    35.292862      275          158          117 1.6360311e-13 1.0833201e-14          0.1  0.009002714    7.0283791  0.029895478 
number of iterations: 1653 
   10200    35.473247      275          158          117 1.6577121e-13 1.0856391e-14          0.1   0.00900275    7.1549871  0.029895418 
number of iterations: 1751 
   10300    35.675466      276          159          117 1.6796804e-13 1.0879822e-14          0.1 0.0090027909    7.2832768   0.02989535 
number of iterations: 1608 
   10400    35.863251      279          162          117 1.7019399e-13 1.0903495e-14          0.1  0.009002813    7.4132707  0.029895313 
number of iterations: 1764 
   10500    36.044861      281          164          117 1.7244943e-13 1.0927409e-14          0.1 0.0090028571    7.5449918   0.02989524 
number of iterations: 1685 
   10600    36.266738      285          168          117 1.7473476e-13 1.0951563e-14          0.1 0.0090028907    7.6784626  0.029895184 
number of iterations: 1631 
   10700     36.48019      287          170          117 1.7705038e-13 1.0975957e-14          0.1 0.0090029199    7.8137063  0.029895135 
number of iterations: 1626 
   10800      36.6632      293          176          117 1.7939669e-13 1.100059e-14          0.1  0.009002954    7.9507467  0.029895078 
number of iterations: 1635 
   10900    36.852285      293          176          117 1.8177409e-13 1.1025461e-14          0.1 0.0090029878    8.0896081  0.029895022 
number of iterations: 1637 
   11000    37.030722      296          179          117 1.8418299e-13 1.105057e-14          0.1 0.0090030239    8.2303142  0.029894962 
number of iterations: 1751 
   11100    37.240719      301          184          117 1.8662382e-13 1.1075915e-14          0.1  0.009003066    8.3728899  0.029894892 
number of iterations: 1808 
   11200    37.433257      303          185          118  1.89097e-13 1.1101497e-14          0.1 0.0090031216    8.5173599  0.029894799 
number of iterations: 1725 
   11300    37.633913      307          189          118 1.9160295e-13 1.1127316e-14          0.1 0.0090031728     8.663749  0.029894714 
number of iterations: 1739 
   11400    37.833939      312          194          118 1.9414211e-13 1.115337e-14          0.1 0.0090032198    8.8120834  0.029894636 
number of iterations: 1757 
   11500    38.020116      315          197          118 1.9671491e-13 1.1179659e-14          0.1 0.0090032669    8.9623887  0.029894557 
number of iterations: 1742 
   11600    38.215399      318          199          119 1.9932182e-13 1.1206182e-14          0.1 0.0090033048    9.1146905  0.029894494 
number of iterations: 1684 
   11700    38.422546      318          199          119 2.0196327e-13 1.123294e-14          0.1 0.0090033486    9.2690161  0.029894421 
number of iterations: 1760 
   11800    38.611128      324          205          119 2.0463973e-13 1.1259931e-14          0.1 0.0090033948    9.4253915  0.029894344 
number of iterations: 1710 
   11900    38.813111      327          207          120 2.0735165e-13 1.1287155e-14          0.1 0.0090034447    9.5838443  0.029894261 
number of iterations: 1764 
   12000    38.992528      328          208          120 2.1009951e-13 1.1314612e-14          0.1 0.0090034948    9.7444026  0.029894178 
number of iterations: 1693 
   12100    39.196736      329          209          120 2.1288379e-13 1.1342301e-14          0.1 0.0090035411    9.9070937  0.029894101 
number of iterations: 1657 
   12200    39.379788      334          212          122 2.1570497e-13 1.1370222e-14          0.1 0.0090035793    10.071946  0.029894037 
number of iterations: 1762 
   12300    39.613473      336          214          122 2.1856353e-13 1.1398373e-14          0.1 0.0090036328    10.238989  0.029893948 
number of iterations: 1678 
   12400    39.804223      338          216          122 2.2145998e-13 1.1426756e-14          0.1  0.009003674    10.408251  0.029893879 
number of iterations: 1716 
   12500    40.000835      341          219          122 2.2439481e-13 1.1455369e-14          0.1 0.0090037155    10.579763   0.02989381 
number of iterations: 1724 
   12600    40.188221      347          224          123 2.2736853e-13 1.1484211e-14          0.1 0.0090037665    10.753554  0.029893725 
number of iterations: 1722 
   12700    40.370692      348          224          124 2.3038166e-13 1.1513283e-14          0.1 0.0090038114    10.929654   0.02989365 
number of iterations: 1699 
   12800    40.540467      353          229          124 2.3343472e-13 1.1542584e-14          0.1 0.0090038538    11.108093   0.02989358 
number of iterations: 1757 
   12900    40.725182      361          236          125 2.3652824e-13 1.1572114e-14          0.1 0.0090039015    11.288903    0.0298935 
number of iterations: 1772 
   13000    40.934477      366          241          125 2.3966276e-13 1.1601873e-14          0.1 0.0090039636    11.472114  0.029893397 
number of iterations: 1734 
   13100    41.133275      368          243          125 2.4283881e-13 1.163186e-14          0.1 0.0090040161    11.657759   0.02989331 
number of iterations: 1723 
   13200    41.356003      372          247          125 2.4605696e-13 1.1662074e-14          0.1 0.0090040654    11.845871  0.029893228 
number of iterations: 1737 
   13300    41.545378      378          253          125 2.4931775e-13 1.1692516e-14          0.1 0.0090041179    12.036482   0.02989314 
number of iterations: 1753 
   13400    41.744129      384          258          126 2.5262176e-13 1.1723185e-14          0.1 0.0090041737    12.229625  0.029893047 
number of iterations: 1757 
   13500      41.9653      386          260          126 2.5596955e-13 1.1754081e-14          0.1 0.0090042252    12.425334  0.029892961 
number of iterations: 1775 
   13600    42.172935      390          264          126 2.593617e-13 1.1785203e-14          0.1 0.0090042764    12.623643  0.029892876 
number of iterations: 1828 
   13700    42.363044      391          265          126 2.6279881e-13 1.1816552e-14          0.1 0.0090043396    12.824588  0.029892771 
number of iterations: 1753 
   13800    42.550697      393          267          126 2.6628147e-13 1.1848127e-14          0.1 0.0090043971    13.028203  0.029892675 
number of iterations: 1746 
   13900    42.742676      395          269          126 2.6981028e-13 1.1879927e-14          0.1 0.0090044554    13.234523  0.029892578 
number of iterations: 1735 
   14000    42.957356      397          270          127 2.7338586e-13 1.1911953e-14          0.1 0.0090045077    13.443584  0.029892491 
number of iterations: 1742 
   14100    43.177362      401          274          127 2.7700882e-13 1.1944205e-14          0.1 0.0090045638    13.655423  0.029892397 
number of iterations: 1755 
   14200    43.372178      401          274          127 2.8067979e-13 1.1976681e-14          0.1 0.0090046216    13.870075  0.029892301 
number of iterations: 1804 
   14300    43.581796      407          279          128 2.8439941e-13 1.2009382e-14          0.1 0.0090046916    14.087578  0.029892185 
number of iterations: 1776 
   14400    43.793238      409          281          128 2.8816832e-13 1.2042308e-14          0.1 0.0090047525    14.307972  0.029892083 
number of iterations: 1798 
   14500    43.997849      415          287          128 2.9198718e-13 1.2075459e-14          0.1  0.009004817    14.531294  0.029891976 
number of iterations: 1734 
   14600    44.181038      419          291          128 2.9585664e-13 1.2108834e-14          0.1 0.0090048718    14.757582  0.029891884 
number of iterations: 1750 
   14700    44.361022      421          293          128 2.9977739e-13 1.2142433e-14          0.1 0.0090049309    14.986877  0.029891786 
number of iterations: 1779 
   14800    44.651693      425          296          129 3.0375009e-13 1.2176255e-14          0.1 0.0090049992    15.219219  0.029891672 
number of iterations: 1847 
   14900    44.848934      432          302          130 3.0777544e-13 1.2210302e-14          0.1  0.009005074    15.454647  0.029891548 
number of iterations: 1796 
   15000    45.047578      439          307          132 3.1185414e-13 1.2244571e-14          0.1 0.0090051343    15.693203  0.029891447 
number of iterations: 1775 
   15100    45.263759      441          309          132 3.1598688e-13 1.2279064e-14          0.1 0.0090051992    15.934928  0.029891339 
number of iterations: 1788 
   15200    45.459011      442          310          132 3.201744e-13 1.231378e-14          0.1 0.0090052657    16.179864  0.029891229 
number of iterations: 1750 
   15300    45.646868      447          315          132 3.2441741e-13 1.2348719e-14          0.1 0.0090053263    16.428055  0.029891128 
number of iterations: 1809 
   15400    45.846872      456          324          132 3.2871664e-13 1.2383881e-14          0.1 0.0090053966    16.679543   0.02989101 
number of iterations: 1854 
   15500     46.05408      462          330          132 3.3307285e-13 1.2419266e-14          0.1 0.0090054604    16.934371  0.029890904 
number of iterations: 1917 
   15600    46.276377      469          337          132 3.3748679e-13 1.2454873e-14          0.1 0.0090055427    17.192586  0.029890767 
number of iterations: 1804 
   15700    46.470297      471          339          132 3.4195922e-13 1.2490703e-14          0.1 0.0090056118    17.454231  0.029890652 
number of iterations: 1860 
   15800    46.675846      475          342          133 3.4649093e-13 1.2526755e-14          0.1 0.0090056902    17.719352  0.029890522 
number of iterations: 1806 
   15900    46.863765      478          345          133 3.5108268e-13 1.256303e-14          0.1 0.0090057656    17.987995  0.029890396 
number of iterations: 1779 
   16000    47.064421      486          351          135 3.5573529e-13 1.2599527e-14          0.1 0.0090058234    18.260206    0.0298903 
number of iterations: 1860 
   16100    47.294176      491          356          135 3.6044956e-13 1.2636246e-14          0.1 0.0090059138    18.536034  0.029890149 
number of iterations: 1847 
   16200    47.497423      494          359          135 3.652263e-13 1.2673188e-14          0.1 0.0090059982    18.815526  0.029890009 
number of iterations: 1856 
   16300    47.688916      496          361          135 3.7006634e-13 1.2710352e-14          0.1 0.0090060834    19.098731  0.029889867 
number of iterations: 1806 
   16400    47.897379      501          366          135 3.7497052e-13 1.2747739e-14          0.1 0.0090061604    19.385697  0.029889738 
number of iterations: 1853 
   16500    48.098199      504          369          135 3.7993969e-13 1.2785347e-14          0.1 0.0090062382    19.676476  0.029889609 
number of iterations: 1855 
   16600    48.288142      512          374          138 3.8497472e-13 1.2823178e-14          0.1 0.0090063173    19.971117  0.029889477 
number of iterations: 1874 
   16700    48.491965      516          378          138 3.9007646e-13 1.2861231e-14          0.1 0.0090064107    20.269673  0.029889322 
number of iterations: 1834 
   16800    48.679545      523          384          139 3.9524582e-13 1.2899506e-14          0.1 0.0090065007    20.572194  0.029889172 
number of iterations: 1823 
   16900     48.89235      532          393          139 4.0048369e-13 1.2938003e-14          0.1   0.00900658    20.878734   0.02988904 
number of iterations: 1866 
   17000    49.091826      538          399          139 4.0579096e-13 1.2976722e-14          0.1 0.0090066736    21.189344  0.029888884 
number of iterations: 1836 
   17100    49.314038      539          400          139 4.1116857e-13 1.3015663e-14          0.1 0.0090067562    21.504081  0.029888746 
number of iterations: 1895 
   17200    49.514711      547          408          139 4.1661744e-13 1.3054826e-14          0.1 0.0090068436    21.822997  0.029888601 
number of iterations: 1862 
   17300    49.811333      552          413          139 4.2213853e-13 1.3094212e-14          0.1 0.0090069421    22.146149  0.029888437 
number of iterations: 1862 
   17400      50.0053      556          417          139 4.2773278e-13 1.3133819e-14          0.1 0.0090070342    22.473593  0.029888283 
number of iterations: 1872 
   17500    50.204833      565          424          141 4.3340116e-13 1.3173649e-14          0.1  0.009007135    22.805385  0.029888115 
number of iterations: 1934 
   17600    50.422981      574          433          141 4.3914466e-13 1.3213701e-14          0.1 0.0090072386    23.141585  0.029887943 
number of iterations: 1862 
   17700    50.612248      579          437          142 4.4496428e-13 1.3253976e-14          0.1 0.0090073352     23.48225  0.029887782 
number of iterations: 1924 
   17800    50.834339      587          445          142 4.5086101e-13 1.3294473e-14          0.1 0.0090074484    23.827439  0.029887594 
number of iterations: 1864 
   17900    51.062709      597          455          142 4.568359e-13 1.3335193e-14          0.1 0.0090075423    24.177212  0.029887437 
number of iterations: 1910 
   18000       51.321      601          459          142 4.6288996e-13 1.3376135e-14          0.1 0.0090076327    24.531631  0.029887287 
number of iterations: 1899 
   18100    51.531355      610          467          143 4.6902425e-13  1.34173e-14          0.1 0.0090077357    24.890755  0.029887115 
number of iterations: 1936 
   18200    51.744227      617          474          143 4.7523983e-13 1.3458688e-14          0.1 0.0090078392     25.25465  0.029886943 
number of iterations: 1917 
   18300    51.943251      624          480          144 4.8153778e-13 1.3500298e-14          0.1 0.0090079528    25.623377  0.029886754 
number of iterations: 1852 
   18400    52.162296      632          486          146 4.879192e-13 1.3542132e-14          0.1 0.0090080398    25.997001  0.029886609 
number of iterations: 1936 
   18500    52.363548      640          494          146 4.9438518e-13 1.3584189e-14          0.1 0.0090081672    26.375587  0.029886397 
number of iterations: 1855 
   18600    52.578654      646          500          146 5.0093685e-13 1.3626469e-14          0.1 0.0090082585      26.7592  0.029886244 
number of iterations: 1862 
   18700     52.78795      649          503          146 5.0757534e-13 1.3668973e-14          0.1 0.0090083566    27.147907  0.029886081 
number of iterations: 1926 
   18800    52.996661      656          509          147 5.143018e-13  1.37117e-14          0.1 0.0090084906    27.541776  0.029885858 
number of iterations: 1932 
   18900    53.204218      664          517          147 5.2111741e-13 1.3754651e-14          0.1 0.0090086196    27.940875  0.029885643 
number of iterations: 1872 
   19000    53.445407      670          522          148 5.2802334e-13 1.3797826e-14          0.1 0.0090087263    28.345274  0.029885466 
number of iterations: 1935 
   19100    53.656939      677          527          150 5.3502078e-13 1.3841225e-14          0.1 0.0090088535    28.755045  0.029885254 
number of iterations: 1896 
   19200    53.854353      681          530          151 5.4211096e-13 1.3884849e-14          0.1 0.0090089608    29.170256  0.029885075 
number of iterations: 1895 
   19300     54.06117      688          536          152 5.4929509e-13 1.3928696e-14          0.1 0.0090090668     29.59098  0.029884899 
number of iterations: 1933 
   19400    54.284531      695          541          154 5.5657443e-13 1.3972769e-14          0.1 0.0090091954     30.01729  0.029884684 
number of iterations: 1949 
   19500    54.488818      704          550          154 5.6395023e-13 1.4017066e-14          0.1 0.0090093362    30.449259   0.02988445 
number of iterations: 1941 
   19600    54.817131      713          558          155 5.7142379e-13 1.4061589e-14          0.1 0.0090094662    30.886965  0.029884233 
number of iterations: 1939 
   19700    55.029945      724          569          155 5.7899638e-13 1.4106336e-14          0.1 0.0090095933    31.330482  0.029884022 
number of iterations: 1947 
   19800     55.23942      732          577          155 5.8666932e-13 1.415131e-14          0.1 0.0090097077    31.779889  0.029883831 
number of iterations: 1919 
   19900    55.436222      743          587          156 5.9444394e-13 1.4196509e-14          0.1 0.0090098329    32.235262  0.029883623 
number of iterations: 1939 
   20000    55.672224      748          592          156 6.023216e-13 1.4241934e-14          0.1 0.0090099718     32.69668  0.029883391 
number of iterations: 1933 
   20100    55.886858      759          601          158 6.1030365e-13 1.4287585e-14          0.1 0.0090101006    33.164225  0.029883177 
number of iterations: 1977 
   20200    56.091397      770          612          158 6.1839148e-13 1.4333463e-14          0.1 0.0090102483    33.637976  0.029882931 
number of iterations: 1908 
   20300    56.291057      780          620          160 6.2658649e-13 1.4379567e-14          0.1 0.0090103812    34.118018   0.02988271 
number of iterations: 1907 
   20400    56.503248      789          629          160 6.348901e-13 1.4425898e-14          0.1 0.0090105062    34.604433  0.029882502 
number of iterations: 1893 
   20500    56.706204      799          638          161 6.4330375e-13 1.4472457e-14          0.1 0.0090106321    35.097307  0.029882292 
number of iterations: 1991 
   20600    56.927467      806          645          161 6.518289e-13 1.4519243e-14          0.1 0.0090107864    35.596723  0.029882035 
number of iterations: 1947 
   20700    57.125785      811          649          162 6.6046703e-13 1.4566257e-14          0.1 0.0090109268     36.10277  0.029881801 
number of iterations: 1966 
   20800    57.345507      819          657          162 6.6921963e-13 1.4613498e-14          0.1 0.0090110636    36.615535  0.029881573 
number of iterations: 1937 
   20900    57.555064      825          663          162 6.7808822e-13 1.4660968e-14          0.1 0.0090112039    37.135106   0.02988134 
number of iterations: 1970 
   21000     57.77731      841          678          163 6.8707433e-13 1.4708667e-14          0.1 0.0090113483    37.661573  0.029881099 
number of iterations: 1968 
   21100    57.972435      850          686          164 6.9617953e-13 1.4756594e-14          0.1 0.0090114982     38.19503   0.02988085 
number of iterations: 1912 
   21200    58.185478      862          698          164 7.0540539e-13 1.480475e-14          0.1  0.009011631    38.735567  0.029880629 
number of iterations: 2019 
   21300    58.406258      869          705          164 7.1475352e-13 1.4853136e-14          0.1 0.0090118083    39.283279  0.029880333 
number of iterations: 1957 
   21400    58.635716      878          713          165 7.2422552e-13 1.4901752e-14          0.1 0.0090119639    39.838263  0.029880074 
number of iterations: 2008 
   21500    58.857904      886          721          165 7.3382305e-13 1.4950598e-14          0.1 0.0090121483    40.400613  0.029879767 
number of iterations: 1988 
   21600    59.072952      895          730          165 7.4354777e-13 1.4999675e-14          0.1 0.0090123197    40.970428  0.029879482 
number of iterations: 1947 
   21700    59.295001      900          735          165 7.5340136e-13 1.5048982e-14          0.1 0.0090124716    41.547808  0.029879229 
number of iterations: 1991 
   21800    59.529181      907          741          166 7.6338552e-13 1.509852e-14          0.1 0.0090126491    42.132851  0.029878933 
number of iterations: 1998 
   21900    59.765644      919          752          167  7.73502e-13 1.514829e-14          0.1 0.0090128318    42.725659  0.029878629 
number of iterations: 2026 
   22000    59.974204      934          767          167 7.8375254e-13 1.5198293e-14          0.1 0.0090130106    43.326338  0.029878331 
number of iterations: 1985 
   22100    60.179958      946          778          168 7.9413893e-13 1.5248527e-14          0.1 0.0090131629    43.934989  0.029878077 
number of iterations: 1970 
   22200    60.386359      953          785          168 8.0466295e-13 1.5298994e-14          0.1 0.0090133384     44.55172  0.029877785 
number of iterations: 2002 
   22300    60.616853      967          799          168 8.1532644e-13 1.5349693e-14          0.1  0.009013521    45.176636  0.029877481 
number of iterations: 1999 
   22400    60.825909      981          813          168 8.2613124e-13 1.5400627e-14          0.1 0.0090137049    45.809846  0.029877175 
number of iterations: 2054 
   22500    61.039982      997          829          168 8.3707923e-13 1.5451793e-14          0.1 0.0090138956    46.451461  0.029876857 
number of iterations: 2015 
   22600    61.238742     1011          843          168 8.481723e-13 1.5503194e-14          0.1 0.0090140744    47.101592   0.02987656 
number of iterations: 1968 
   22700    61.503566     1024          856          168 8.5941237e-13 1.555483e-14          0.1 0.0090142492    47.760353  0.029876269 
number of iterations: 2006 
   22800    61.737508     1032          864          168 8.708014e-13 1.5606701e-14          0.1 0.0090144402    48.427858  0.029875951 
number of iterations: 1987 
   22900    61.990471     1043          873          170 8.8234136e-13 1.5658807e-14          0.1 0.0090146172    49.104221  0.029875656 
number of iterations: 2034 
   23000    62.204657     1057          887          170 8.9403424e-13 1.5711149e-14          0.1 0.0090148182    49.789559  0.029875321 
number of iterations: 1992 
   23100    62.433161     1066          896          170 9.0588208e-13 1.5763727e-14          0.1  0.009015016    50.483994  0.029874992 
number of iterations: 2053 
   23200    62.661951     1074          904          170 9.1788693e-13 1.5816541e-14          0.1   0.00901524    51.187646  0.029874619 
number of iterations: 2050 
   23300    62.868763     1087          916          171 9.3005087e-13 1.5869593e-14          0.1 0.0090154465    51.900637  0.029874275 
number of iterations: 2027 
   23400    63.082617     1101          930          171  9.42376e-13 1.5922883e-14          0.1 0.0090156486    52.623089  0.029873938 
number of iterations: 2023 
   23500    63.290426     1116          945          171 9.5379038e-13 1.597641e-14          0.1 0.0090158396    53.354305   0.02987362 
number of iterations: 2035 
   23600    63.521635     1126          955          171 9.664301e-13 1.6030175e-14          0.1 0.0090160396    54.095226  0.029873287 
number of iterations: 2052 
   23700    63.744792     1139          967          172 9.7923733e-13 1.608418e-14          0.1 0.0090162638    54.845979  0.029872914 
number of iterations: 2020 
   23800    63.963708     1150          978          172 9.9221429e-13 1.6138423e-14          0.1 0.0090164679    55.606694  0.029872574 
number of iterations: 2063 
   23900    64.196888     1163          990          173 1.0053632e-12 1.6192907e-14          0.1 0.0090166927    56.377506    0.0298722 
number of iterations: 2053 
   24000     64.42299     1171          998          173 1.0186864e-12 1.6247631e-14          0.1 0.0090168973    57.158547  0.029871859 
number of iterations: 2063 
   24100    64.688817     1189         1016          173 1.0321861e-12 1.6302595e-14          0.1 0.0090171102    57.949951  0.029871504 
number of iterations: 2036 
   24200    64.913963     1206         1033          173 1.0458647e-12 1.6357801e-14          0.1 0.0090173325    58.751857  0.029871134 
number of iterations: 2052 
   24300    65.127403     1224         1050          174 1.0597246e-12 1.6413249e-14          0.1  0.009017562    59.564404  0.029870752 
number of iterations: 2059 
   24400    65.363451     1239         1064          175 1.0737682e-12 1.6468939e-14          0.1 0.0090178004    60.387735  0.029870355 
number of iterations: 2043 
   24500    65.578893     1250         1073          177 1.0879979e-12 1.6524872e-14          0.1 0.0090180287    61.221992  0.029869975 
number of iterations: 2065 
   24600    65.844038     1265         1088          177 1.1024161e-12 1.6581048e-14          0.1  0.009018269    62.067317  0.029869575 
number of iterations: 2095 
   24700    66.093477     1283         1106          177 1.1170254e-12 1.6637467e-14          0.1 0.0090185164    62.923859  0.029869163 
number of iterations: 2059 
   24800    66.327682     1294         1117          177 1.1318284e-12 1.6694131e-14          0.1 0.0090187727    63.791765  0.029868736 
number of iterations: 2066 
   24900    66.552028     1311         1133          178 1.1468274e-12 1.675104e-14          0.1 0.0090190065    64.671187  0.029868347 
number of iterations: 2078 
   25000    66.767024     1324         1146          178 1.1620253e-12 1.6808194e-14          0.1 0.0090192641    65.562281  0.029867918 
number of iterations: 2084 
   25100    66.989918     1344         1166          178 1.1774245e-12 1.6865594e-14          0.1 0.0090195159    66.465198  0.029867498 
number of iterations: 2102 
   25200    67.219321     1360         1180          180 1.1930279e-12 1.6923241e-14          0.1  0.009019794    67.380096  0.029867035 
number of iterations: 2036 
   25300    67.446377     1379         1199          180 1.208838e-12 1.6981134e-14          0.1 0.0090200319    68.307132  0.029866639 
number of iterations: 2084 
   25400    67.662332     1390         1210          180 1.2248576e-12 1.7039275e-14          0.1 0.0090203061     69.24647  0.029866183 
number of iterations: 2119 
   25500    67.898859     1412         1232          180 1.2410895e-12 1.7097664e-14          0.1 0.0090205923    70.198271  0.029865706 
number of iterations: 2063 
   25600      68.1659     1422         1241          181 1.2575365e-12 1.7156302e-14          0.1 0.0090208389      71.1627  0.029865295 
number of iterations: 2087 
   25700    68.385214     1427         1246          181 1.2742015e-12 1.7215189e-14          0.1 0.0090211064    72.139926   0.02986485 
number of iterations: 2111 
   25800    68.628998     1446         1265          181 1.2910873e-12 1.7274326e-14          0.1 0.0090213972    73.130118  0.029864366 
number of iterations: 2078 
   25900    68.859861     1471         1288          183 1.3081968e-12 1.7333713e-14          0.1 0.0090216681    74.133446  0.029863915 
number of iterations: 2086 
   26000    69.081462     1488         1305          183 1.3255332e-12 1.7393351e-14          0.1 0.0090219464    75.150086  0.029863451 
number of iterations: 2094 
   26100    69.310058     1502         1319          183 1.3430992e-12 1.745324e-14          0.1 0.0090222258    76.180214  0.029862986 
number of iterations: 2120 
   26200    69.524809     1512         1327          185 1.360898e-12 1.7513382e-14          0.1 0.0090225056    77.224011   0.02986252 
number of iterations: 2147 
   26300    69.795387     1533         1348          185 1.3789327e-12 1.7573777e-14          0.1 0.0090228222    78.281655  0.029861993 
number of iterations: 2098 
   26400     70.04364     1554         1369          185 1.3972064e-12 1.7634425e-14          0.1 0.0090231294    79.353333  0.029861481 
number of iterations: 2129 
   26500    70.284781     1583         1397          186 1.4157223e-12 1.7695326e-14          0.1 0.0090234318     80.43923  0.029860978 
number of iterations: 2110 
   26600    70.525251     1600         1413          187 1.4344835e-12 1.7756483e-14          0.1 0.0090237188    81.539533    0.0298605 
number of iterations: 2107 
   26700    70.758825     1616         1428          188 1.4534934e-12 1.7817895e-14          0.1  0.009024016    82.654433  0.029860005 
number of iterations: 2135 
   26800     70.98164     1633         1444          189 1.4727551e-12 1.7879562e-14          0.1 0.0090243411    83.784125  0.029859464 
number of iterations: 2125 
   26900    71.220952     1652         1462          190 1.4922722e-12 1.7941486e-14          0.1 0.0090246501    84.928805  0.029858949 
number of iterations: 2142 
   27000    71.517078     1680         1488          192 1.5120478e-12 1.8003668e-14          0.1  0.009025011    86.088673  0.029858348 
number of iterations: 2179 
   27100    71.757972     1699         1505          194 1.5320856e-12 1.8066107e-14          0.1 0.0090253636    87.263928  0.029857761 
number of iterations: 2129 
   27200    71.999101     1726         1531          195 1.5523888e-12 1.8128804e-14          0.1 0.0090257221    88.454774  0.029857164 
number of iterations: 2109 
   27300    72.235972     1738         1543          195 1.5729611e-12 1.8191761e-14          0.1  0.009026055    89.661418   0.02985661 
number of iterations: 2131 
   27400    72.533542     1763         1567          196 1.5928251e-12 1.8254977e-14          0.1 0.0090264005    90.883315  0.029856034 
number of iterations: 2150 
   27500    72.768582     1784         1588          196 1.6139332e-12 1.8318454e-14          0.1 0.0090267559    92.121421  0.029855443 
number of iterations: 2145 
   27600    73.002245     1808         1611          197 1.6353211e-12 1.8382192e-14          0.1 0.0090271234    93.375951  0.029854831 
number of iterations: 2144 
   27700    73.245044     1830         1632          198 1.6569925e-12 1.8446192e-14          0.1 0.0090274871    94.647124  0.029854225 
number of iterations: 2125 
   27800    73.470118     1857         1659          198 1.678951e-12 1.8510454e-14          0.1 0.0090278198    95.935159  0.029853671 
number of iterations: 2155 
   27900    73.685915     1880         1681          199 1.7012005e-12 1.8574979e-14          0.1 0.0090281956     97.24028  0.029853045 
number of iterations: 2170 
   28000    73.923983     1898         1699          199 1.7237448e-12 1.8639768e-14          0.1 0.0090285723    98.562712  0.029852418 
number of iterations: 2138 
   28100    74.139613     1916         1716          200 1.746588e-12 1.8704822e-14          0.1 0.0090289188    99.902685  0.029851841 
number of iterations: 2169 
   28200    74.386207     1950         1749          201 1.7697338e-12 1.8770141e-14          0.1 0.0090292919    101.26043   0.02985122 
number of iterations: 2205 
   28300    74.692635     1966         1764          202 1.7931863e-12 1.8835726e-14          0.1 0.0090296868    102.63619  0.029850562 
number of iterations: 2165 
   28400    74.908177     1999         1794          205 1.8169497e-12 1.8901578e-14          0.1   0.00903007    104.03021  0.029849924 
number of iterations: 2156 
   28500    75.166691     2025         1819          206 1.8410279e-12 1.8967697e-14          0.1 0.0090304643    105.44271  0.029849268 
number of iterations: 2170 
   28600    75.414427     2048         1842          206 1.8639653e-12 1.9034084e-14          0.1 0.0090308288    106.87283  0.029848661 
number of iterations: 2210 
   28700    75.667783     2070         1864          206 1.8886666e-12 1.910074e-14          0.1  0.009031247    108.32192  0.029847964 
number of iterations: 2170 
   28800    75.913341     2099         1891          208 1.9136952e-12 1.9167665e-14          0.1 0.0090316553    109.79022  0.029847284 
number of iterations: 2172 
   28900    76.150712     2121         1913          208 1.9390555e-12 1.9234861e-14          0.1 0.0090320716    111.27801  0.029846591 
number of iterations: 2175 
   29000    76.402685     2145         1935          210 1.9647518e-12 1.9302327e-14          0.1 0.0090324706    112.78553  0.029845927 
number of iterations: 2183 
   29100    76.651723     2174         1963          211 1.9907887e-12 1.9370066e-14          0.1 0.0090329107    114.31304  0.029845194 
number of iterations: 2215 
   29200    76.899195     2204         1992          212 2.0171707e-12 1.9438077e-14          0.1 0.0090333742    115.86082  0.029844422 
number of iterations: 2214 
   29300    77.140278     2230         2018          212 2.0428856e-12 1.9506361e-14          0.1 0.0090338556    117.42835  0.029843621 
number of iterations: 2197 
   29400    77.391789     2253         2041          212 2.0699579e-12 1.957492e-14          0.1 0.0090342952    119.01667  0.029842888 
number of iterations: 2202 
   29500    77.629818     2283         2071          212 2.097389e-12 1.9643753e-14          0.1  0.009034748    120.62606  0.029842134 
number of iterations: 2218 
   29600    77.868792     2308         2095          213 2.1251836e-12 1.9712862e-14          0.1 0.0090352343    122.25679  0.029841325 
number of iterations: 2186 
   29700    78.097949     2337         2124          213 2.1533465e-12 1.9782247e-14          0.1 0.0090356874    123.90915   0.02984057 
number of iterations: 2218 
   29800    78.345246     2365         2151          214 2.1818826e-12 1.9851909e-14          0.1 0.0090361876    125.58343  0.029839737 
number of iterations: 2225 
   29900    78.617296     2393         2179          214 2.2107968e-12 1.992185e-14          0.1 0.0090366902    127.27991  0.029838901 
number of iterations: 2242 
   30000    78.882398     2422         2207          215 2.2400943e-12 1.9992069e-14          0.1 0.0090371777    128.99889  0.029838089 
number of iterations: 2176 
   30100    79.147984     2467         2251          216 2.2697799e-12 2.0062568e-14          0.1 0.0090376113    130.74067  0.029837367 
number of iterations: 2247 
   30200    79.381784     2497         2279          218 2.299859e-12 2.0133347e-14          0.1  0.009038129    132.50556  0.029836505 
number of iterations: 2214 
   30300    79.691004     2533         2314          219 2.3303366e-12 2.0204408e-14          0.1 0.0090386057    134.29385  0.029835711 
number of iterations: 2226 
   30400    79.919051     2558         2338          220 2.3612182e-12 2.0275751e-14          0.1 0.0090391193    136.10586  0.029834856 
number of iterations: 2226 
   30500    80.177142     2589         2369          220 2.391503e-12 2.0347376e-14          0.1 0.0090396145    137.94113  0.029834031 
number of iterations: 2226 
   30600    80.419996     2613         2392          221 2.4231951e-12 2.0419285e-14          0.1 0.0090401421    139.80073  0.029833153 
number of iterations: 2224 
   30700    80.678318     2647         2425          222 2.4553072e-12 2.0491479e-14          0.1 0.0090406849      141.685  0.029832249 
number of iterations: 2237 
   30800     80.95839     2675         2452          223 2.4878448e-12 2.0563958e-14          0.1 0.0090412239    143.59426  0.029831351 
number of iterations: 2224 
   30900    81.208364     2707         2484          223 2.5208136e-12 2.0636724e-14          0.1 0.0090417853    145.52884  0.029830416 
number of iterations: 2289 
   31000    81.500054     2736         2513          223 2.5542193e-12 2.0709776e-14          0.1  0.009042369    147.48909  0.029829444 
number of iterations: 2232 
   31100    81.757218     2768         2545          223 2.5872257e-12 2.0783115e-14          0.1 0.0090428996    149.47468  0.029828561 
number of iterations: 2261 
   31200    82.007993     2792         2569          223 2.6215114e-12 2.0856744e-14          0.1  0.009043475    151.48661  0.029827603 
number of iterations: 2229 
   31300    82.271474     2827         2604          223 2.6562515e-12 2.0930662e-14          0.1 0.0090440209    153.52522  0.029826694 
number of iterations: 2273 
   31400    82.546175     2867         2644          223 2.691452e-12 2.1004871e-14          0.1 0.0090446282    155.59087  0.029825683 
number of iterations: 2244 
   31500    82.793264     2900         2675          225 2.727119e-12 2.1079371e-14          0.1 0.0090451941    157.68391   0.02982474 
number of iterations: 2242 
   31600    83.054721     2931         2705          226 2.7611683e-12 2.1154163e-14          0.1 0.0090457774    159.80312  0.029823769 
number of iterations: 2243 
   31700    83.304456     2968         2742          226 2.7977591e-12 2.1229248e-14          0.1 0.0090463103    161.95042  0.029822882 
number of iterations: 2279 
   31800    83.549302     3004         2776          228 2.8348348e-12 2.1304627e-14          0.1 0.0090469421    164.12619   0.02982183 
number of iterations: 2264 
   31900    83.808162     3042         2814          228 2.8724018e-12 2.1380301e-14          0.1 0.0090475442    166.33083  0.029820827 
number of iterations: 2294 
   32000    84.068039     3088         2860          228 2.9104666e-12 2.1456271e-14          0.1 0.0090481873     168.5647  0.029819756 
number of iterations: 2289 
   32100       84.345     3125         2897          228 2.9476057e-12 2.1532537e-14          0.1 0.0090487992     170.8271  0.029818737 
number of iterations: 2239 
   32200    84.703411     3167         2936          231 2.9866672e-12 2.1609101e-14          0.1  0.009049386     173.1195   0.02981776 
number of iterations: 2294 
   32300    84.959499     3214         2982          232 3.0262462e-12 2.1685964e-14          0.1 0.0090500773     175.4423  0.029816609 
number of iterations: 2282 
   32400    85.239099     3254         3022          232 3.0663497e-12 2.1763126e-14          0.1 0.0090507306    177.79591  0.029815521 
number of iterations: 2303 
   32500    85.493628     3289         3057          232 3.1069847e-12 2.1840589e-14          0.1 0.0090514513    180.18073  0.029814321 
number of iterations: 2300 
   32600    85.745311     3335         3103          232 3.1481581e-12 2.1918353e-14          0.1 0.0090521222    182.59718  0.029813204 
number of iterations: 2297 
   32700    86.001649     3386         3154          232 3.1898772e-12 2.199642e-14          0.1 0.0090528091    185.04568   0.02981206 
number of iterations: 2295 
   32800    86.263966     3426         3192          234 3.2310709e-12 2.2074789e-14          0.1 0.0090534644    187.52583  0.029810969 
number of iterations: 2289 
   32900    86.523639     3466         3230          236 3.2728634e-12 2.2153463e-14          0.1  0.009054162    190.03809  0.029809807 
number of iterations: 2301 
   33000    86.766133     3507         3271          236 3.3151994e-12 2.2232442e-14          0.1 0.0090548447    192.58288  0.029808671 
number of iterations: 2324 
   33100    87.032552     3548         3311          237 3.359132e-12 2.2311727e-14          0.1  0.009055592    195.16141  0.029807426 
number of iterations: 2320 
   33200    87.329435     3599         3361          238 3.4036468e-12 2.2391319e-14          0.1 0.0090563654    197.77414  0.029806138 
number of iterations: 2320 
   33300    87.602498     3635         3395          240 3.4478345e-12 2.2471219e-14          0.1 0.0090571594    200.42081  0.029804816 
number of iterations: 2298 
   33400     87.86206     3683         3443          240 3.4906479e-12 2.2551428e-14          0.1 0.0090578663    203.10038  0.029803639 
number of iterations: 2306 
   33500    88.119383     3732         3492          240 3.5369055e-12 2.2631947e-14          0.1 0.0090585665    205.81548  0.029802473 
number of iterations: 2308 
   33600    88.381509     3781         3539          242 3.5837761e-12 2.2712776e-14          0.1 0.0090592903    208.56659  0.029801268 
number of iterations: 2344 
   33700    88.633832     3824         3582          242 3.6312677e-12 2.2793918e-14          0.1 0.0090600746    211.35418  0.029799962 
number of iterations: 2305 
   33800    88.899139     3881         3638          243 3.6780518e-12 2.2875373e-14          0.1  0.009060806    214.17773  0.029798744 
number of iterations: 2315 
   33900    89.206844     3921         3678          243 3.7267928e-12 2.2957141e-14          0.1 0.0090615997     217.0387  0.029797423 
number of iterations: 2340 
   34000     89.48898     3972         3729          243 3.7761797e-12 2.3039224e-14          0.1  0.009062459    219.93763  0.029795992 
number of iterations: 2325 
   34100    89.771633     4024         3778          246 3.8252192e-12 2.3121623e-14          0.1 0.0090633441    222.87425  0.029794518 
number of iterations: 2326 
   34200    90.047414     4085         3839          246 3.8735808e-12 2.3204339e-14          0.1 0.0090640963    225.84804  0.029793265 
number of iterations: 2303 
   34300    90.316574     4139         3890          249 3.9249128e-12 2.3287374e-14          0.1 0.0090648582    228.86127  0.029791997 
number of iterations: 2307 
   34400    90.584748     4193         3943          250 3.9744727e-12 2.3370727e-14          0.1 0.0090656195    231.91257  0.029790729 
number of iterations: 2334 
   34500    90.860855     4237         3987          250 4.0251313e-12  2.34544e-14          0.1 0.0090664987    235.00278  0.029789265 
number of iterations: 2372 
   34600    91.166093     4273         4021          252 4.077475e-12 2.3538394e-14          0.1 0.0090674613     238.1332  0.029787662 
number of iterations: 2371 
   34700    91.482944     4329         4077          252 4.131509e-12 2.3622711e-14          0.1 0.0090683857    241.30519  0.029786123 
number of iterations: 2347 
   34800    91.745651     4395         4142          253 4.186259e-12 2.3707351e-14          0.1 0.0090692794    244.51925  0.029784635 
number of iterations: 2330 
   34900    92.018953     4436         4182          254 4.2417345e-12 2.3792315e-14          0.1  0.009070147    247.77593   0.02978319 
number of iterations: 2398 
   35000    92.314003     4491         4235          256 4.2979451e-12 2.3877604e-14          0.1 0.0090711192    251.07578  0.029781571 
Loop time of 92.314 on 32 procs for 35000 steps with 4491 atoms

Performance: 327577491.279 tau/day, 379.141 timesteps/s
92.5% CPU use with 32 MPI tasks x no OpenMP threads

MPI task timing breakdown:
Section |  min time  |  avg time  |  max time  |%varavg| %total
---------------------------------------------------------------
Pair    | 0.016836   | 0.062425   | 0.15117    |  15.0 |  0.07
Neigh   | 0.006092   | 0.019054   | 0.041579   |   7.5 |  0.02
Comm    | 0.059476   | 0.15129    | 0.22672    |  12.0 |  0.16
Output  | 21.787     | 21.787     | 21.795     |   0.0 | 23.60
Modify  | 69.876     | 69.917     | 69.976     |   0.3 | 75.74
Other   |            | 0.377      |            |       |  0.41

Nlocal:    140.344 ave 330 max 36 min
Histogram: 6 5 5 5 3 1 1 3 2 1
Nghost:    70.2812 ave 140 max 7 min
Histogram: 1 3 3 8 6 2 4 0 1 4
Neighs:    486.844 ave 1202 max 114 min
Histogram: 8 3 6 5 2 2 0 3 1 2

Total # of neighbors = 15579
Ave neighs/atom = 3.46894
Neighbor list builds = 681
Dangerous builds = 0
Total wall time: 0:01:32
