 NUFEB Simulation

     100 atoms 
     2 atom types 
     4 nutrients 

  0.0e-4   1.00e-04  xlo xhi 
  0.0e-4   1.00e-04  ylo yhi 
  0.0e-4   1.00e-04  zlo zhi 

 Atoms 

     1 1 1.93e-06  370 4.47e-05 8.99e-05 4.57e-05 1.93e-06 
     2 1 1.63e-06  370 6.04e-05 5.29e-05 8.15e-05 1.63e-06 
     3 1 1.88e-06  370 2.06e-05 6.03e-05 5.40e-05 1.88e-06 
     4 1 1.73e-06  370 1.19e-05 9.29e-05 1.77e-05 1.73e-06 
     5 1 1.58e-06  370 6.19e-05 8.84e-05 8.72e-05 1.58e-06 
     6 1 1.50e-06  370 5.91e-05 9.19e-05 1.95e-05 1.50e-06 
     7 1 1.84e-06  370 6.05e-05 7.76e-05 1.68e-05 1.84e-06 
     8 1 1.61e-06  370 8.60e-05 7.45e-05 7.96e-05 1.61e-06 
     9 1 1.54e-06  370 5.55e-05 7.27e-05 9.15e-05 1.54e-06 
     10 1 1.89e-06  370 2.30e-05 1.73e-05 6.91e-05 1.89e-06 
     11 1 1.45e-06  370 1.25e-05 4.90e-05 2.67e-05 1.45e-06 
     12 1 1.76e-06  370 9.40e-05 3.76e-05 7.68e-06 1.76e-06 
     13 1 1.51e-06  370 1.55e-05 2.10e-05 8.52e-05 1.51e-06 
     14 1 1.59e-06  370 8.50e-05 3.90e-05 3.41e-05 1.59e-06 
     15 1 1.38e-06  370 9.04e-05 7.74e-05 5.65e-05 1.38e-06 
     16 1 1.43e-06  370 2.85e-05 1.71e-05 4.48e-05 1.43e-06 
     17 1 1.62e-06  370 8.82e-05 9.69e-05 3.40e-05 1.62e-06 
     18 1 1.65e-06  370 5.38e-05 9.08e-05 6.82e-05 1.65e-06 
     19 1 1.56e-06  370 8.71e-05 3.95e-05 4.05e-05 1.56e-06 
     20 1 1.54e-06  370 5.03e-05 7.22e-05 7.73e-05 1.54e-06 
     21 1 1.57e-06  370 9.46e-05 1.88e-05 6.87e-05 1.57e-06 
     22 1 1.75e-06  370 5.11e-05 1.26e-05 7.56e-05 1.75e-06 
     23 1 1.51e-06  370 3.12e-06 1.62e-05 5.19e-05 1.51e-06 
     24 1 1.56e-06  370 9.48e-05 5.04e-05 3.77e-05 1.56e-06 
     25 1 1.68e-06  370 1.03e-05 5.22e-05 5.00e-05 1.68e-06 
     26 1 1.50e-06  370 9.22e-05 5.70e-05 2.16e-05 1.50e-06 
     27 1 1.69e-06  370 4.65e-05 4.87e-06 1.53e-05 1.69e-06 
     28 1 1.74e-06  370 9.50e-05 3.49e-05 6.57e-05 1.74e-06 
     29 1 1.52e-06  370 4.35e-05 7.53e-05 4.01e-05 1.52e-06 
     30 1 1.78e-06  370 9.76e-06 7.10e-05 2.39e-05 1.78e-06 
     31 1 1.42e-06  370 3.55e-05 7.95e-05 2.77e-05 1.42e-06 
     32 1 1.50e-06  370 7.78e-05 1.34e-05 6.31e-05 1.50e-06 
     33 1 1.45e-06  370 5.41e-05 1.51e-05 5.96e-05 1.45e-06 
     34 1 1.93e-06  370 1.93e-05 9.61e-05 8.67e-06 1.93e-06 
     35 1 1.91e-06  370 7.63e-06 8.28e-05 4.36e-05 1.91e-06 
     36 1 1.92e-06  370 7.97e-05 1.89e-05 5.61e-05 1.92e-06 
     37 1 1.48e-06  370 5.55e-05 1.55e-05 8.17e-05 1.48e-06 
     38 1 1.56e-06  370 7.82e-05 3.69e-05 1.31e-05 1.56e-06 
     39 1 1.67e-06  370 8.53e-06 3.13e-05 2.68e-05 1.67e-06 
     40 1 1.37e-06  370 8.62e-05 2.13e-05 1.81e-05 1.37e-06 
     41 1 1.48e-06  370 1.90e-06 3.58e-05 4.01e-05 1.48e-06 
     42 1 1.50e-06  370 8.90e-05 8.57e-05 3.39e-05 1.50e-06 
     43 1 1.91e-06  370 9.49e-06 8.13e-05 2.53e-05 1.91e-06 
     44 1 1.92e-06  370 4.95e-05 9.39e-05 9.53e-05 1.92e-06 
     45 1 1.55e-06  370 6.21e-05 1.02e-05 3.19e-05 1.55e-06 
     46 1 1.40e-06  370 6.11e-05 3.40e-05 2.37e-06 1.40e-06 
     47 1 1.85e-06  370 8.72e-05 5.80e-05 5.07e-06 1.85e-06 
     48 1 1.82e-06  370 6.53e-05 9.48e-05 8.74e-05 1.82e-06 
     49 1 1.72e-06  370 8.62e-05 5.47e-05 6.63e-05 1.72e-06 
     50 1 1.44e-06  370 4.32e-06 5.12e-05 3.85e-05 1.44e-06 
     51 1 1.43e-06  370 4.06e-05 8.45e-05 9.54e-05 1.43e-06 
     52 1 1.78e-06  370 9.01e-05 7.99e-05 9.39e-05 1.78e-06 
     53 1 1.50e-06  370 6.83e-05 8.77e-05 4.95e-05 1.50e-06 
     54 1 1.74e-06  370 7.49e-05 1.21e-05 7.35e-05 1.74e-06 
     55 1 1.45e-06  370 4.93e-05 2.66e-05 8.33e-05 1.45e-06 
     56 1 1.51e-06  370 9.07e-05 8.87e-05 7.82e-05 1.51e-06 
     57 1 1.68e-06  370 7.83e-05 4.16e-05 2.95e-05 1.68e-06 
     58 1 1.70e-06  370 9.04e-06 6.78e-05 5.49e-05 1.70e-06 
     59 1 1.52e-06  370 1.50e-05 6.14e-05 5.57e-05 1.52e-06 
     60 1 1.80e-06  370 1.31e-05 9.80e-05 7.96e-06 1.80e-06 
     61 1 1.76e-06  370 4.00e-05 7.40e-05 1.84e-05 1.76e-06 
     62 1 1.50e-06  370 3.75e-05 5.98e-05 7.71e-05 1.50e-06 
     63 1 1.52e-06  370 2.77e-05 6.54e-06 5.20e-05 1.52e-06 
     64 1 1.82e-06  370 3.50e-05 9.25e-05 2.50e-05 1.82e-06 
     65 1 1.48e-06  370 4.44e-05 5.07e-05 5.49e-05 1.48e-06 
     66 1 1.93e-06  370 7.09e-05 7.93e-05 7.93e-05 1.93e-06 
     67 1 1.65e-06  370 4.50e-05 8.44e-05 7.36e-06 1.65e-06 
     68 1 1.70e-06  370 8.70e-05 1.66e-05 2.27e-05 1.70e-06 
     69 1 1.65e-06  370 2.67e-05 9.78e-05 8.22e-05 1.65e-06 
     70 1 1.38e-06  370 3.88e-05 2.94e-05 2.60e-05 1.38e-06 
     71 1 1.40e-06  370 4.09e-05 9.14e-05 1.88e-05 1.40e-06 
     72 1 1.66e-06  370 5.03e-05 2.61e-05 2.22e-05 1.66e-06 
     73 1 1.57e-06  370 7.09e-05 4.47e-05 5.42e-05 1.57e-06 
     74 1 1.54e-06  370 9.26e-06 1.16e-05 2.34e-05 1.54e-06 
     75 1 1.75e-06  370 9.70e-05 3.17e-05 2.38e-05 1.75e-06 
     76 1 1.82e-06  370 7.29e-05 7.74e-05 1.34e-05 1.82e-06 
     77 1 1.71e-06  370 8.34e-05 5.99e-05 3.98e-05 1.71e-06 
     78 1 1.88e-06  370 3.85e-05 2.98e-05 3.89e-05 1.88e-06 
     79 1 1.64e-06  370 5.04e-05 2.54e-05 4.11e-06 1.64e-06 
     80 1 1.69e-06  370 9.76e-05 6.28e-05 1.31e-05 1.69e-06 
     81 1 1.81e-06  370 4.06e-05 7.27e-06 7.39e-05 1.81e-06 
     82 1 1.81e-06  370 2.45e-05 4.92e-05 8.19e-05 1.81e-06 
     83 1 1.58e-06  370 4.64e-05 6.37e-05 5.77e-05 1.58e-06 
     84 1 1.63e-06  370 8.04e-05 8.65e-05 5.96e-05 1.63e-06 
     85 1 1.38e-06  370 6.56e-05 4.91e-05 3.81e-05 1.38e-06 
     86 1 1.83e-06  370 8.50e-05 5.76e-05 7.15e-05 1.83e-06 
     87 1 1.75e-06  370 2.47e-05 3.05e-05 9.62e-05 1.75e-06 
     88 1 1.63e-06  370 1.62e-05 6.22e-05 7.99e-05 1.63e-06 
     89 1 1.58e-06  370 6.92e-05 7.25e-05 5.41e-05 1.58e-06 
     90 1 1.93e-06  370 1.66e-05 2.14e-05 5.52e-05 1.93e-06 
     91 1 1.70e-06  370 3.19e-05 7.68e-05 6.10e-05 1.70e-06 
     92 1 1.49e-06  370 7.51e-05 3.81e-05 2.94e-05 1.49e-06 
     93 1 1.39e-06  370 6.82e-05 5.39e-06 7.53e-05 1.39e-06 
     94 1 1.88e-06  370 2.08e-05 4.01e-05 3.72e-05 1.88e-06 
     95 1 1.71e-06  370 1.43e-05 3.76e-06 5.91e-05 1.71e-06 
     96 1 1.48e-06  370 1.49e-05 4.31e-05 1.48e-05 1.48e-06 
     97 1 1.50e-06  370 4.71e-05 3.49e-05 4.19e-05 1.50e-06 
     98 1 1.39e-06  370 8.10e-05 4.47e-05 5.01e-05 1.39e-06 
     99 1 1.69e-06  370 8.84e-05 5.30e-05 7.18e-05 1.69e-06 
     100 1 1.50e-06  370 4.59e-05 4.36e-05 4.00e-05 1.50e-06 

 Nutrients 

     1 sub g nn nn nn 1.00e-01 1.00e-01 
     2 o2 l nn nn nd 9.00e-03 9.00e-03 
     3 suc l nn nn nn 3.42e-20 3.42e-20 
     4 co2 l nn nn nd 2.99e-02 2.99e-02 

 Type Name 

     1 cyano  
     2 ecw  

 Diffusion Coeffs 

     sub 0 
     o2 2.3e-09 
     suc 5.2e-10 
     co2 1.9e-09 

 Growth Rate 

     cyano 1.89e-05 
     ecw 6.71e-05 

 Ks 

     cyano 0.00035 0.0002 0.01 0.000138 
     ecw 0 0.001 3.6 0.05 

 Yield 

     cyano 0.55 
     ecw 0.43 

 Maintenance 

     cyano 0 
     ecw 9.5e-07 

 Decay 

     cyano 0 
     ecw 0 



