 NUFEB Simulation

     100 atoms 
     2 atom types 
     4 nutrients 

  0.0e-4   1.00e-04  xlo xhi 
  0.0e-4   1.00e-04  ylo yhi 
  0.0e-4   1.00e-05  zlo zhi 

 Atoms 

     1 1 1.73e-06  370 5.69e-05 6.71e-05 6.30e-06 1.73e-06 
     2 1 1.87e-06  370 8.15e-05 4.37e-05 2.25e-06 1.87e-06 
     3 1 1.57e-06  370 5.25e-05 3.17e-05 6.18e-06 1.57e-06 
     4 1 1.60e-06  370 3.58e-05 1.02e-05 7.15e-06 1.60e-06 
     5 1 1.85e-06  370 7.96e-06 5.31e-05 1.96e-06 1.85e-06 
     6 1 1.88e-06  370 7.94e-05 1.48e-05 7.81e-06 1.88e-06 
     7 1 1.60e-06  370 5.39e-06 9.39e-05 3.75e-06 1.60e-06 
     8 1 1.45e-06  370 9.36e-05 2.43e-05 2.91e-06 1.45e-06 
     9 1 1.49e-06  370 5.90e-05 6.62e-05 4.95e-06 1.49e-06 
     10 1 1.62e-06  370 9.61e-05 7.77e-06 2.29e-06 1.62e-06 
     11 1 1.48e-06  370 2.20e-05 3.14e-05 7.26e-06 1.48e-06 
     12 1 1.48e-06  370 4.50e-05 9.59e-05 8.30e-06 1.48e-06 
     13 1 1.42e-06  370 8.71e-05 5.76e-05 3.77e-06 1.42e-06 
     14 1 1.70e-06  370 5.59e-05 6.38e-05 6.76e-06 1.70e-06 
     15 1 1.43e-06  370 8.18e-06 3.14e-05 2.32e-06 1.43e-06 
     16 1 1.48e-06  370 5.10e-05 1.09e-05 2.50e-06 1.48e-06 
     17 1 1.74e-06  370 4.01e-05 3.20e-05 3.07e-06 1.74e-06 
     18 1 1.78e-06  370 6.75e-06 1.67e-05 2.18e-06 1.78e-06 
     19 1 1.58e-06  370 4.44e-05 5.44e-05 4.05e-06 1.58e-06 
     20 1 1.55e-06  370 2.06e-05 1.22e-05 5.87e-06 1.55e-06 
     21 1 1.81e-06  370 7.09e-05 7.64e-05 7.98e-06 1.81e-06 
     22 1 1.88e-06  370 3.73e-05 7.49e-05 4.02e-06 1.88e-06 
     23 1 1.46e-06  370 7.81e-06 4.64e-05 5.30e-06 1.46e-06 
     24 1 1.62e-06  370 1.03e-05 2.01e-05 3.90e-06 1.62e-06 
     25 1 1.65e-06  370 8.41e-05 2.25e-05 3.75e-06 1.65e-06 
     26 1 1.56e-06  370 2.24e-05 7.48e-05 3.91e-06 1.56e-06 
     27 1 1.57e-06  370 7.17e-05 5.95e-06 2.71e-06 1.57e-06 
     28 1 1.50e-06  370 6.54e-06 4.41e-05 3.01e-06 1.50e-06 
     29 1 1.78e-06  370 7.86e-05 4.34e-05 7.74e-06 1.78e-06 
     30 1 1.46e-06  370 8.64e-05 7.08e-05 2.36e-06 1.46e-06 
     31 1 1.91e-06  370 8.66e-05 5.96e-05 3.91e-06 1.91e-06 
     32 1 1.74e-06  370 2.30e-05 7.73e-05 3.66e-06 1.74e-06 
     33 1 1.74e-06  370 1.39e-05 4.95e-05 4.17e-06 1.74e-06 
     34 1 1.68e-06  370 1.22e-05 5.05e-06 2.76e-06 1.68e-06 
     35 1 1.87e-06  370 3.07e-05 7.38e-05 3.66e-06 1.87e-06 
     36 1 1.94e-06  370 2.05e-05 3.94e-05 3.25e-06 1.94e-06 
     37 1 1.64e-06  370 7.26e-05 5.61e-05 3.21e-06 1.64e-06 
     38 1 1.44e-06  370 6.28e-05 8.45e-05 5.79e-06 1.44e-06 
     39 1 1.82e-06  370 1.80e-05 6.03e-05 3.02e-06 1.82e-06 
     40 1 1.43e-06  370 5.72e-05 3.57e-05 4.86e-06 1.43e-06 
     41 1 1.84e-06  370 3.60e-05 2.60e-05 5.25e-06 1.84e-06 
     42 1 1.71e-06  370 5.32e-05 5.48e-05 2.50e-06 1.71e-06 
     43 1 1.89e-06  370 4.35e-05 8.79e-05 5.02e-06 1.89e-06 
     44 1 1.67e-06  370 5.18e-05 4.31e-05 7.17e-06 1.67e-06 
     45 1 1.44e-06  370 3.87e-06 6.99e-05 6.38e-06 1.44e-06 
     46 1 1.84e-06  370 4.43e-05 2.01e-06 3.50e-06 1.84e-06 
     47 1 1.39e-06  370 2.88e-05 1.11e-05 5.57e-06 1.39e-06 
     48 1 1.79e-06  370 4.79e-05 2.91e-05 7.80e-06 1.79e-06 
     49 1 1.54e-06  370 2.10e-05 1.47e-05 4.66e-06 1.54e-06 
     50 1 1.78e-06  370 1.09e-05 1.18e-05 5.77e-06 1.78e-06 
     51 2 1.07e-06  230 5.98e-05 4.44e-05 5.63e-06 1.07e-06 
     52 2 9.72e-07  230 2.92e-05 3.90e-05 6.51e-06 9.72e-07 
     53 2 1.14e-06  230 8.26e-05 3.80e-05 8.23e-06 1.14e-06 
     54 2 1.17e-06  230 4.13e-05 5.37e-05 6.79e-06 1.17e-06 
     55 2 1.19e-06  230 8.54e-05 3.56e-05 3.96e-06 1.19e-06 
     56 2 1.02e-06  230 4.44e-05 9.59e-05 4.25e-06 1.02e-06 
     57 2 1.31e-06  230 4.82e-05 9.14e-05 7.82e-06 1.31e-06 
     58 2 9.20e-07  230 9.29e-05 9.20e-05 7.65e-06 9.20e-07 
     59 2 1.36e-06  230 9.19e-05 9.37e-05 7.96e-06 1.36e-06 
     60 2 1.04e-06  230 1.96e-05 4.02e-05 3.38e-06 1.04e-06 
     61 2 9.79e-07  230 3.92e-06 9.69e-05 8.83e-06 9.79e-07 
     62 2 9.66e-07  230 7.07e-05 9.75e-05 4.68e-06 9.66e-07 
     63 2 1.20e-06  230 4.54e-05 7.10e-05 8.65e-06 1.20e-06 
     64 2 1.28e-06  230 1.52e-05 3.38e-05 1.36e-06 1.28e-06 
     65 2 1.05e-06  230 8.52e-05 2.06e-05 1.79e-06 1.05e-06 
     66 2 1.23e-06  230 2.85e-05 1.16e-05 8.68e-06 1.23e-06 
     67 2 1.13e-06  230 7.66e-05 6.66e-05 7.80e-06 1.13e-06 
     68 2 1.30e-06  230 4.04e-05 3.62e-05 7.92e-06 1.30e-06 
     69 2 8.92e-07  230 3.58e-05 5.10e-05 6.30e-06 8.92e-07 
     70 2 1.26e-06  230 9.51e-05 4.04e-05 3.47e-06 1.26e-06 
     71 2 1.04e-06  230 8.35e-05 7.55e-05 6.24e-06 1.04e-06 
     72 2 8.85e-07  230 1.83e-05 8.62e-05 4.73e-06 8.85e-07 
     73 2 1.20e-06  230 1.34e-05 4.25e-05 4.76e-06 1.20e-06 
     74 2 1.28e-06  230 5.53e-05 5.12e-06 4.13e-06 1.28e-06 
     75 2 1.08e-06  230 7.75e-05 4.12e-05 3.89e-06 1.08e-06 
     76 2 1.31e-06  230 7.21e-05 4.97e-05 3.11e-06 1.31e-06 
     77 2 1.02e-06  230 1.94e-05 8.54e-05 3.34e-06 1.02e-06 
     78 2 9.74e-07  230 1.68e-05 8.20e-05 8.93e-06 9.74e-07 
     79 2 8.95e-07  230 8.35e-05 2.92e-05 4.53e-06 8.95e-07 
     80 2 1.00e-06  230 2.88e-05 3.36e-05 5.86e-06 1.00e-06 
     81 2 9.18e-07  230 6.36e-05 4.45e-05 5.41e-06 9.18e-07 
     82 2 9.63e-07  230 8.96e-05 7.40e-05 3.31e-06 9.63e-07 
     83 2 1.26e-06  230 4.67e-05 5.44e-05 4.51e-06 1.26e-06 
     84 2 9.86e-07  230 7.08e-05 9.56e-05 6.18e-06 9.86e-07 
     85 2 1.38e-06  230 8.12e-05 8.21e-05 3.60e-06 1.38e-06 
     86 2 1.17e-06  230 3.30e-05 7.17e-06 2.07e-06 1.17e-06 
     87 2 9.75e-07  230 7.32e-05 6.05e-05 1.85e-06 9.75e-07 
     88 2 9.19e-07  230 7.34e-05 7.46e-05 1.87e-06 9.19e-07 
     89 2 9.59e-07  230 7.53e-06 5.09e-05 8.01e-06 9.59e-07 
     90 2 9.53e-07  230 5.40e-05 8.15e-05 7.41e-06 9.53e-07 
     91 2 1.02e-06  230 9.78e-05 2.45e-06 2.89e-06 1.02e-06 
     92 2 1.37e-06  230 4.85e-05 6.55e-05 5.40e-06 1.37e-06 
     93 2 1.08e-06  230 4.28e-05 6.30e-05 3.99e-06 1.08e-06 
     94 2 1.31e-06  230 6.64e-05 9.57e-05 4.40e-06 1.31e-06 
     95 2 1.09e-06  230 6.00e-05 2.28e-05 3.88e-06 1.09e-06 
     96 2 1.06e-06  230 8.92e-05 6.37e-05 5.23e-06 1.06e-06 
     97 2 1.23e-06  230 9.01e-05 4.03e-05 3.91e-06 1.23e-06 
     98 2 1.22e-06  230 1.99e-05 4.93e-05 6.38e-06 1.22e-06 
     99 2 1.33e-06  230 7.64e-05 1.62e-05 3.94e-06 1.33e-06 
     100 2 1.39e-06  230 5.10e-05 8.65e-05 4.22e-06 1.39e-06 

 Nutrients 

     1 sub g nn nn nn 1.00e-01 1.00e-01 
     2 o2 l nn nn nd 9.00e-03 9.00e-03 
     3 suc l nn nn nn 3.42e-20 3.42e-20 
     4 co2 l nn nn nd 2.99e-02 2.99e-02 

 Type Name 

     1 cyano  
     2 ecw  

 Diffusion Coeffs 

     sub 0 
     o2 2.3e-09 
     suc 5.2e-10 
     co2 1.9e-09 

 Growth Rate 

     cyano 1.67e-05 
     ecw 2e-06 

 Ks 

     cyano 0.00035 0.0002 0.01 0.000138 
     ecw 0 0.001 3.6 0.05 

 Yield 

     cyano 0.55 
     ecw 0.43 

 Maintenance 

     cyano 0 
     ecw 9.5e-07 

 Decay 

     cyano 0 
     ecw 0 



