 NUFEB Simulation

     100 atoms 
     2 atom types 
     4 nutrients 

  0.0e-4   1.00e-04  xlo xhi 
  0.0e-4   1.00e-04  ylo yhi 
  0.0e-4   1.00e-05  zlo zhi 

 Atoms 

     1 1 1.81e-06  370 3.07e-05 3.66e-06 6.78e-06 1.81e-06 
     2 1 1.91e-06  370 8.97e-05 7.39e-05 7.94e-06 1.91e-06 
     3 1 1.94e-06  370 3.33e-06 3.77e-05 5.52e-06 1.94e-06 
     4 1 1.43e-06  370 4.05e-05 4.91e-06 7.21e-06 1.43e-06 
     5 1 1.51e-06  370 9.80e-05 7.06e-05 4.87e-06 1.51e-06 
     6 1 1.68e-06  370 3.07e-06 6.92e-05 5.91e-06 1.68e-06 
     7 1 1.67e-06  370 2.67e-05 2.71e-05 7.65e-06 1.67e-06 
     8 1 1.94e-06  370 5.44e-05 7.22e-05 3.39e-06 1.94e-06 
     9 1 1.73e-06  370 9.26e-05 2.36e-05 2.78e-06 1.73e-06 
     10 1 1.57e-06  370 4.18e-05 7.90e-05 6.40e-06 1.57e-06 
     11 1 1.81e-06  370 2.76e-05 4.16e-05 5.88e-06 1.81e-06 
     12 1 1.44e-06  370 4.17e-05 2.71e-05 6.70e-06 1.44e-06 
     13 1 1.89e-06  370 1.55e-05 6.33e-05 3.46e-06 1.89e-06 
     14 1 1.74e-06  370 1.89e-05 5.03e-05 4.31e-06 1.74e-06 
     15 1 1.58e-06  370 9.33e-06 2.33e-05 8.12e-06 1.58e-06 
     16 1 1.73e-06  370 2.99e-05 2.28e-05 2.55e-06 1.73e-06 
     17 1 1.76e-06  370 2.10e-05 2.08e-05 5.48e-06 1.76e-06 
     18 1 1.57e-06  370 6.65e-05 1.97e-05 4.08e-06 1.57e-06 
     19 1 1.79e-06  370 9.30e-05 2.70e-06 4.69e-06 1.79e-06 
     20 1 1.70e-06  370 5.46e-05 4.72e-05 4.78e-06 1.70e-06 
     21 1 1.42e-06  370 5.67e-05 6.57e-05 1.85e-06 1.42e-06 
     22 1 1.85e-06  370 9.14e-05 8.93e-05 5.28e-06 1.85e-06 
     23 1 1.46e-06  370 5.63e-05 1.41e-05 1.83e-06 1.46e-06 
     24 1 1.80e-06  370 2.41e-05 7.60e-05 3.54e-06 1.80e-06 
     25 1 1.69e-06  370 6.81e-05 4.12e-05 8.26e-06 1.69e-06 
     26 1 1.44e-06  370 5.15e-05 1.52e-05 7.08e-06 1.44e-06 
     27 1 1.67e-06  370 4.75e-05 4.02e-05 7.45e-06 1.67e-06 
     28 1 1.92e-06  370 7.40e-05 1.35e-05 4.94e-06 1.92e-06 
     29 1 1.46e-06  370 6.08e-05 7.00e-05 2.96e-06 1.46e-06 
     30 1 1.89e-06  370 1.84e-05 6.67e-05 6.16e-06 1.89e-06 
     31 1 1.70e-06  370 3.26e-05 8.29e-05 1.88e-06 1.70e-06 
     32 1 1.67e-06  370 5.38e-05 3.71e-05 6.22e-06 1.67e-06 
     33 1 1.80e-06  370 4.14e-05 6.89e-05 4.46e-06 1.80e-06 
     34 1 1.83e-06  370 2.18e-05 1.75e-05 6.69e-06 1.83e-06 
     35 1 1.61e-06  370 6.94e-05 2.25e-05 5.67e-06 1.61e-06 
     36 1 1.84e-06  370 8.30e-05 8.78e-06 6.44e-06 1.84e-06 
     37 1 1.38e-06  370 8.27e-05 6.61e-05 2.32e-06 1.38e-06 
     38 1 1.85e-06  370 3.32e-05 2.32e-05 6.26e-06 1.85e-06 
     39 1 1.72e-06  370 8.58e-05 8.49e-05 4.49e-06 1.72e-06 
     40 1 1.78e-06  370 5.16e-05 8.64e-05 6.23e-06 1.78e-06 
     41 1 1.76e-06  370 6.73e-05 6.22e-05 1.78e-06 1.76e-06 
     42 1 1.63e-06  370 5.30e-05 8.65e-05 3.59e-06 1.63e-06 
     43 1 1.80e-06  370 9.11e-05 2.89e-05 2.84e-06 1.80e-06 
     44 1 1.54e-06  370 1.89e-05 6.67e-05 3.20e-06 1.54e-06 
     45 1 1.70e-06  370 6.03e-05 1.80e-05 5.64e-06 1.70e-06 
     46 1 1.79e-06  370 3.46e-05 6.95e-05 3.96e-06 1.79e-06 
     47 1 1.58e-06  370 7.84e-05 1.24e-05 6.05e-06 1.58e-06 
     48 1 1.92e-06  370 5.26e-05 1.08e-05 2.79e-06 1.92e-06 
     49 1 1.54e-06  370 8.09e-05 3.02e-05 5.15e-06 1.54e-06 
     50 1 1.62e-06  370 7.97e-05 8.69e-05 2.80e-06 1.62e-06 
     51 2 1.03e-06  230 5.35e-05 9.89e-05 2.63e-06 1.03e-06 
     52 2 1.17e-06  230 4.58e-05 9.79e-05 3.85e-06 1.17e-06 
     53 2 1.13e-06  230 7.45e-05 5.32e-05 1.88e-06 1.13e-06 
     54 2 1.14e-06  230 2.48e-05 2.70e-05 8.60e-06 1.14e-06 
     55 2 9.25e-07  230 8.61e-05 8.60e-05 6.15e-06 9.25e-07 
     56 2 1.25e-06  230 4.25e-05 9.30e-05 5.48e-06 1.25e-06 
     57 2 1.21e-06  230 9.04e-06 7.48e-05 4.33e-06 1.21e-06 
     58 2 1.32e-06  230 6.07e-05 1.93e-05 3.43e-06 1.32e-06 
     59 2 9.53e-07  230 4.23e-05 2.27e-05 2.02e-06 9.53e-07 
     60 2 1.36e-06  230 6.63e-05 6.28e-05 7.12e-06 1.36e-06 
     61 2 1.31e-06  230 9.13e-05 4.85e-05 5.68e-06 1.31e-06 
     62 2 1.14e-06  230 5.05e-05 3.08e-05 3.33e-06 1.14e-06 
     63 2 1.36e-06  230 9.06e-05 8.78e-05 1.97e-06 1.36e-06 
     64 2 1.37e-06  230 9.71e-05 3.28e-05 2.37e-06 1.37e-06 
     65 2 1.23e-06  230 3.70e-05 4.36e-05 2.62e-06 1.23e-06 
     66 2 1.34e-06  230 7.66e-05 4.40e-05 7.98e-06 1.34e-06 
     67 2 9.69e-07  230 4.40e-05 9.42e-05 3.01e-06 9.69e-07 
     68 2 1.11e-06  230 9.14e-06 6.43e-05 8.69e-06 1.11e-06 
     69 2 1.10e-06  230 2.75e-05 8.28e-05 7.76e-06 1.10e-06 
     70 2 1.33e-06  230 7.81e-05 3.29e-05 4.71e-06 1.33e-06 
     71 2 1.27e-06  230 8.49e-05 9.40e-05 6.84e-06 1.27e-06 
     72 2 1.03e-06  230 4.56e-05 7.26e-05 2.17e-06 1.03e-06 
     73 2 1.29e-06  230 1.75e-05 3.48e-05 5.71e-06 1.29e-06 
     74 2 1.35e-06  230 9.68e-05 8.31e-05 3.82e-06 1.35e-06 
     75 2 9.59e-07  230 9.14e-05 3.00e-05 8.03e-06 9.59e-07 
     76 2 1.10e-06  230 1.33e-05 5.18e-05 5.66e-06 1.10e-06 
     77 2 1.36e-06  230 1.78e-05 6.63e-05 5.89e-06 1.36e-06 
     78 2 9.60e-07  230 3.37e-05 8.46e-05 8.49e-06 9.60e-07 
     79 2 9.24e-07  230 1.79e-06 6.44e-05 2.25e-06 9.24e-07 
     80 2 1.24e-06  230 2.41e-06 8.31e-06 6.01e-06 1.24e-06 
     81 2 9.93e-07  230 9.18e-05 1.03e-05 8.71e-06 9.93e-07 
     82 2 1.03e-06  230 3.35e-05 1.36e-05 6.44e-06 1.03e-06 
     83 2 1.20e-06  230 7.83e-06 3.84e-05 8.29e-06 1.20e-06 
     84 2 1.33e-06  230 1.61e-05 6.09e-05 8.46e-06 1.33e-06 
     85 2 1.35e-06  230 7.84e-05 6.24e-05 6.85e-06 1.35e-06 
     86 2 9.12e-07  230 6.25e-05 7.62e-06 9.70e-07 9.12e-07 
     87 2 1.15e-06  230 7.10e-05 2.85e-05 3.98e-06 1.15e-06 
     88 2 9.22e-07  230 1.67e-05 6.14e-05 3.95e-06 9.22e-07 
     89 2 1.01e-06  230 9.67e-05 5.56e-05 8.58e-06 1.01e-06 
     90 2 1.28e-06  230 6.66e-05 8.37e-05 3.25e-06 1.28e-06 
     91 2 1.32e-06  230 9.11e-05 2.64e-05 7.47e-06 1.32e-06 
     92 2 1.31e-06  230 4.28e-05 3.48e-05 8.10e-06 1.31e-06 
     93 2 1.12e-06  230 3.44e-05 1.87e-05 3.84e-06 1.12e-06 
     94 2 1.28e-06  230 3.72e-05 9.61e-05 1.51e-06 1.28e-06 
     95 2 1.33e-06  230 6.62e-05 8.89e-05 7.46e-06 1.33e-06 
     96 2 1.34e-06  230 5.63e-06 1.36e-06 4.07e-06 1.34e-06 
     97 2 9.21e-07  230 3.49e-05 5.93e-05 2.01e-06 9.21e-07 
     98 2 1.14e-06  230 7.17e-05 5.47e-05 7.33e-06 1.14e-06 
     99 2 9.99e-07  230 1.08e-05 3.43e-05 3.83e-06 9.99e-07 
     100 2 1.19e-06  230 8.78e-05 2.95e-05 7.33e-06 1.19e-06 

 Nutrients 

     1 sub g nn nn nn 1.00e-01 1.00e-01 
     2 o2 l nn nn nd 9.00e-03 9.00e-03 
     3 suc l nn nn nn 3.42e-20 3.42e-20 
     4 co2 l nn nn nd 2.99e-02 2.99e-02 

 Type Name 

     1 cyano  
     2 ecw  

 Diffusion Coeffs 

     sub 0 
     o2 2.3e-09 
     suc 5.2e-10 
     co2 1.9e-09 

 Growth Rate 

     cyano 1.67e-05 
     ecw 8e-06 

 Ks 

     cyano 0.00035 0.0002 0.01 0.000138 
     ecw 0 0.001 3.6 0.05 

 Yield 

     cyano 0.55 
     ecw 0.43 

 Maintenance 

     cyano 0 
     ecw 9.5e-07 

 Decay 

     cyano 0 
     ecw 0 



