LAMMPS (20 Nov 2019)
Reading data file ...
  orthogonal box = (0 0 0) to (0.0001 0.0001 1e-05)
  8 by 4 by 1 MPI processor grid
  reading atoms ...
  100 atoms
  4 nutrients
Lattice spacing in x,y,z = 100 100 100
50 atoms in group CYANO
50 atoms in group ECW
Model is defined as a closed system. 
Neighbor list info ...
  update every 1 steps, delay 0 steps, check yes
  max neighbors/atom: 5000, page size: 100000
  master list distance cutoff = 2.44e-06
  ghost atom cutoff = 2.44e-06
  binsize = 1.22e-06, bins = 82 82 9
  1 neighbor lists, perpetual/occasional/extra = 1 0 0
  (1) pair gran/hooke/history, perpetual
      attributes: half, newton off, size, history
      pair build: half/size/bin/newtoff
      stencil: half/bin/3d/newtoff
      bin: standard
Setting up Verlet run ...
  Unit style    : lj
  Current step  : 0
  Time step     : 10
Per MPI rank memory allocation (min/avg/max) = 5.796 | 10.91 | 12.11 Mbytes
Step CPU Atoms c_myNtypes[1] c_myNtypes[2] c_myMass[1] c_myMass[2] c_myCon[1] c_myCon[2] c_myCon[3] c_myCon[4] 
       0            0      100           50           50 4.8501593e-14 1.0052657e-14          0.1        0.009     3.42e-20       0.0299 
number of iterations: 324143 
     100    15.468241      135           50           85 4.9144346e-14 1.0044837e-14          0.1 0.0090008389  0.038968278  0.029898603 
number of iterations: 4404 
     200    15.825139      157           50          107 4.9795618e-14 1.0037747e-14          0.1   0.00900085   0.07721398  0.029898584 
number of iterations: 2732 
     300    16.109983      157           50          107 5.045552e-14 1.0031393e-14          0.1 0.0090008613   0.11594459  0.029898565 
number of iterations: 2018 
     400    16.339433      159           52          107 5.1124168e-14 1.0025769e-14          0.1 0.0090008677   0.15517057  0.029898555 
number of iterations: 1511 
     500    16.560811      159           52          107 5.1801676e-14 1.0020869e-14          0.1 0.0090008791   0.19489991  0.029898535 
number of iterations: 1425 
     600    16.758507      161           54          107 5.2488163e-14 1.001669e-14          0.1 0.0090008908   0.23514006  0.029898516 
number of iterations: 1511 
     700    16.954809      162           55          107 5.3183747e-14 1.0013225e-14          0.1  0.009000896   0.27589805  0.029898507 
number of iterations: 1417 
     800    17.136596      162           55          107 5.388855e-14 1.0010466e-14          0.1 0.0090009078   0.31718123  0.029898488 
number of iterations: 1420 
     900    17.321064      162           55          107 5.4602692e-14 1.0008408e-14          0.1 0.0090009198   0.35899693  0.029898468 
number of iterations: 1516 
    1000    17.550759      164           57          107 5.5326299e-14 1.0007043e-14          0.1 0.0090009357   0.40135268  0.029898441 
number of iterations: 1426 
    1100     17.73897      164           57          107 5.6059495e-14 1.0006367e-14          0.1  0.009000948   0.44425586  0.029898421 
number of iterations: 1429 
    1200    18.243859      164           57          107 5.6802407e-14 1.0006372e-14          0.1 0.0090009606   0.48771407    0.0298984 
number of iterations: 1432 
    1300    18.476209      164           57          107 5.7555165e-14 1.0007054e-14          0.1 0.0090009733   0.53173499  0.029898378 
number of iterations: 1435 
    1400    18.662274      164           57          107 5.8317898e-14 1.0008407e-14          0.1 0.0090009861   0.57632654  0.029898357 
number of iterations: 1531 
    1500    18.847268      166           59          107 5.909074e-14 1.0010426e-14          0.1 0.0090010026   0.62149631  0.029898329 
number of iterations: 1668 
    1600     19.06435      167           60          107 5.9873823e-14 1.0013104e-14          0.1 0.0090010196   0.66725243  0.029898301 
number of iterations: 1450 
    1700    19.240977      168           61          107 6.0667283e-14 1.0016437e-14          0.1 0.0090010331   0.71360296  0.029898279 
number of iterations: 1452 
    1800    19.416846      168           61          107 6.1471259e-14 1.0020419e-14          0.1 0.0090010467   0.76055611  0.029898256 
number of iterations: 1454 
    1900    19.610952      168           61          107 6.2285889e-14 1.0025047e-14          0.1 0.0090010606   0.80812016  0.029898233 
number of iterations: 1480 
    2000    19.838563      170           63          107 6.3111315e-14 1.0030314e-14          0.1 0.0090010659    0.8563035  0.029898224 
number of iterations: 1460 
    2100    20.023996      173           66          107 6.394768e-14 1.0036216e-14          0.1 0.0090010789    0.9051146  0.029898202 
number of iterations: 1453 
    2200    20.221968      175           68          107 6.4795128e-14 1.0042749e-14          0.1 0.0090010899    0.9545621  0.029898184 
number of iterations: 1567 
    2300    20.408893      176           69          107 6.5653807e-14 1.0049908e-14          0.1 0.0090011078    1.0046547  0.029898154 
number of iterations: 1468 
    2400    20.590732      176           69          107 6.6523865e-14 1.0057689e-14          0.1 0.0090011224    1.0554013   0.02989813 
number of iterations: 1471 
    2500    20.777836      176           69          107 6.7405454e-14 1.0066087e-14          0.1 0.0090011373    1.1068108  0.029898105 
number of iterations: 1470 
    2600    20.969124      178           71          107 6.8298725e-14  1.00751e-14          0.1  0.009001146    1.1588921   0.02989809 
number of iterations: 1476 
    2700    21.157773      178           71          107 6.9203834e-14 1.0084724e-14          0.1 0.0090011612    1.2116546  0.029898065 
number of iterations: 1479 
    2800    21.337515      179           71          108 7.0120938e-14 1.0094953e-14          0.1 0.0090011765    1.2651074  0.029898039 
number of iterations: 1527 
    2900    21.525767      181           72          109 7.1050195e-14 1.0105786e-14          0.1 0.0090011944    1.3192601   0.02989801 
number of iterations: 1653 
    3000    21.780769      184           74          110 7.1991768e-14 1.0117218e-14          0.1 0.0090012156    1.3741223  0.029897974 
number of iterations: 1488 
    3100     21.96184      185           75          110 7.2945818e-14 1.0129247e-14          0.1 0.0090012317    1.4297033  0.029897947 
number of iterations: 1491 
    3200    22.172582      185           75          110 7.3912511e-14 1.0141868e-14          0.1  0.009001248    1.4860131   0.02989792 
number of iterations: 1493 
    3300    22.359025      185           75          110 7.4892015e-14 1.0155079e-14          0.1 0.0090012646    1.5430616  0.029897893 
number of iterations: 1417 
    3400    22.513048      188           78          110  7.58845e-14 1.0168877e-14          0.1 0.0090012751    1.6008589  0.029897875 
number of iterations: 1542 
    3500    22.712375      189           79          110 7.6890138e-14 1.0183257e-14          0.1 0.0090012965    1.6594151  0.029897839 
number of iterations: 1501 
    3600    22.905549      189           79          110 7.7909102e-14 1.0198217e-14          0.1 0.0090013137    1.7187405  0.029897811 
number of iterations: 1504 
    3700    23.081964      190           80          110 7.894157e-14 1.0213755e-14          0.1 0.0090013261    1.7788455   0.02989779 
number of iterations: 1524 
    3800    23.263743      193           83          110 7.998772e-14 1.0229867e-14          0.1 0.0090013411    1.8397405  0.029897765 
number of iterations: 1510 
    3900    23.427221      193           83          110 8.1047734e-14 1.0246552e-14          0.1 0.0090013588    1.9014365  0.029897735 
number of iterations: 1602 
    4000    23.629058      193           83          110 8.2121796e-14 1.0263806e-14          0.1 0.0090013782    1.9639442  0.029897703 
number of iterations: 1516 
    4100    23.864718      194           83          111 8.3210091e-14 1.0281628e-14          0.1 0.0090013911    2.0272745  0.029897682 
number of iterations: 1519 
    4200    24.059941      194           83          111 8.4312808e-14 1.0300015e-14          0.1 0.0090014095    2.0914387  0.029897651 
number of iterations: 1522 
    4300    24.228615      194           83          111 8.5430139e-14 1.0318965e-14          0.1 0.0090014282     2.156448   0.02989762 
number of iterations: 1612 
    4400    24.410202      197           86          111 8.6562277e-14 1.0338476e-14          0.1 0.0090014502    2.2223138  0.029897583 
number of iterations: 1528 
    4500    24.581334      201           87          114 8.7709419e-14 1.0358545e-14          0.1 0.0090014694    2.2890477  0.029897551 
number of iterations: 1598 
    4600    24.747482      205           90          115 8.8871762e-14 1.0379171e-14          0.1 0.0090014757    2.3566614  0.029897541 
number of iterations: 1752 
    4700    24.937041      206           91          115 9.0049509e-14 1.0400353e-14          0.1  0.009001503    2.4251667  0.029897495 
number of iterations: 1529 
    4800     25.12773      206           91          115 9.1242864e-14 1.0422088e-14          0.1 0.0090015229    2.4945757  0.029897462 
number of iterations: 1534 
    4900    25.303721      206           91          115 9.2452034e-14 1.0444375e-14          0.1 0.0090015431    2.5649006  0.029897428 
number of iterations: 1582 
    5000    25.495536      207           92          115 9.3677227e-14 1.0467211e-14          0.1 0.0090015661    2.6361537   0.02989739 
number of iterations: 1703 
    5100    25.692157      209           94          115 9.4918657e-14 1.0490595e-14          0.1 0.0090015954    2.7083473  0.029897341 
number of iterations: 1611 
    5200    25.870034      211           96          115 9.6176539e-14 1.0514526e-14          0.1 0.0090016224    2.7814943  0.029897296 
number of iterations: 1549 
    5300    26.073789      211           96          115 9.745109e-14 1.0539002e-14          0.1 0.0090016439    2.8556076   0.02989726 
number of iterations: 1536 
    5400    26.246492      212           97          115 9.8742532e-14 1.0564023e-14          0.1 0.0090016512       2.9307  0.029897248 
number of iterations: 1558 
    5500    26.406774      215           99          116 1.0005109e-13 1.0589586e-14          0.1 0.0090016683     3.006785  0.029897219 
number of iterations: 1558 
    5600    26.576575      217          101          116 1.0137699e-13 1.0615691e-14          0.1 0.0090016904    3.0838758  0.029897183 
number of iterations: 1558 
    5700    26.748248      218          102          116 1.0272046e-13 1.0642335e-14          0.1 0.0090017063    3.1619857  0.029897156 
number of iterations: 1563 
    5800    26.950105      218          102          116 1.0408173e-13 1.0669519e-14          0.1 0.0090017289    3.2411285  0.029897119 
number of iterations: 1566 
    5900    27.122027      218          102          116 1.0546104e-13 1.0697241e-14          0.1 0.0090017518    3.3213181   0.02989708 
number of iterations: 1573 
    6000     27.33128      220          104          116 1.0685863e-13  1.07255e-14          0.1 0.0090017721    3.4025686  0.029897047 
number of iterations: 1590 
    6100    27.508612      224          108          116 1.0827474e-13 1.0754296e-14          0.1 0.0090017963    3.4848944  0.029897006 
number of iterations: 1575 
    6200     27.68882      226          110          116 1.0970962e-13 1.0783626e-14          0.1 0.0090018176    3.5683093  0.029896971 
number of iterations: 1566 
    6300    27.863104      228          111          117 1.1116352e-13 1.0813492e-14          0.1 0.0090018417    3.6528284  0.029896931 
number of iterations: 1561 
    6400    28.056154      230          112          118 1.1263668e-13 1.0843892e-14          0.1 0.0090018597    3.7384664  0.029896901 
number of iterations: 1571 
    6500    28.248994      230          112          118 1.1412936e-13 1.0874825e-14          0.1 0.0090018843    3.8252383  0.029896859 
number of iterations: 1574 
    6600    28.477105      231          113          118 1.1564183e-13 1.090629e-14          0.1 0.0090019105    3.9131593  0.029896816 
number of iterations: 1579 
    6700    28.663737      231          113          118 1.1717434e-13 1.0938288e-14          0.1 0.0090019359     4.002245  0.029896774 
number of iterations: 1580 
    6800    28.837681      232          113          119 1.1872716e-13 1.0970817e-14          0.1 0.0090019615    4.0925107  0.029896731 
number of iterations: 1568 
    6900    29.015968      235          116          119 1.2030055e-13 1.1003877e-14          0.1  0.009001986    4.1839724   0.02989669 
number of iterations: 1583 
    7000    29.203663      237          118          119 1.218948e-13 1.1037468e-14          0.1 0.0090020124    4.2766459  0.029896646 
number of iterations: 1586 
    7100     29.41539      242          119          123 1.2351018e-13 1.107159e-14          0.1 0.0090020364    4.3705475  0.029896606 
number of iterations: 1627 
    7200    29.599134      248          124          124 1.2514696e-13 1.1106243e-14          0.1 0.0090020671    4.4656938  0.029896555 
number of iterations: 1590 
    7300    29.791143      249          125          124 1.2680543e-13 1.1141425e-14          0.1 0.0090020945    4.5621014  0.029896509 
number of iterations: 1663 
    7400    30.004331      253          129          124 1.2848588e-13 1.117714e-14          0.1 0.0090021211    4.6597873  0.029896465 
number of iterations: 1601 
    7500     30.18416      256          132          124 1.301886e-13 1.1213384e-14          0.1 0.0090021476    4.7587684  0.029896421 
number of iterations: 1648 
    7600    30.377792      256          132          124 1.3191389e-13 1.1250158e-14          0.1  0.009002181    4.8590619  0.029896365 
number of iterations: 1607 
    7700    30.563703      257          133          124 1.3366204e-13 1.1287463e-14          0.1 0.0090022099    4.9606855  0.029896317 
number of iterations: 1715 
    7800     30.74906      262          138          124 1.3543335e-13 1.1325299e-14          0.1 0.0090022489    5.0636572  0.029896252 
number of iterations: 1552 
    7900     30.92316      263          138          125 1.3722814e-13 1.1363664e-14          0.1 0.0090022736    5.1679948  0.029896211 
number of iterations: 1615 
    8000    31.127419      264          138          126 1.3904672e-13 1.140256e-14          0.1 0.0090023037    5.2737167  0.029896161 
number of iterations: 1620 
    8100    31.373901      265          139          126 1.4088939e-13 1.1441987e-14          0.1 0.0090023354    5.3808414  0.029896108 
number of iterations: 1617 
    8200    31.569014      268          142          126 1.4275649e-13 1.1481945e-14          0.1  0.009002363    5.4893876  0.029896062 
number of iterations: 1698 
    8300    31.800703      270          144          126 1.4464832e-13 1.1522434e-14          0.1  0.009002393    5.5993743  0.029896012 
number of iterations: 1626 
    8400    31.978245      270          144          126 1.4656523e-13 1.1563454e-14          0.1 0.0090024247    5.7108207  0.029895959 
number of iterations: 1656 
    8500    32.155448      272          145          127 1.4850754e-13 1.1605007e-14          0.1 0.0090024604    5.8237465  0.029895899 
number of iterations: 1644 
    8600    32.327263      274          146          128 1.5047559e-13 1.1647091e-14          0.1 0.0090024931    5.9381714  0.029895845 
number of iterations: 1780 
    8700    32.527783      276          148          128 1.5246973e-13 1.168971e-14          0.1 0.0090025343    6.0541152  0.029895776 
number of iterations: 1640 
    8800    32.697457      281          153          128 1.5449028e-13 1.1732861e-14          0.1 0.0090025631    6.1715985  0.029895728 
number of iterations: 1677 
    8900    32.901952      285          157          128 1.5653762e-13 1.1776547e-14          0.1 0.0090025916    6.2906417  0.029895681 
number of iterations: 1755 
    9000    33.092121      287          159          128 1.5861209e-13 1.1820768e-14          0.1 0.0090026281    6.4112659   0.02989562 
number of iterations: 1697 
    9100    33.298141      291          162          129 1.6071405e-13 1.1865524e-14          0.1 0.0090026631    6.5334918  0.029895562 
number of iterations: 1623 
    9200    33.473892      293          164          129 1.6284386e-13 1.1910816e-14          0.1 0.0090026971    6.6573415  0.029895505 
number of iterations: 1656 
    9300    33.662025      293          164          129 1.650019e-13 1.1956645e-14          0.1 0.0090027329     6.782836  0.029895445 
number of iterations: 1659 
    9400    33.844332      295          165          130 1.6718853e-13 1.2003011e-14          0.1 0.0090027691    6.9099977  0.029895385 
number of iterations: 1660 
    9500    34.032801      295          165          130 1.6940415e-13 1.2049916e-14          0.1 0.0090028042    7.0388483  0.029895327 
number of iterations: 1711 
    9600    34.231227      302          171          131 1.7164913e-13 1.2097359e-14          0.1 0.0090028463    7.1694104  0.029895257 
number of iterations: 1589 
    9700    34.424262      303          172          131 1.7392385e-13 1.2145343e-14          0.1  0.009002863    7.3017069  0.029895229 
number of iterations: 1759 
    9800    34.624008      306          175          131 1.7622873e-13 1.2193868e-14          0.1 0.0090029125    7.4357607  0.029895146 
number of iterations: 1672 
    9900    34.848763      308          177          131 1.7856414e-13 1.2242935e-14          0.1 0.0090029482    7.5715956  0.029895087 
number of iterations: 1662 
   10000    35.030046      311          180          131 1.8093051e-13 1.2292545e-14          0.1  0.009002978    7.7092353  0.029895037 
number of iterations: 1690 
   10100    35.223039      313          182          131 1.8332823e-13 1.2342699e-14          0.1 0.0090030223    7.8487037  0.029894963 
number of iterations: 1822 
   10200     35.40549      316          185          131 1.8575774e-13 1.2393398e-14          0.1 0.0090030718    7.9900253  0.029894881 
number of iterations: 1820 
   10300    35.600135      318          187          131 1.8821943e-13 1.2444645e-14          0.1 0.0090031111     8.133225  0.029894815 
number of iterations: 1628 
   10400    35.782786      319          188          131 1.9071375e-13 1.2496438e-14          0.1 0.0090031372    8.2783278  0.029894772 
number of iterations: 1697 
   10500    35.957931      324          192          132 1.9324113e-13 1.2548782e-14          0.1 0.0090031754    8.4253585  0.029894708 
number of iterations: 1697 
   10600    36.145972      331          198          133  1.95802e-13 1.2601676e-14          0.1 0.0090032175    8.5743435  0.029894638 
number of iterations: 1698 
   10700     36.33346      334          200          134 1.983968e-13 1.2655121e-14          0.1 0.0090032632    8.7253077  0.029894562 
number of iterations: 1695 
   10800    36.536171      336          202          134 2.0102599e-13 1.270912e-14          0.1 0.0090033053    8.8782782  0.029894492 
number of iterations: 1691 
   10900    36.743792      337          203          134 2.0369003e-13 1.2763673e-14          0.1 0.0090033467    9.0332823  0.029894423 
number of iterations: 1713 
   11000    36.920277      339          205          134 2.0638937e-13 1.2818782e-14          0.1 0.0090033846    9.1903462   0.02989436 
number of iterations: 1763 
   11100    37.196736      342          205          137 2.0912448e-13 1.2874448e-14          0.1  0.009003436    9.3494976  0.029894274 
number of iterations: 1778 
   11200    37.403177      345          208          137 2.1189583e-13 1.2930673e-14          0.1 0.0090034862    9.5107644  0.029894191 
number of iterations: 1770 
   11300    37.587442      351          212          139 2.1470392e-13 1.2987458e-14          0.1 0.0090035333     9.674175  0.029894112 
number of iterations: 1760 
   11400    37.770223      356          216          140 2.1754921e-13 1.3044805e-14          0.1 0.0090035857    9.8397572  0.029894025 
number of iterations: 1774 
   11500    37.965743      358          217          141 2.2043222e-13 1.3102716e-14          0.1 0.0090036396    10.007541  0.029893935 
number of iterations: 1726 
   11600    38.145142      363          220          143 2.2335343e-13 1.3161192e-14          0.1 0.0090036857    10.177554  0.029893858 
number of iterations: 1762 
   11700    38.361464      367          223          144 2.2631335e-13 1.3220236e-14          0.1 0.0090037379    10.349828  0.029893771 
number of iterations: 1741 
   11800    38.553767      369          225          144 2.2931249e-13 1.3279849e-14          0.1 0.0090037875    10.524392  0.029893688 
number of iterations: 1730 
   11900    38.752452      376          230          146 2.3235138e-13 1.3340032e-14          0.1 0.0090038334    10.701276  0.029893612 
number of iterations: 1661 
   12000    38.934369      379          232          147 2.3543055e-13 1.3400787e-14          0.1 0.0090038738    10.880512  0.029893545 
number of iterations: 1737 
   12100    39.204148      382          235          147 2.3855052e-13 1.3462117e-14          0.1 0.0090039177    11.062131  0.029893471 
number of iterations: 1789 
   12200    39.391992      383          236          147 2.4171183e-13 1.3524023e-14          0.1 0.0090039751    11.246165  0.029893376 
number of iterations: 1772 
   12300    39.590938      388          240          148 2.4491504e-13 1.3586505e-14          0.1 0.0090040303    11.432645  0.029893284 
number of iterations: 1767 
   12400    39.789302      392          243          149 2.481607e-13 1.3649567e-14          0.1 0.0090040827    11.621605  0.029893197 
number of iterations: 1823 
   12500     39.97605      395          246          149 2.5144937e-13 1.3713211e-14          0.1 0.0090041371    11.813076  0.029893106 
number of iterations: 1712 
   12600    40.169897      397          248          149 2.5478163e-13 1.3777439e-14          0.1 0.0090041796    12.007093  0.029893035 
number of iterations: 1820 
   12700    40.383721      402          253          149 2.5815804e-13 1.3842253e-14          0.1 0.0090042377     12.20369  0.029892939 
number of iterations: 1757 
   12800    40.583245      407          258          149 2.615792e-13 1.3907654e-14          0.1    0.0090043      12.4029  0.029892835 
number of iterations: 1847 
   12900    40.769721      411          262          149 2.6504569e-13 1.3973645e-14          0.1 0.0090043506    12.604759   0.02989275 
number of iterations: 1749 
   13000    40.956095      417          267          150 2.6855812e-13 1.4040229e-14          0.1 0.0090044116    12.809302  0.029892649 
number of iterations: 1788 
   13100    41.160027      421          271          150 2.721171e-13 1.4107406e-14          0.1 0.0090044723    13.016565  0.029892548 
number of iterations: 1725 
   13200    41.345596      423          273          150 2.7572325e-13 1.4175181e-14          0.1 0.0090045293    13.226583  0.029892453 
number of iterations: 1816 
   13300    41.551783      424          274          150 2.7937718e-13 1.4243554e-14          0.1 0.0090045903    13.439394  0.029892351 
number of iterations: 1810 
   13400    41.757834      430          279          151 2.8307954e-13 1.4312528e-14          0.1 0.0090046591    13.655034  0.029892236 
number of iterations: 1831 
   13500    41.968064      433          282          151 2.8683096e-13 1.4382104e-14          0.1 0.0090047202    13.873541  0.029892135 
number of iterations: 1748 
   13600    42.147548      445          289          156 2.9063209e-13 1.4452286e-14          0.1 0.0090047603    14.094954  0.029892068 
number of iterations: 1748 
   13700    42.336085      448          292          156 2.944836e-13 1.4523076e-14          0.1 0.0090048137     14.31931  0.029891979 
number of iterations: 1804 
   13800    42.529819      453          295          158 2.9838615e-13 1.4594475e-14          0.1  0.009004881    14.546649  0.029891867 
number of iterations: 1845 
   13900    42.724425      460          302          158 3.0234042e-13 1.4666487e-14          0.1 0.0090049443    14.777011  0.029891761 
number of iterations: 1807 
   14000    42.916642      465          307          158 3.0634709e-13 1.4739114e-14          0.1 0.0090050197    15.010436  0.029891636 
number of iterations: 1771 
   14100    43.122519      471          312          159 3.1040685e-13 1.4812358e-14          0.1 0.0090050817    15.246963  0.029891532 
number of iterations: 1795 
   14200    43.307317      471          312          159 3.1452042e-13 1.4886222e-14          0.1 0.0090051491    15.486636   0.02989142 
number of iterations: 1841 
   14300     43.51865      474          315          159 3.186885e-13 1.4960709e-14          0.1  0.009005216    15.729496  0.029891309 
number of iterations: 1836 
   14400    43.733796      480          319          161 3.2291181e-13 1.5035822e-14          0.1 0.0090052818    15.975586  0.029891199 
number of iterations: 1764 
   14500    43.945484      489          328          161 3.271911e-13 1.5111561e-14          0.1 0.0090053449    16.224949  0.029891094 
number of iterations: 1808 
   14600    44.165262      490          329          161 3.3152709e-13 1.5187932e-14          0.1 0.0090054069    16.477628  0.029890991 
number of iterations: 1812 
   14700    44.365927      494          332          162 3.3592054e-13 1.5264936e-14          0.1 0.0090054796    16.733667   0.02989087 
number of iterations: 1802 
   14800    44.570527      496          334          162 3.4037222e-13 1.5342575e-14          0.1 0.0090055416     16.99311  0.029890766 
number of iterations: 1848 
   14900    44.774194      503          341          162 3.4488289e-13 1.5420853e-14          0.1 0.0090056211    17.256003  0.029890634 
number of iterations: 1817 
   15000    44.975526      507          345          162 3.4945334e-13 1.5499773e-14          0.1 0.0090056942    17.522392  0.029890512 
number of iterations: 1818 
   15100     45.19089      509          347          162 3.5408435e-13 1.5579336e-14          0.1  0.009005765    17.792322  0.029890394 
number of iterations: 1856 
   15200    45.392901      517          351          166 3.5877674e-13 1.5659546e-14          0.1 0.0090058567    18.065842  0.029890242 
number of iterations: 1783 
   15300    45.600224      523          357          166 3.6353131e-13 1.5740407e-14          0.1 0.0090059206    18.342998  0.029890135 
number of iterations: 1871 
   15400    45.801286      527          360          167 3.6834889e-13 1.582192e-14          0.1 0.0090060156     18.62384  0.029889977 
number of iterations: 1833 
   15500    45.996028      529          361          168 3.7323031e-13 1.590409e-14          0.1 0.0090060991    18.908415  0.029889838 
number of iterations: 1776 
   15600    46.207562      539          370          169 3.7817642e-13 1.5986917e-14          0.1 0.0090061694    19.196774  0.029889721 
number of iterations: 1829 
   15700    46.389816      547          378          169 3.8318808e-13 1.6070406e-14          0.1 0.0090062523    19.488966  0.029889583 
number of iterations: 1840 
   15800    46.601773      554          383          171 3.8826615e-13 1.6154559e-14          0.1 0.0090063279    19.785043  0.029889457 
number of iterations: 1877 
   15900     46.79249      562          391          171 3.9341151e-13 1.6239381e-14          0.1 0.0090064146    20.085056  0.029889312 
number of iterations: 1833 
   16000    47.002113      566          395          171 3.9862507e-13 1.6324872e-14          0.1 0.0090064921    20.389057  0.029889183 
number of iterations: 1892 
   16100    47.195641      572          400          172 4.0390771e-13 1.6411038e-14          0.1 0.0090065874    20.697101  0.029889024 
number of iterations: 1886 
   16200    47.386334      577          403          174 4.0926037e-13 1.6497881e-14          0.1  0.009006681    21.009239  0.029888869 
number of iterations: 1892 
   16300    47.589521      583          408          175 4.1468395e-13 1.6585404e-14          0.1 0.0090067663    21.325528  0.029888726 
number of iterations: 1846 
   16400    47.780168      590          414          176 4.2017941e-13 1.667361e-14          0.1 0.0090068493    21.646022  0.029888588 
number of iterations: 1841 
   16500     47.97112      598          421          177 4.257477e-13 1.6762503e-14          0.1 0.0090069395    21.970777  0.029888438 
number of iterations: 1886 
   16600    48.187837      600          422          178 4.3138977e-13 1.6852085e-14          0.1 0.0090070312     22.29985  0.029888285 
number of iterations: 1871 
   16700    48.426032      604          426          178 4.3710662e-13 1.6942361e-14          0.1 0.0090071325    22.633297  0.029888116 
number of iterations: 1871 
   16800    48.637438      612          434          178 4.4289923e-13 1.7033334e-14          0.1 0.0090072253    22.971177  0.029887962 
number of iterations: 1856 
   16900    48.818018      618          440          178 4.487686e-13 1.7125006e-14          0.1 0.0090073151    23.313549  0.029887812 
number of iterations: 1864 
   17000    49.047127      624          444          180 4.5471575e-13 1.7217382e-14          0.1 0.0090074037    23.660473  0.029887665 
number of iterations: 1885 
   17100    49.230088      633          452          181 4.6074171e-13 1.7310465e-14          0.1 0.0090075044    24.012008  0.029887497 
number of iterations: 1844 
   17200    49.435926      643          462          181 4.6684754e-13 1.7404258e-14          0.1 0.0090075943    24.368217  0.029887347 
number of iterations: 1891 
   17300    49.640127      652          468          184 4.7303427e-13 1.7498765e-14          0.1 0.0090077051    24.729161  0.029887163 
number of iterations: 1920 
   17400     49.84487      657          473          184  4.79303e-13 1.759399e-14          0.1  0.009007819    25.094903  0.029886973 
number of iterations: 1868 
   17500    50.061118      669          484          185 4.8565479e-13 1.7689936e-14          0.1 0.0090079163    25.465507  0.029886811 
number of iterations: 1927 
   17600    50.263297      675          489          186 4.9209077e-13 1.7786606e-14          0.1 0.0090080292    25.841038  0.029886623 
number of iterations: 1921 
   17700    50.476945      685          498          187 4.9861203e-13 1.7884005e-14          0.1 0.0090081308     26.22156  0.029886454 
number of iterations: 1871 
   17800    50.691817      692          504          188 5.0521971e-13 1.7982135e-14          0.1 0.0090082357     26.60714  0.029886279 
number of iterations: 1900 
   17900    50.885728      695          506          189 5.1191496e-13 1.8081002e-14          0.1 0.0090083524    26.997845  0.029886085 
number of iterations: 1923 
   18000    51.117249      704          513          191 5.1869893e-13 1.8180608e-14          0.1 0.0090084515    27.393744   0.02988592 
number of iterations: 1951 
   18100    51.338781      709          517          192 5.2557281e-13 1.8280957e-14          0.1 0.0090085818    27.794905  0.029885703 
number of iterations: 1859 
   18200    51.553923      716          521          195 5.3253778e-13 1.8382053e-14          0.1 0.0090086897    28.201398  0.029885523 
number of iterations: 1913 
   18300    51.783773      721          525          196 5.3959505e-13  1.84839e-14          0.1 0.0090088043    28.613293  0.029885332 
number of iterations: 1889 
   18400    51.978746      735          539          196 5.4674584e-13 1.8586501e-14          0.1 0.0090089309    29.030665  0.029885121 
number of iterations: 1918 
   18500    52.188342      740          543          197 5.539914e-13 1.8689862e-14          0.1 0.0090090564    29.453584  0.029884912 
number of iterations: 1893 
   18600    52.388311      748          549          199 5.6133297e-13 1.8793986e-14          0.1 0.0090091698    29.882124  0.029884723 
number of iterations: 1937 
   18700    52.587611      757          556          201 5.6877184e-13 1.8898876e-14          0.1 0.0090093004    30.316361  0.029884506 
number of iterations: 1922 
   18800    52.788362      769          565          204 5.7630929e-13 1.9004536e-14          0.1 0.0090094172    30.756369  0.029884311 
number of iterations: 1980 
   18900    53.026454      786          576          210 5.8394662e-13 1.9110971e-14          0.1 0.0090095442    31.202226    0.0298841 
number of iterations: 1970 
   19000    53.247258      790          580          210 5.9168516e-13 1.9218185e-14          0.1 0.0090096763    31.654008   0.02988388 
number of iterations: 1988 
   19100    53.449776      803          592          211 5.9952626e-13 1.9326182e-14          0.1 0.0090098188    32.111796  0.029883642 
number of iterations: 1943 
   19200    53.663996      819          605          214 6.0747127e-13 1.9434966e-14          0.1 0.0090099591    32.575668  0.029883409 
number of iterations: 1942 
   19300    53.872995      828          613          215 6.1552156e-13 1.954454e-14          0.1 0.0090100987    33.045705  0.029883176 
number of iterations: 1911 
   19400    54.076614      842          623          219 6.2367854e-13 1.965491e-14          0.1 0.0090102228    33.521988  0.029882969 
number of iterations: 1969 
   19500    54.270893      850          631          219 6.3194361e-13 1.976608e-14          0.1 0.0090103756    34.004603  0.029882715 
number of iterations: 1952 
   19600    54.490572      852          632          220 6.4031821e-13 1.9878054e-14          0.1 0.0090105178    34.493631  0.029882478 
number of iterations: 1967 
   19700    54.689174      864          643          221 6.488038e-13 1.9990835e-14          0.1 0.0090106497    34.989159  0.029882258 
number of iterations: 1972 
   19800    54.910687      874          652          222 6.5740183e-13 2.010443e-14          0.1 0.0090108048    35.491272     0.029882 
number of iterations: 2006 
   19900    55.135998      878          656          222 6.6611381e-13 2.0218841e-14          0.1 0.0090109479    36.000059  0.029881762 
number of iterations: 2019 
   20000    55.354534      882          659          223 6.7494124e-13 2.0334073e-14          0.1 0.0090111192    36.515607  0.029881476 
number of iterations: 1991 
   20100      55.5703      895          669          226 6.8388565e-13 2.0450132e-14          0.1 0.0090112632    37.038007  0.029881236 
number of iterations: 1951 
   20200     55.78613      908          680          228 6.9294859e-13 2.0567022e-14          0.1 0.0090113918    37.567349  0.029881022 
number of iterations: 1924 
   20300    55.996672      918          690          228 7.0213163e-13 2.0684746e-14          0.1  0.009011535    38.103724  0.029880784 
number of iterations: 1933 
   20400    56.186213      925          696          229 7.1143637e-13 2.080331e-14          0.1 0.0090116798    38.647228  0.029880543 
number of iterations: 2004 
   20500    56.394979      946          717          229 7.2086442e-13 2.0922718e-14          0.1 0.0090118546    39.197954  0.029880252 
number of iterations: 1947 
   20600    56.605379      957          724          233 7.304174e-13 2.1042974e-14          0.1 0.0090120138    39.755999  0.029879986 
number of iterations: 2054 
   20700    56.811714      968          735          233 7.4009699e-13 2.1164084e-14          0.1 0.0090121764    40.321459  0.029879715 
number of iterations: 1958 
   20800      57.0087      977          743          234 7.4990484e-13 2.1286051e-14          0.1 0.0090123275    40.894432  0.029879464 
number of iterations: 1973 
   20900    57.242828      986          752          234 7.5984267e-13 2.1408882e-14          0.1 0.0090124843    41.475019  0.029879203 
number of iterations: 1985 
   21000    57.461006      989          755          234 7.699122e-13 2.153258e-14          0.1 0.0090126477     42.06332  0.029878931 
number of iterations: 2003 
   21100    57.669452      995          761          234 7.8011517e-13 2.1657151e-14          0.1 0.0090128235    42.659439  0.029878638 
number of iterations: 2022 
   21200     57.88801     1005          770          235 7.9045335e-13 2.1782599e-14          0.1 0.0090129851    43.263478  0.029878369 
number of iterations: 1978 
   21300    58.157021     1016          780          236 8.0092853e-13 2.190893e-14          0.1  0.009013149    43.875543  0.029878096 
number of iterations: 1991 
   21400    58.424678     1029          793          236 8.1154253e-13 2.2036148e-14          0.1 0.0090133112     44.49574  0.029877826 
number of iterations: 1971 
   21500    58.630799     1044          806          238 8.2229719e-13 2.2164258e-14          0.1 0.0090134928    45.124178  0.029877523 
number of iterations: 2034 
   21600    58.878833     1059          820          239 8.3319436e-13 2.2293266e-14          0.1 0.0090136522    45.760966  0.029877258 
number of iterations: 2029 
   21700    59.105482     1075          834          241 8.4423595e-13 2.2423175e-14          0.1 0.0090138523    46.406214  0.029876924 
number of iterations: 2053 
   21800    59.335207     1085          844          241 8.5542386e-13 2.2553993e-14          0.1 0.0090140608    47.060035  0.029876577 
number of iterations: 2016 
   21900    59.552981     1097          854          243 8.6676003e-13 2.2685722e-14          0.1 0.0090142505    47.722544  0.029876261 
number of iterations: 1968 
   22000    59.773975     1107          863          244 8.7824643e-13 2.281837e-14          0.1 0.0090144372    48.393854   0.02987595 
number of iterations: 2036 
   22100    59.999768     1118          872          246 8.8988504e-13 2.295194e-14          0.1 0.0090146444    49.074084  0.029875605 
number of iterations: 2043 
   22200     60.20901     1130          884          246 9.016779e-13 2.3086439e-14          0.1 0.0090148231     49.76335  0.029875308 
number of iterations: 2025 
   22300     60.43176     1143          896          247 9.1362703e-13 2.322187e-14          0.1 0.0090150068    50.461774  0.029875002 
number of iterations: 2032 
   22400     60.65795     1157          909          248 9.2573451e-13 2.3358241e-14          0.1 0.0090151838    51.169478  0.029874707 
number of iterations: 2010 
   22500    60.880708     1171          922          249 9.3800244e-13 2.3495556e-14          0.1 0.0090153756    51.886582  0.029874387 
number of iterations: 2093 
   22600    61.096846     1189          935          254 9.5043294e-13 2.363382e-14          0.1 0.0090156044    52.613212  0.029874006 
number of iterations: 2076 
   22700    61.327143     1202          948          254 9.6302817e-13 2.3773039e-14          0.1 0.0090158106    53.349495  0.029873663 
number of iterations: 2079 
   22800    61.585795     1217          962          255 9.7579032e-13 2.3913219e-14          0.1 0.0090160252    54.095559  0.029873306 
number of iterations: 2069 
   22900     61.84174     1229          974          255 9.8872158e-13 2.4054365e-14          0.1 0.0090162349    54.851535  0.029872956 
number of iterations: 2048 
   23000    62.074088     1242          986          256 1.0018242e-12 2.4196482e-14          0.1 0.0090164458    55.617554  0.029872605 
number of iterations: 2053 
   23100    62.283823     1260         1002          258 1.0151005e-12 2.4339577e-14          0.1 0.0090166805    56.393748  0.029872214 
number of iterations: 2053 
   23200    62.513576     1272         1011          261 1.0285527e-12 2.4483654e-14          0.1 0.0090168868    57.180253  0.029871871 
number of iterations: 2042 
   23300    62.740112     1292         1029          263 1.0421832e-12 2.462872e-14          0.1 0.0090171162    57.977205  0.029871489 
number of iterations: 2012 
   23400    63.048809     1307         1044          263 1.0559943e-12 2.4774779e-14          0.1 0.0090173339    58.784742  0.029871126 
number of iterations: 2041 
   23500     63.28124     1323         1056          267 1.0699884e-12 2.4921839e-14          0.1 0.0090175411    59.603004  0.029870781 
number of iterations: 2076 
   23600    63.514336     1342         1074          268 1.084168e-12 2.5069904e-14          0.1 0.0090177848    60.432136  0.029870375 
number of iterations: 2053 
   23700    63.717989     1354         1086          268 1.0985355e-12 2.5218982e-14          0.1  0.009018007    61.272282  0.029870005 
number of iterations: 2078 
   23800     63.92869     1378         1109          269 1.1130934e-12 2.5369076e-14          0.1 0.0090182708    62.123588  0.029869566 
number of iterations: 2040 
   23900    64.183376     1395         1123          272 1.1278442e-12 2.5520195e-14          0.1 0.0090185134      62.9862  0.029869162 
number of iterations: 2066 
   24000    64.401256     1406         1133          273 1.1427905e-12 2.5672342e-14          0.1 0.0090187615    63.860268  0.029868748 
number of iterations: 2029 
   24100    64.615001     1419         1145          274 1.1579348e-12 2.5825525e-14          0.1 0.0090189779    64.745946  0.029868388 
number of iterations: 2067 
   24200    64.829873     1426         1152          274 1.1732798e-12 2.5979749e-14          0.1 0.0090192154    65.643386  0.029867992 
number of iterations: 2054 
   24300    65.049092     1445         1169          276 1.1888282e-12 2.6135021e-14          0.1 0.0090194539    66.552747  0.029867595 
number of iterations: 2053 
   24400    65.277208     1466         1190          276 1.2045827e-12 2.6291347e-14          0.1 0.0090197142    67.474185  0.029867162 
number of iterations: 2069 
   24500    65.510462     1479         1202          277 1.2205459e-12 2.6448732e-14          0.1 0.0090199779    68.407861  0.029866723 
number of iterations: 2080 
   24600    65.771523     1504         1223          281 1.2367207e-12 2.6607184e-14          0.1 0.0090202071    69.353939  0.029866341 
number of iterations: 2101 
   24700    65.998451     1518         1236          282 1.2531098e-12 2.6766708e-14          0.1 0.0090204991    70.312583  0.029865855 
number of iterations: 2109 
   24800    66.226164     1537         1251          286 1.2697161e-12 2.6927311e-14          0.1 0.0090207881    71.283958  0.029865373 
number of iterations: 2123 
   24900     66.44656     1554         1268          286 1.2865425e-12 2.7088999e-14          0.1 0.0090210857    72.268233  0.029864878 
number of iterations: 2093 
   25000    66.662102     1566         1279          287 1.3035918e-12 2.7251779e-14          0.1 0.0090213548     73.26558   0.02986443 
number of iterations: 2124 
   25100    66.889833     1578         1289          289 1.3208671e-12 2.7415657e-14          0.1 0.0090216307    74.276172   0.02986397 
number of iterations: 2114 
   25200    67.113381     1594         1305          289 1.3383713e-12 2.7580639e-14          0.1 0.0090219298    75.300184  0.029863472 
number of iterations: 2072 
   25300    67.320858     1618         1327          291 1.3561075e-12 2.7746732e-14          0.1 0.0090222224    76.337794  0.029862985 
number of iterations: 2096 
   25400    67.554493     1635         1341          294 1.3740787e-12 2.7913943e-14          0.1 0.0090225066    77.389184  0.029862511 
number of iterations: 2104 
   25500    67.769725     1666         1370          296 1.3922881e-12 2.8082278e-14          0.1 0.0090227895    78.454536   0.02986204 
number of iterations: 2152 
   25600    68.073452     1698         1398          300 1.4107387e-12 2.8251744e-14          0.1 0.0090230948    79.534038  0.029861532 
number of iterations: 2156 
   25700    68.307452     1724         1422          302 1.4294339e-12 2.8422348e-14          0.1 0.0090234047    80.627873  0.029861016 
number of iterations: 2116 
   25800    68.600765     1744         1438          306 1.4483769e-12 2.8594097e-14          0.1 0.0090237298    81.736237  0.029860474 
number of iterations: 2117 
   25900    68.820693     1758         1451          307 1.4675708e-12 2.8766997e-14          0.1 0.0090240448    82.859319   0.02985995 
number of iterations: 2114 
   26000    69.094765     1774         1467          307 1.4870191e-12 2.8941054e-14          0.1 0.0090243479    83.997314  0.029859445 
number of iterations: 2132 
   26100    69.315341     1795         1487          308 1.5067252e-12 2.9116277e-14          0.1 0.0090246651    85.150421  0.029858917 
number of iterations: 2137 
   26200    69.546052     1820         1511          309 1.5266924e-12 2.9292672e-14          0.1 0.0090250051    86.318841   0.02985835 
number of iterations: 2174 
   26300    69.777607     1836         1527          309 1.5469242e-12 2.9470246e-14          0.1 0.0090253284    87.502775  0.029857812 
number of iterations: 2109 
   26400    70.005082     1860         1548          312 1.5674241e-12 2.9649006e-14          0.1 0.0090256331    88.702429  0.029857305 
number of iterations: 2110 
   26500    70.218454     1877         1565          312 1.5881956e-12 2.9828959e-14          0.1 0.0090259601    89.918011   0.02985676 
number of iterations: 2166 
   26600    70.476708     1894         1580          314 1.6092425e-12 3.0010113e-14          0.1 0.0090263201    91.149734  0.029856161 
number of iterations: 2132 
   26700    70.702109     1910         1595          315 1.6305682e-12 3.0192474e-14          0.1 0.0090266582    92.397811  0.029855597 
number of iterations: 2154 
   26800    70.940574     1934         1616          318 1.6521765e-12 3.037605e-14          0.1 0.0090270271    93.662458  0.029854983 
number of iterations: 2156 
   26900    71.199095     1952         1634          318 1.6740712e-12 3.0560849e-14          0.1 0.0090274036    94.943896  0.029854356 
number of iterations: 2165 
   27000      71.4578     1983         1659          324 1.6962561e-12 3.0746877e-14          0.1 0.0090277592    96.242348  0.029853764 
number of iterations: 2138 
   27100    71.739805     2009         1680          329 1.7187349e-12 3.0934142e-14          0.1 0.0090280955    97.558041  0.029853204 
number of iterations: 2159 
   27200    72.003282     2028         1696          332 1.7415116e-12 3.1122652e-14          0.1 0.0090284635    98.891202  0.029852591 
number of iterations: 2187 
   27300    72.236537     2067         1733          334 1.7645902e-12 3.1312413e-14          0.1 0.0090288514    100.24206  0.029851945 
number of iterations: 2169 
   27400    72.455941     2096         1761          335 1.7867167e-12 3.1503433e-14          0.1 0.0090291924     101.6099  0.029851377 
number of iterations: 2165 
   27500    72.694047     2119         1784          335 1.8103943e-12 3.1695721e-14          0.1  0.009029598    102.99589  0.029850702 
number of iterations: 2157 
   27600    72.941825     2143         1806          337 1.8343857e-12 3.1889283e-14          0.1 0.0090299667    104.40028  0.029850088 
number of iterations: 2208 
   27700    73.198295     2173         1835          338 1.858695e-12 3.2084127e-14          0.1 0.0090303888    105.82332  0.029849385 
number of iterations: 2184 
   27800    73.430128     2200         1859          341 1.8833265e-12 3.2280262e-14          0.1 0.0090307515    107.26526  0.029848781 
number of iterations: 2209 
   27900    73.655918     2231         1883          348 1.9082843e-12 3.2477694e-14          0.1 0.0090311983    108.72633  0.029848036 
number of iterations: 2130 
   28000    73.904653     2252         1902          350 1.9335729e-12 3.2676433e-14          0.1 0.0090315926     110.2068   0.02984738 
number of iterations: 2208 
   28100    74.169216     2284         1933          351 1.9591966e-12 3.2876485e-14          0.1 0.0090320323    111.70693  0.029846648 
number of iterations: 2217 
   28200    74.421446     2314         1961          353 1.9837294e-12 3.3077859e-14          0.1 0.0090324119    113.22587  0.029846015 
number of iterations: 2231 
   28300     74.67478     2343         1987          356 2.0100177e-12 3.3280563e-14          0.1 0.0090328949    114.76499  0.029845211 
number of iterations: 2167 
   28400    74.888734     2376         2019          357 2.0366545e-12 3.3484604e-14          0.1 0.0090333213    116.32453  0.029844501 
number of iterations: 2179 
   28500    75.133868     2402         2043          359 2.0636442e-12 3.3689991e-14          0.1 0.0090337288    117.90477  0.029843822 
number of iterations: 2159 
   28600    75.370115     2422         2062          360 2.0909916e-12 3.3896732e-14          0.1 0.0090341338      119.506  0.029843148 
number of iterations: 2193 
   28700    75.608473     2453         2091          362 2.1187014e-12 3.4104836e-14          0.1 0.0090345734    121.12848  0.029842416 
number of iterations: 2191 
   28800    75.828762     2484         2121          363 2.1467784e-12 3.4314311e-14          0.1 0.0090349925    122.77249  0.029841718 
number of iterations: 2195 
   28900    76.114674     2513         2146          367 2.1752275e-12 3.4525165e-14          0.1 0.0090354485    124.43834  0.029840958 
number of iterations: 2229 
   29000    76.342897     2555         2184          371 2.2040536e-12 3.4737406e-14          0.1 0.0090359074     126.1263  0.029840194 
number of iterations: 2188 
   29100    76.585168     2583         2209          374 2.2332617e-12 3.4951044e-14          0.1 0.0090363724    127.83667   0.02983942 
number of iterations: 2201 
   29200    76.848338     2611         2236          375 2.2628568e-12 3.5166087e-14          0.1 0.0090368505    129.56973  0.029838624 
number of iterations: 2204 
   29300    77.107211     2632         2254          378 2.2928441e-12 3.5382542e-14          0.1 0.0090373189    131.32581  0.029837844 
number of iterations: 2216 
   29400    77.335098     2665         2284          381 2.3232288e-12 3.560042e-14          0.1 0.0090378265    133.10519  0.029836998 
number of iterations: 2229 
   29500    77.590157     2700         2313          387 2.3540162e-12 3.5819728e-14          0.1 0.0090383095    134.90819  0.029836194 
number of iterations: 2227 
   29600    77.842897     2740         2350          390 2.3852116e-12 3.6040476e-14          0.1 0.0090387981    136.73513   0.02983538 
number of iterations: 2271 
   29700    78.136249     2769         2377          392 2.4143208e-12 3.6262672e-14          0.1  0.009039308     138.5844  0.029834531 
number of iterations: 2228 
   29800    78.406826     2807         2413          394 2.4463153e-12 3.6486325e-14          0.1 0.0090398376    140.45821  0.029833649 
number of iterations: 2193 
   29900    78.648197     2840         2444          396 2.4787338e-12 3.6711444e-14          0.1 0.0090403554     142.3569  0.029832787 
number of iterations: 2269 
   30000    78.905385     2870         2471          399 2.5115819e-12 3.6938038e-14          0.1 0.0090409161    144.28078  0.029831853 
number of iterations: 2230 
   30100    79.173941     2912         2511          401 2.5448653e-12 3.7166116e-14          0.1 0.0090414332    146.23021  0.029830992 
number of iterations: 2240 
   30200     79.42446     2948         2545          403 2.5785897e-12 3.7395687e-14          0.1 0.0090420025    148.20551  0.029830044 
number of iterations: 2243 
   30300    79.673445     2983         2578          405 2.612761e-12 3.7626761e-14          0.1 0.0090425624    150.20702  0.029829112 
number of iterations: 2210 
   30400    79.916656     3016         2607          409 2.6459862e-12 3.7859346e-14          0.1 0.0090430989    152.23404  0.029828218 
number of iterations: 2295 
   30500    80.182002     3053         2642          411 2.6810506e-12 3.8093452e-14          0.1 0.0090436902    154.28796  0.029827233 
number of iterations: 2237 
   30600    80.442483     3089         2676          413 2.7140307e-12 3.8329088e-14          0.1  0.009044242    156.36719  0.029826315 
number of iterations: 2254 
   30700    80.682956     3120         2703          417 2.7499969e-12 3.8566263e-14          0.1 0.0090447639    158.47401  0.029825446 
number of iterations: 2245 
   30800    80.923894     3152         2733          419 2.7864397e-12 3.8804987e-14          0.1 0.0090453102     160.6088  0.029824536 
number of iterations: 2235 
   30900    81.169052     3179         2758          421 2.8223736e-12 3.904527e-14          0.1 0.0090458791    162.77116  0.029823588 
number of iterations: 2263 
   31000    81.405782     3225         2802          423 2.8597755e-12 3.9287121e-14          0.1 0.0090464663    164.96222   0.02982261 
number of iterations: 2282 
   31100    81.740441     3267         2841          426 2.8976731e-12 3.953055e-14          0.1 0.0090470758    167.18236  0.029821595 
number of iterations: 2279 
   31200    81.978257     3315         2885          430 2.9351015e-12 3.9775567e-14          0.1 0.0090477225    169.43121  0.029820518 
number of iterations: 2268 
   31300    82.237505     3348         2917          431 2.9739973e-12 4.0022182e-14          0.1  0.009048285    171.70991  0.029819582 
number of iterations: 2277 
   31400      82.4756     3395         2961          434 3.0134084e-12 4.0270404e-14          0.1  0.009048925    174.01886  0.029818516 
number of iterations: 2266 
   31500    82.715504     3436         3001          435 3.0533419e-12 4.0520244e-14          0.1 0.0090495607    176.35845  0.029817457 
number of iterations: 2308 
   31600    82.961457     3483         3045          438 3.0938045e-12 4.0771712e-14          0.1 0.0090502879    178.72908  0.029816246 
number of iterations: 2307 
   31700    83.237513     3524         3083          441 3.1348033e-12 4.1024817e-14          0.1 0.0090509519    181.13118  0.029815141 
number of iterations: 2263 
   31800    83.479205     3565         3119          446 3.1763454e-12 4.1279571e-14          0.1 0.0090516388    183.56516  0.029813997 
number of iterations: 2296 
   31900    83.725306     3610         3159          451 3.2173166e-12 4.1535983e-14          0.1 0.0090523412    186.03058  0.029812827 
number of iterations: 2288 
   32000    83.997449     3656         3204          452 3.2599522e-12 4.1794063e-14          0.1 0.0090529706    188.52871  0.029811779 
number of iterations: 2283 
   32100    84.276821     3707         3251          456 3.3031527e-12 4.2053822e-14          0.1 0.0090536091       191.06  0.029810716 
number of iterations: 2314 
   32200    84.532889     3746         3289          457 3.3469258e-12 4.231527e-14          0.1 0.0090543229    193.62488  0.029809527 
number of iterations: 2300 
   32300    84.794581     3792         3332          460 3.3912788e-12 4.2578417e-14          0.1 0.0090550005     196.2238  0.029808398 
number of iterations: 2290 
   32400    85.050452     3841         3380          461 3.4362197e-12 4.2843274e-14          0.1 0.0090557076    198.85721  0.029807221 
number of iterations: 2286 
   32500      85.3116     3885         3420          465 3.4805177e-12 4.3109853e-14          0.1 0.0090564572    201.52462  0.029805973 
number of iterations: 2316 
   32600    85.567209     3929         3464          465 3.5259092e-12 4.3378163e-14          0.1 0.0090571657    204.22686  0.029804793 
number of iterations: 2296 
   32700    85.823992     3988         3519          469 3.5726341e-12 4.3648215e-14          0.1 0.0090579318    206.96497  0.029803517 
number of iterations: 2298 
   32800    86.085267     4032         3562          470 3.6199782e-12 4.392002e-14          0.1  0.009058672    209.73943  0.029802284 
number of iterations: 2355 
   32900    86.353795     4087         3617          470 3.6679497e-12 4.4193588e-14          0.1 0.0090594791    212.55069   0.02980094 
number of iterations: 2326 
   33000    86.608431     4148         3676          472 3.7165569e-12 4.4468932e-14          0.1 0.0090602474    215.39926  0.029799661 
number of iterations: 2328 
   33100    86.870613     4197         3723          474 3.7658082e-12 4.4746062e-14          0.1 0.0090610586    218.28564   0.02979831 
number of iterations: 2319 
   33200    87.131144     4253         3779          474 3.8138229e-12 4.502499e-14          0.1 0.0090618068    221.20887  0.029797064 
number of iterations: 2306 
   33300    87.388084     4295         3816          479 3.8633833e-12 4.5305726e-14          0.1 0.0090626221    224.17013  0.029795706 
number of iterations: 2352 
   33400    87.655468     4349         3862          487 3.9145803e-12 4.5588282e-14          0.1 0.0090634549    227.17068   0.02979432 
number of iterations: 2328 
   33500    87.905203     4395         3907          488 3.9650266e-12 4.5872669e-14          0.1 0.0090643237    230.20998  0.029792873 
number of iterations: 2350 
   33600    88.228486     4441         3950          491 4.016372e-12 4.6158898e-14          0.1 0.0090651693    233.28867  0.029791465 
number of iterations: 2348 
   33700    88.517712     4498         4007          491 4.0682831e-12 4.6446982e-14          0.1 0.0090659816    236.40721  0.029790112 
number of iterations: 2368 
   33800    88.785392     4554         4061          493 4.1221953e-12 4.6736931e-14          0.1 0.0090668786    239.56712  0.029788618 
number of iterations: 2315 
   33900    89.044362     4606         4110          496 4.1757217e-12 4.7028757e-14          0.1 0.0090677573    242.76814  0.029787155 
number of iterations: 2342 
   34000    89.333796     4665         4165          500 4.2301637e-12 4.7322471e-14          0.1 0.0090685568    246.01094  0.029785824 
number of iterations: 2349 
   34100    89.596195     4721         4217          504 4.2846425e-12 4.7618087e-14          0.1 0.0090693984    249.29555  0.029784422 
number of iterations: 2324 
   34200    89.860336     4777         4270          507 4.3379671e-12 4.7915614e-14          0.1 0.0090701456    252.62111  0.029783178 
number of iterations: 2371 
   34300    90.154455     4831         4323          508 4.3954531e-12 4.8215067e-14          0.1 0.0090711364    255.99077  0.029781528 
number of iterations: 2366 
   34400    90.435484     4902         4391          511 4.4537008e-12 4.8516457e-14          0.1 0.0090721434    259.40515  0.029779851 
number of iterations: 2357 
   34500    90.697476     4963         4447          516 4.511262e-12 4.8819795e-14          0.1  0.009073061    262.86372  0.029778323 
number of iterations: 2351 
   34600     90.97289     5022         4502          520 4.5693883e-12 4.9125094e-14          0.1 0.0090739699     266.3669  0.029776809 
number of iterations: 2373 
   34700    91.244063     5079         4558          521 4.6288803e-12 4.9432366e-14          0.1 0.0090749182    269.91576   0.02977523 
number of iterations: 2374 
   34800     91.52584     5142         4617          525 4.6902212e-12 4.9741623e-14          0.1 0.0090759362    273.51175  0.029773535 
number of iterations: 2355 
   34900    91.883878     5211         4682          529 4.7513069e-12 5.0052879e-14          0.1 0.0090769676    277.15465  0.029771817 
number of iterations: 2338 
   35000    92.162815     5273         4741          532 4.8114813e-12 5.0366145e-14          0.1 0.0090778741    280.84373  0.029770308 
Loop time of 92.1629 on 32 procs for 35000 steps with 5273 atoms

Performance: 328114738.001 tau/day, 379.762 timesteps/s
92.2% CPU use with 32 MPI tasks x no OpenMP threads

MPI task timing breakdown:
Section |  min time  |  avg time  |  max time  |%varavg| %total
---------------------------------------------------------------
Pair    | 0.007549   | 0.079133   | 0.23521    |  17.0 |  0.09
Neigh   | 0.0038285  | 0.023856   | 0.066947   |   8.5 |  0.03
Comm    | 0.098526   | 0.17       | 0.27258    |  10.7 |  0.18
Output  | 22.034     | 22.034     | 22.042     |   0.0 | 23.91
Modify  | 69.307     | 69.359     | 69.439     |   0.3 | 75.26
Other   |            | 0.4962     |            |       |  0.54

Nlocal:    164.781 ave 398 max 9 min
Histogram: 3 2 5 6 8 3 2 2 0 1
Nghost:    90.9375 ave 186 max 14 min
Histogram: 2 4 4 3 5 7 1 3 2 1
Neighs:    599.906 ave 1606 max 20 min
Histogram: 3 3 7 8 3 3 2 2 0 1

Total # of neighbors = 19197
Ave neighs/atom = 3.64062
Neighbor list builds = 709
Dangerous builds = 0
Total wall time: 0:01:32
