LAMMPS (20 Nov 2019)
Reading data file ...
  orthogonal box = (0 0 0) to (0.0001 0.0001 5e-05)
  2 by 2 by 2 MPI processor grid
  reading atoms ...
  50 atoms
  4 nutrients
Lattice spacing in x,y,z = 100 100 100
50 atoms in group CYANO
0 atoms in group ECW
Model is defined as a closed system. 
Neighbor list info ...
  update every 1 steps, delay 0 steps, check yes
  max neighbors/atom: 5000, page size: 100000
  master list distance cutoff = 2.42e-06
  ghost atom cutoff = 2.42e-06
  binsize = 1.21e-06, bins = 83 83 42
  1 neighbor lists, perpetual/occasional/extra = 1 0 0
  (1) pair gran/hooke/history, perpetual
      attributes: half, newton off, size, history
      pair build: half/size/bin/newtoff
      stencil: half/bin/3d/newtoff
      bin: standard
Setting up Verlet run ...
  Unit style    : lj
  Current step  : 0
  Time step     : 10
Per MPI rank memory allocation (min/avg/max) = 6.973 | 10.28 | 12.35 Mbytes
Step CPU Atoms c_myNtypes[1] c_myNtypes[2] c_myMass[1] c_myMass[2] c_myCon[1] c_myCon[2] c_myCon[3] c_myCon[4] 
       0            0       50           50            0 4.3212103e-14            0          0.1        0.009     3.42e-20       0.0299 
number of iterations: 325556 
     100    5.4568416       50           50            0 4.3984229e-14            0          0.1 0.0090027611 0.0051372463  0.029895403 
number of iterations: 23463 
     200    6.0559766       50           50            0 4.4770152e-14            0          0.1 0.0090028104  0.010204303  0.029895321 
number of iterations: 23557 
     300    6.6561991       50           50            0 4.5570118e-14            0          0.1 0.0090028607   0.01536108  0.029895237 
number of iterations: 23651 
     400    7.3107373       50           50            0 4.6384378e-14            0          0.1 0.0090029118  0.020609618  0.029895152 
number of iterations: 23745 
     500    7.8803905       51           51            0 4.7213187e-14            0          0.1 0.0090029638  0.025951703  0.029895066 
number of iterations: 23839 
     600    8.4723853       51           51            0 4.8056806e-14            0          0.1 0.0090030168  0.031389078  0.029894977 
number of iterations: 23933 
     700    9.0524522       51           51            0 4.8915499e-14            0          0.1 0.0090030707   0.03692349  0.029894888 
number of iterations: 24027 
     800    9.6496599       51           51            0 4.9789535e-14            0          0.1 0.0090031255  0.042556697  0.029894796 
number of iterations: 24121 
     900    10.248036       52           52            0 5.0679188e-14            0          0.1 0.0090031814  0.048290492  0.029894703 
number of iterations: 24215 
    1000    10.856866       52           52            0 5.1584739e-14            0          0.1 0.0090032383  0.054126696  0.029894609 
number of iterations: 24309 
    1100    11.465339       53           53            0 5.2506469e-14            0          0.1 0.0090032961  0.060067141  0.029894512 
number of iterations: 24403 
    1200    12.049483       55           55            0 5.344467e-14            0          0.1  0.009003355  0.066113697  0.029894414 
number of iterations: 24497 
    1300    12.658844       57           57            0 5.4399634e-14            0          0.1  0.009003415  0.072268263  0.029894314 
number of iterations: 24591 
    1400    13.323979       59           59            0 5.5371663e-14            0          0.1  0.009003476  0.078532771  0.029894213 
number of iterations: 24685 
    1500    13.923488       60           60            0 5.6361059e-14            0          0.1 0.0090035381  0.084909189  0.029894109 
number of iterations: 24780 
    1600    14.538899       60           60            0 5.7368134e-14            0          0.1 0.0090036013  0.091399519  0.029894004 
number of iterations: 24874 
    1700    15.165713       60           60            0 5.8393204e-14            0          0.1 0.0090036657  0.098005797  0.029893897 
number of iterations: 24968 
    1800     15.80084       60           60            0 5.9436591e-14            0          0.1 0.0090037312    0.1047301  0.029893788 
number of iterations: 25062 
    1900    16.412216       61           61            0 6.049862e-14            0          0.1 0.0090037979   0.11157453  0.029893677 
number of iterations: 25157 
    2000    17.037123       63           63            0 6.1579627e-14            0          0.1 0.0090038657   0.11854124  0.029893564 
number of iterations: 25251 
    2100    17.657902       64           64            0 6.2679949e-14            0          0.1 0.0090039348   0.12563242  0.029893449 
number of iterations: 25345 
    2200    18.309521       64           64            0 6.3799932e-14            0          0.1 0.0090040051   0.13285029  0.029893332 
number of iterations: 26741 
    2300    18.946922       67           67            0 6.4939927e-14            0          0.1  0.009004094   0.14019712  0.029893184 
number of iterations: 25558 
    2400    19.562482       68           68            0 6.6100292e-14            0          0.1 0.0090041672   0.14767522  0.029893062 
number of iterations: 25653 
    2500    20.199356       69           69            0 6.728139e-14            0          0.1 0.0090042416   0.15528692  0.029892938 
number of iterations: 23951 
    2600    20.828508       71           71            0 6.8483593e-14            0          0.1 0.0090042953    0.1630346  0.029892849 
number of iterations: 25814 
    2700    21.535076       71           71            0 6.9707277e-14            0          0.1  0.009004372    0.1709207  0.029892721 
number of iterations: 25909 
    2800    22.148055       71           71            0 7.0952826e-14            0          0.1 0.0090044501   0.17894771  0.029892591 
number of iterations: 26003 
    2900    22.767829       71           71            0 7.2220631e-14            0          0.1 0.0090045297   0.18711813  0.029892458 
number of iterations: 26098 
    3000    23.410286       73           73            0 7.3511089e-14            0          0.1 0.0090046106   0.19543453  0.029892323 
number of iterations: 26192 
    3100     24.07931       75           75            0 7.4824605e-14            0          0.1  0.009004693   0.20389952  0.029892186 
number of iterations: 26287 
    3200    24.905888       75           75            0 7.6161592e-14            0          0.1 0.0090047769   0.21251575  0.029892047 
number of iterations: 26381 
    3300    25.630471       77           77            0 7.7522468e-14            0          0.1 0.0090048622   0.22128593  0.029891905 
number of iterations: 26476 
    3400    26.851081       77           77            0 7.8907661e-14            0          0.1 0.0090049491   0.23021281   0.02989176 
number of iterations: 26570 
    3500    27.525141       78           78            0 8.0317605e-14            0          0.1 0.0090050375   0.23929919  0.029891613 
number of iterations: 26665 
    3600    28.206639       79           79            0 8.1752742e-14            0          0.1 0.0090051276   0.24854791  0.029891463 
number of iterations: 26759 
    3700     28.86361       79           79            0 8.3213522e-14            0          0.1 0.0090052192   0.25796189   0.02989131 
number of iterations: 26854 
    3800     29.51335       82           82            0 8.4700404e-14            0          0.1 0.0090053124   0.26754407  0.029891155 
number of iterations: 26949 
    3900    30.167051       83           83            0 8.6213854e-14            0          0.1 0.0090054074   0.27729745  0.029890997 
number of iterations: 27043 
    4000    30.853064       83           83            0 8.7754347e-14            0          0.1  0.009005504   0.28722511  0.029890836 
number of iterations: 27138 
    4100    31.486162       83           83            0 8.9322365e-14            0          0.1 0.0090056023   0.29733014  0.029890672 
number of iterations: 26163 
    4200    32.188748       85           85            0 9.0918402e-14            0          0.1 0.0090056861   0.30761572  0.029890533 
number of iterations: 27310 
    4300     32.82645       87           87            0 9.2542956e-14            0          0.1 0.0090057877   0.31808508  0.029890364 
number of iterations: 27405 
    4400    33.541193       87           87            0 9.4196539e-14            0          0.1 0.0090058911    0.3287415  0.029890191 
number of iterations: 27499 
    4500    34.229295       90           90            0 9.5879668e-14            0          0.1 0.0090059964   0.33958832  0.029890016 
number of iterations: 28515 
    4600    34.916023       92           92            0 9.7592872e-14            0          0.1 0.0090061211   0.35062894  0.029889808 
number of iterations: 27706 
    4700    35.619281       93           93            0 9.9336687e-14            0          0.1 0.0090062305   0.36186682  0.029889626 
number of iterations: 27801 
    4800    36.279978       95           95            0 1.0111166e-13            0          0.1 0.0090063418    0.3733055  0.029889441 
number of iterations: 27896 
    4900    36.974581       95           95            0 1.0291835e-13            0          0.1 0.0090064552   0.38494856  0.029889252 
number of iterations: 27991 
    5000    37.704484       97           97            0 1.0475732e-13            0          0.1 0.0090065705   0.39679966   0.02988906 
number of iterations: 27788 
    5100    38.428767      101          101            0 1.0662916e-13            0          0.1 0.0090066829   0.40886252  0.029888873 
number of iterations: 28175 
    5200    39.105899      104          104            0 1.0853443e-13            0          0.1 0.0090068023   0.42114092  0.029888674 
number of iterations: 28270 
    5300    39.777133      107          107            0 1.1047376e-13            0          0.1 0.0090069239   0.43363871  0.029888472 
number of iterations: 27471 
    5400     40.43235      110          110            0 1.1244773e-13            0          0.1 0.0090070306   0.44635979  0.029888294 
number of iterations: 28445 
    5500    41.135846      114          114            0 1.1445698e-13            0          0.1 0.0090071562   0.45930818  0.029888085 
number of iterations: 29125 
    5600    41.804243      118          118            0 1.1650212e-13            0          0.1 0.0090072961   0.47248791  0.029887852 
number of iterations: 28651 
    5700    42.486435      121          121            0 1.1858381e-13            0          0.1 0.0090074265   0.48590314  0.029887635 
number of iterations: 28740 
    5800    43.183102      121          121            0 1.207027e-13            0          0.1 0.0090075592   0.49955807  0.029887414 
number of iterations: 28835 
    5900    43.881318      123          123            0 1.2285945e-13            0          0.1 0.0090076943   0.51345698  0.029887189 
number of iterations: 28930 
    6000    44.555721      125          125            0 1.2505473e-13            0          0.1 0.0090078317   0.52760424   0.02988696 
number of iterations: 29342 
    6100    45.237116      129          129            0 1.2728924e-13            0          0.1 0.0090079782   0.54200426  0.029886716 
number of iterations: 29125 
    6200    45.956741      131          131            0 1.2956368e-13            0          0.1 0.0090081207   0.55666157  0.029886479 
number of iterations: 29220 
    6300    46.638643      133          133            0 1.3187876e-13            0          0.1 0.0090082658   0.57158077  0.029886237 
number of iterations: 29315 
    6400    47.342562      134          134            0 1.342352e-13            0          0.1 0.0090084135   0.58676656  0.029885991 
number of iterations: 30163 
    6500    48.055272      136          136            0 1.3663375e-13            0          0.1  0.009008584   0.60222368  0.029885707 
number of iterations: 29519 
    6600    48.755089      139          139            0 1.3907516e-13            0          0.1 0.0090087374   0.61795699  0.029885452 
number of iterations: 29614 
    6700    49.454713      141          141            0 1.4156019e-13            0          0.1 0.0090088935   0.63397143  0.029885192 
number of iterations: 29709 
    6800     50.13971      144          144            0 1.4408962e-13            0          0.1 0.0090090524     0.650272  0.029884927 
number of iterations: 29804 
    6900     50.87378      147          147            0 1.4666425e-13            0          0.1 0.0090092142   0.66686383  0.029884658 
number of iterations: 29900 
    7000    51.581332      152          152            0 1.4928488e-13            0          0.1 0.0090093788   0.68375211  0.029884384 
number of iterations: 30002 
    7100    52.291853      152          152            0 1.5195234e-13            0          0.1 0.0090095464   0.70094214  0.029884105 
number of iterations: 30089 
    7200    53.022486      155          155            0 1.5466747e-13            0          0.1  0.009009717   0.71843933  0.029883821 
number of iterations: 30184 
    7300    53.742138      155          155            0 1.574311e-13            0          0.1 0.0090098906   0.73624915  0.029883532 
number of iterations: 30279 
    7400    54.458699      156          156            0 1.6024412e-13            0          0.1 0.0090100674   0.75437719  0.029883237 
number of iterations: 30380 
    7500    55.231741      157          157            0 1.631074e-13            0          0.1 0.0090102472   0.77282913  0.029882938 
number of iterations: 30469 
    7600    55.944605      158          158            0 1.6602184e-13            0          0.1 0.0090104303   0.79161076  0.029882633 
number of iterations: 30934 
    7700     56.72397      164          164            0 1.6898836e-13            0          0.1 0.0090106273   0.81072794  0.029882305 
number of iterations: 30666 
    7800    57.488354      165          165            0 1.7200789e-13            0          0.1 0.0090108172    0.8301867  0.029881989 
number of iterations: 30761 
    7900     58.20888      166          166            0 1.7508137e-13            0          0.1 0.0090110105   0.84999315  0.029881667 
number of iterations: 30860 
    8000    59.004661      170          170            0 1.7820976e-13            0          0.1 0.0090112073    0.8701535  0.029881339 
number of iterations: 30951 
    8100     59.70482      170          170            0 1.8139406e-13            0          0.1 0.0090114075   0.89067407  0.029881006 
number of iterations: 31510 
    8200    60.465407      175          175            0 1.8463525e-13            0          0.1 0.0090116275   0.91156131   0.02988064 
number of iterations: 31154 
    8300    61.260579      176          176            0 1.8793436e-13            0          0.1 0.0090118353   0.93282177  0.029880294 
number of iterations: 31245 
    8400    62.042011      177          177            0 1.9129241e-13            0          0.1 0.0090120468    0.9544621  0.029879942 
number of iterations: 31886 
    8500    62.810872      184          184            0 1.9471047e-13            0          0.1 0.0090122825   0.97648911  0.029879549 
number of iterations: 31445 
    8600    63.555314      189          189            0 1.981896e-13            0          0.1  0.009012502    0.9989097  0.029879184 
number of iterations: 31542 
    8700    64.292086      196          196            0 2.017309e-13            0          0.1 0.0090127253    1.0217309  0.029878812 
number of iterations: 31635 
    8800    65.058239      199          199            0 2.0533548e-13            0          0.1 0.0090129527    1.0449599  0.029878433 
number of iterations: 31731 
    8900    65.810739      204          204            0 2.0900446e-13            0          0.1 0.0090131842     1.068604  0.029878048 
number of iterations: 31828 
    9000    66.578382      211          211            0  2.12739e-13            0          0.1 0.0090134198    1.0926704  0.029877655 
number of iterations: 31921 
    9100    67.330286      214          214            0 2.1654027e-13            0          0.1 0.0090136595    1.1171669  0.029877256 
number of iterations: 32015 
    9200    68.053207      217          217            0 2.2040946e-13            0          0.1 0.0090139036    1.1421011   0.02987685 
number of iterations: 31794 
    9300    68.841948      218          218            0 2.2434778e-13            0          0.1 0.0090141404    1.1674809  0.029876456 
number of iterations: 32503 
    9400    69.603552      226          226            0 2.2835648e-13            0          0.1 0.0090144049    1.1933141  0.029876015 
number of iterations: 32739 
    9500    70.363264      227          227            0 2.324368e-13            0          0.1 0.0090146815    1.2196089  0.029875554 
number of iterations: 32404 
    9600    71.169792      235          235            0 2.3659004e-13            0          0.1 0.0090149438    1.2463735  0.029875118 
number of iterations: 32500 
    9700    71.974435      242          242            0 2.4081748e-13            0          0.1 0.0090152109    1.2736164  0.029874673 
number of iterations: 32054 
    9800    72.702977      247          247            0 2.4512046e-13            0          0.1 0.0090154614    1.3013461  0.029874256 
number of iterations: 32849 
    9900     73.59749      254          254            0 2.4950032e-13            0          0.1 0.0090157445    1.3295712  0.029873785 
number of iterations: 32779 
   10000    74.427901      256          256            0 2.5395845e-13            0          0.1 0.0090160258    1.3583006  0.029873316 
Loop time of 74.4279 on 8 procs for 10000 steps with 256 atoms

Performance: 116085426.967 tau/day, 134.358 timesteps/s
88.1% CPU use with 8 MPI tasks x no OpenMP threads

MPI task timing breakdown:
Section |  min time  |  avg time  |  max time  |%varavg| %total
---------------------------------------------------------------
Pair    | 0.0092116  | 0.011085   | 0.013354   |   1.2 |  0.01
Neigh   | 0.0076434  | 0.0090876  | 0.010549   |   1.2 |  0.01
Comm    | 0.040032   | 0.046533   | 0.052988   |   1.7 |  0.06
Output  | 12.931     | 12.932     | 12.934     |   0.0 | 17.37
Modify  | 61.361     | 61.363     | 61.364     |   0.0 | 82.45
Other   |            | 0.0671     |            |       |  0.09

Nlocal:    32 ave 55 max 10 min
Histogram: 1 0 2 0 2 0 0 2 0 1
Nghost:    4.5 ave 9 max 1 min
Histogram: 1 1 1 2 0 1 0 0 1 1
Neighs:    33.25 ave 55 max 11 min
Histogram: 1 0 2 0 2 0 0 0 2 1

Total # of neighbors = 266
Ave neighs/atom = 1.03906
Neighbor list builds = 124
Dangerous builds = 0
Total wall time: 0:01:14
