ITEM: TIMESTEP
0
ITEM: NUMBER OF ATOMS
50
ITEM: BOX BOUNDS ff ff ff
0.0000000000000000e+00 1.0000000000000000e-04
0.0000000000000000e+00 1.0000000000000000e-04
0.0000000000000000e+00 5.0000000000000002e-05
ITEM: ATOMS id type diameter x y z 
19 1 1.75e-06 3.46e-05 2.28e-05 6.49e-06 
34 1 1.73e-06 2.7e-05 3.73e-05 1.78e-05 
33 1 1.85e-06 3.84e-05 2.98e-05 2.32e-05 
35 1 1.77e-06 2.2e-05 2.87e-05 2.46e-05 
39 1 1.38e-06 3.05e-05 1.9e-06 2.52e-05 
44 1 1.61e-06 1.19e-05 5.71e-06 2.6e-05 
14 1 1.82e-06 3.29e-06 7.97e-06 3.3e-05 
25 1 1.7e-06 3.9e-05 4.46e-05 3.98e-05 
11 1 1.58e-06 1.29e-05 4.23e-05 4.53e-05 
12 1 1.42e-06 1.31e-05 4.4e-05 4.71e-05 
24 1 1.49e-06 2.14e-05 8.38e-05 3.79e-06 
50 1 1.84e-06 3.96e-05 8.98e-05 7.17e-06 
27 1 1.38e-06 8.4e-06 8.83e-05 1.03e-05 
26 1 1.52e-06 1.51e-05 6.64e-05 1.31e-05 
37 1 1.81e-06 2.15e-05 7.87e-05 1.74e-05 
20 1 1.58e-06 4.08e-05 6.79e-05 1.81e-05 
41 1 1.58e-06 1.85e-05 8.99e-05 2.15e-05 
40 1 1.83e-06 2.16e-06 5.46e-05 2.79e-05 
15 1 1.84e-06 3.31e-06 6.39e-05 3.13e-05 
29 1 1.52e-06 4.49e-05 6.88e-05 3.1e-05 
46 1 1.43e-06 3.74e-05 6.85e-05 4.33e-05 
16 1 1.76e-06 4.58e-05 6.05e-05 4.73e-05 
48 1 1.6e-06 1.59e-05 6.8e-05 4.73e-05 
43 1 1.66e-06 2.34e-05 9.23e-05 4.82e-05 
13 1 1.44e-06 9.57e-05 4.9e-05 1.76e-06 
49 1 1.54e-06 5.36e-05 1.43e-05 7.61e-06 
32 1 1.46e-06 8.13e-05 7.22e-06 9.63e-06 
5 1 1.43e-06 5.81e-05 4.35e-05 1.15e-05 
2 1 1.5e-06 8.56e-05 4.63e-05 1.51e-05 
45 1 1.42e-06 7.36e-05 3.54e-06 2.05e-05 
30 1 1.54e-06 7.22e-05 3.89e-05 2.96e-05 
18 1 1.73e-06 8.73e-05 1.61e-05 3.01e-05 
28 1 1.63e-06 6.2e-05 2.72e-05 3.1e-05 
22 1 1.47e-06 6.22e-05 2.58e-05 3.7e-05 
3 1 1.82e-06 5.08e-05 4.51e-05 4.33e-05 
47 1 1.71e-06 5.5e-05 8.5e-05 3.83e-06 
8 1 1.87e-06 7.45e-05 7.3e-05 7.61e-06 
42 1 1.72e-06 8.4e-05 7.44e-05 1.58e-05 
10 1 1.63e-06 8.99e-05 5.96e-05 1.77e-05 
1 1 1.39e-06 7.29e-05 5.16e-05 2.8e-05 
21 1 1.76e-06 6.63e-05 8.48e-05 2.79e-05 
31 1 1.53e-06 8.73e-05 8.86e-05 3.34e-05 
9 1 1.65e-06 8.44e-05 7.27e-05 3.47e-05 
7 1 1.83e-06 6.31e-05 7.34e-05 3.5e-05 
36 1 1.66e-06 8.26e-05 5.4e-05 3.66e-05 
6 1 1.73e-06 8.84e-05 9.31e-05 3.73e-05 
38 1 1.42e-06 9.06e-05 7.97e-05 3.9e-05 
4 1 1.92e-06 5.84e-05 8.73e-05 4.61e-05 
17 1 1.65e-06 9.3e-05 9.37e-05 4.61e-05 
23 1 1.7e-06 5.49e-05 5.39e-05 4.78e-05 
ITEM: TIMESTEP
100
ITEM: NUMBER OF ATOMS
50
ITEM: BOX BOUNDS ff ff ff
0.0000000000000000e+00 1.0000000000000000e-04
0.0000000000000000e+00 1.0000000000000000e-04
0.0000000000000000e+00 5.0000000000000002e-05
ITEM: ATOMS id type diameter x y z 
19 1 1.76036e-06 3.46e-05 2.28e-05 6.49e-06 
34 1 1.74024e-06 2.7e-05 3.73e-05 1.78e-05 
33 1 1.86095e-06 3.84e-05 2.98e-05 2.32e-05 
35 1 1.78048e-06 2.2e-05 2.87e-05 2.46e-05 
39 1 1.38817e-06 3.05e-05 1.9e-06 2.52e-05 
44 1 1.61953e-06 1.19e-05 5.71e-06 2.6e-05 
14 1 1.83078e-06 3.29e-06 7.97e-06 3.3e-05 
25 1 1.71007e-06 3.9e-05 4.46e-05 3.98e-05 
11 1 1.58936e-06 1.29e-05 4.23e-05 4.53e-05 
12 1 1.42841e-06 1.31e-05 4.4e-05 4.71e-05 
24 1 1.49882e-06 2.14e-05 8.38e-05 3.79e-06 
50 1 1.85089e-06 3.96e-05 8.98e-05 7.17e-06 
27 1 1.38817e-06 8.4e-06 8.83e-05 1.03e-05 
26 1 1.529e-06 1.51e-05 6.64e-05 1.31e-05 
37 1 1.82072e-06 2.15e-05 7.87e-05 1.74e-05 
20 1 1.58936e-06 4.08e-05 6.79e-05 1.81e-05 
41 1 1.58936e-06 1.85e-05 8.99e-05 2.15e-05 
40 1 1.84084e-06 2.16e-06 5.46e-05 2.79e-05 
15 1 1.85089e-06 3.31e-06 6.39e-05 3.13e-05 
29 1 1.529e-06 4.49e-05 6.88e-05 3.1e-05 
46 1 1.43847e-06 3.74e-05 6.85e-05 4.33e-05 
16 1 1.77042e-06 4.58e-05 6.05e-05 4.73e-05 
48 1 1.60947e-06 1.59e-05 6.8e-05 4.73e-05 
43 1 1.66983e-06 2.34e-05 9.23e-05 4.82e-05 
13 1 1.44853e-06 9.57e-05 4.9e-05 1.76e-06 
49 1 1.54912e-06 5.36e-05 1.43e-05 7.61e-06 
32 1 1.46864e-06 8.13e-05 7.22e-06 9.63e-06 
5 1 1.43847e-06 5.81e-05 4.35e-05 1.15e-05 
2 1 1.50888e-06 8.56e-05 4.63e-05 1.51e-05 
45 1 1.42841e-06 7.36e-05 3.54e-06 2.05e-05 
30 1 1.54912e-06 7.22e-05 3.89e-05 2.96e-05 
18 1 1.74024e-06 8.73e-05 1.61e-05 3.01e-05 
28 1 1.63965e-06 6.2e-05 2.72e-05 3.1e-05 
22 1 1.4787e-06 6.22e-05 2.58e-05 3.7e-05 
3 1 1.83078e-06 5.08e-05 4.51e-05 4.33e-05 
47 1 1.72012e-06 5.5e-05 8.5e-05 3.83e-06 
8 1 1.88107e-06 7.45e-05 7.3e-05 7.61e-06 
42 1 1.73018e-06 8.4e-05 7.44e-05 1.58e-05 
10 1 1.63965e-06 8.99e-05 5.96e-05 1.77e-05 
1 1 1.39823e-06 7.29e-05 5.16e-05 2.8e-05 
21 1 1.77042e-06 6.63e-05 8.48e-05 2.79e-05 
31 1 1.53906e-06 8.73e-05 8.86e-05 3.34e-05 
9 1 1.65977e-06 8.44e-05 7.27e-05 3.47e-05 
7 1 1.84084e-06 6.31e-05 7.34e-05 3.5e-05 
36 1 1.66983e-06 8.26e-05 5.4e-05 3.66e-05 
6 1 1.74024e-06 8.84e-05 9.31e-05 3.73e-05 
38 1 1.42841e-06 9.06e-05 7.97e-05 3.9e-05 
4 1 1.93137e-06 5.84e-05 8.73e-05 4.61e-05 
17 1 1.65977e-06 9.3e-05 9.37e-05 4.61e-05 
23 1 1.71007e-06 5.49e-05 5.39e-05 4.78e-05 
ITEM: TIMESTEP
200
ITEM: NUMBER OF ATOMS
50
ITEM: BOX BOUNDS ff ff ff
0.0000000000000000e+00 1.0000000000000000e-04
0.0000000000000000e+00 1.0000000000000000e-04
0.0000000000000000e+00 5.0000000000000002e-05
ITEM: ATOMS id type diameter x y z 
19 1 1.77078e-06 3.46e-05 2.28e-05 6.49e-06 
34 1 1.75055e-06 2.7e-05 3.73e-05 1.78e-05 
33 1 1.87197e-06 3.84e-05 2.98e-05 2.32e-05 
35 1 1.79102e-06 2.2e-05 2.87e-05 2.46e-05 
39 1 1.39639e-06 3.05e-05 1.9e-06 2.52e-05 
44 1 1.62912e-06 1.19e-05 5.71e-06 2.6e-05 
14 1 1.84162e-06 3.29e-06 7.97e-06 3.3e-05 
25 1 1.72019e-06 3.9e-05 4.46e-05 3.98e-05 
11 1 1.59877e-06 1.29e-05 4.23e-05 4.53e-05 
12 1 1.43687e-06 1.31e-05 4.4e-05 4.71e-05 
24 1 1.5077e-06 2.14e-05 8.38e-05 3.79e-06 
50 1 1.86185e-06 3.96e-05 8.98e-05 7.17e-06 
27 1 1.39639e-06 8.4e-06 8.83e-05 1.03e-05 
26 1 1.53805e-06 1.51e-05 6.64e-05 1.31e-05 
37 1 1.8315e-06 2.15e-05 7.87e-05 1.74e-05 
20 1 1.59877e-06 4.08e-05 6.79e-05 1.81e-05 
41 1 1.59877e-06 1.85e-05 8.99e-05 2.15e-05 
40 1 1.85173e-06 2.16e-06 5.46e-05 2.79e-05 
15 1 1.86185e-06 3.31e-06 6.39e-05 3.13e-05 
29 1 1.53805e-06 4.49e-05 6.88e-05 3.1e-05 
46 1 1.44698e-06 3.74e-05 6.85e-05 4.33e-05 
16 1 1.7809e-06 4.58e-05 6.05e-05 4.73e-05 
48 1 1.619e-06 1.59e-05 6.8e-05 4.73e-05 
43 1 1.67972e-06 2.34e-05 9.23e-05 4.82e-05 
13 1 1.4571e-06 9.57e-05 4.9e-05 1.76e-06 
49 1 1.55829e-06 5.36e-05 1.43e-05 7.61e-06 
32 1 1.47734e-06 8.13e-05 7.22e-06 9.63e-06 
5 1 1.44698e-06 5.81e-05 4.35e-05 1.15e-05 
2 1 1.51782e-06 8.56e-05 4.63e-05 1.51e-05 
45 1 1.43687e-06 7.36e-05 3.54e-06 2.05e-05 
30 1 1.55829e-06 7.22e-05 3.89e-05 2.96e-05 
18 1 1.75055e-06 8.73e-05 1.61e-05 3.01e-05 
28 1 1.64936e-06 6.2e-05 2.72e-05 3.1e-05 
22 1 1.48746e-06 6.22e-05 2.58e-05 3.7e-05 
3 1 1.84162e-06 5.08e-05 4.51e-05 4.33e-05 
47 1 1.73031e-06 5.5e-05 8.5e-05 3.83e-06 
8 1 1.89221e-06 7.45e-05 7.3e-05 7.61e-06 
42 1 1.74043e-06 8.4e-05 7.44e-05 1.58e-05 
10 1 1.64936e-06 8.99e-05 5.96e-05 1.77e-05 
1 1 1.40651e-06 7.29e-05 5.16e-05 2.8e-05 
21 1 1.7809e-06 6.63e-05 8.48e-05 2.79e-05 
31 1 1.54817e-06 8.73e-05 8.86e-05 3.34e-05 
9 1 1.6696e-06 8.44e-05 7.27e-05 3.47e-05 
7 1 1.85173e-06 6.31e-05 7.34e-05 3.5e-05 
36 1 1.67972e-06 8.26e-05 5.4e-05 3.66e-05 
6 1 1.75055e-06 8.84e-05 9.31e-05 3.73e-05 
38 1 1.43687e-06 9.06e-05 7.97e-05 3.9e-05 
4 1 1.9428e-06 5.84e-05 8.73e-05 4.61e-05 
17 1 1.6696e-06 9.3e-05 9.37e-05 4.61e-05 
23 1 1.72019e-06 5.49e-05 5.39e-05 4.78e-05 
ITEM: TIMESTEP
300
ITEM: NUMBER OF ATOMS
50
ITEM: BOX BOUNDS ff ff ff
0.0000000000000000e+00 1.0000000000000000e-04
0.0000000000000000e+00 1.0000000000000000e-04
0.0000000000000000e+00 5.0000000000000002e-05
ITEM: ATOMS id type diameter x y z 
19 1 1.78127e-06 3.46e-05 2.28e-05 6.49e-06 
34 1 1.76091e-06 2.7e-05 3.73e-05 1.78e-05 
33 1 1.88306e-06 3.84e-05 2.98e-05 2.32e-05 
35 1 1.80163e-06 2.2e-05 2.87e-05 2.46e-05 
39 1 1.40466e-06 3.05e-05 1.9e-06 2.52e-05 
44 1 1.63877e-06 1.19e-05 5.71e-06 2.6e-05 
14 1 1.85252e-06 3.29e-06 7.97e-06 3.3e-05 
25 1 1.73038e-06 3.9e-05 4.46e-05 3.98e-05 
11 1 1.60823e-06 1.29e-05 4.23e-05 4.53e-05 
12 1 1.44537e-06 1.31e-05 4.4e-05 4.71e-05 
24 1 1.51662e-06 2.14e-05 8.38e-05 3.79e-06 
50 1 1.87288e-06 3.96e-05 8.98e-05 7.17e-06 
27 1 1.40466e-06 8.4e-06 8.83e-05 1.03e-05 
26 1 1.54716e-06 1.51e-05 6.64e-05 1.31e-05 
37 1 1.84234e-06 2.15e-05 7.87e-05 1.74e-05 
20 1 1.60823e-06 4.08e-05 6.79e-05 1.81e-05 
41 1 1.60823e-06 1.85e-05 8.99e-05 2.15e-05 
40 1 1.8627e-06 2.16e-06 5.46e-05 2.79e-05 
15 1 1.87288e-06 3.31e-06 6.39e-05 3.13e-05 
29 1 1.54716e-06 4.49e-05 6.88e-05 3.1e-05 
46 1 1.45555e-06 3.74e-05 6.85e-05 4.33e-05 
16 1 1.79145e-06 4.58e-05 6.05e-05 4.73e-05 
48 1 1.62859e-06 1.59e-05 6.8e-05 4.73e-05 
43 1 1.68966e-06 2.34e-05 9.23e-05 4.82e-05 
13 1 1.46573e-06 9.57e-05 4.9e-05 1.76e-06 
49 1 1.56752e-06 5.36e-05 1.43e-05 7.61e-06 
32 1 1.48609e-06 8.13e-05 7.22e-06 9.63e-06 
5 1 1.45555e-06 5.81e-05 4.35e-05 1.15e-05 
2 1 1.5268e-06 8.56e-05 4.63e-05 1.51e-05 
45 1 1.44537e-06 7.36e-05 3.54e-06 2.05e-05 
30 1 1.56752e-06 7.22e-05 3.89e-05 2.96e-05 
18 1 1.76091e-06 8.73e-05 1.61e-05 3.01e-05 
28 1 1.65913e-06 6.2e-05 2.72e-05 3.1e-05 
22 1 1.49627e-06 6.22e-05 2.58e-05 3.7e-05 
3 1 1.85252e-06 5.08e-05 4.51e-05 4.33e-05 
47 1 1.74055e-06 5.5e-05 8.5e-05 3.83e-06 
8 1 1.90341e-06 7.45e-05 7.3e-05 7.61e-06 
42 1 1.75073e-06 8.4e-05 7.44e-05 1.58e-05 
10 1 1.65913e-06 8.99e-05 5.96e-05 1.77e-05 
1 1 1.41484e-06 7.29e-05 5.16e-05 2.8e-05 
21 1 1.79145e-06 6.63e-05 8.48e-05 2.79e-05 
31 1 1.55734e-06 8.73e-05 8.86e-05 3.34e-05 
9 1 1.67948e-06 8.44e-05 7.27e-05 3.47e-05 
7 1 1.8627e-06 6.31e-05 7.34e-05 3.5e-05 
36 1 1.68966e-06 8.26e-05 5.4e-05 3.66e-05 
6 1 1.76091e-06 8.84e-05 9.31e-05 3.73e-05 
38 1 1.44537e-06 9.06e-05 7.97e-05 3.9e-05 
4 1 1.95431e-06 5.84e-05 8.73e-05 4.61e-05 
17 1 1.67948e-06 9.3e-05 9.37e-05 4.61e-05 
23 1 1.73038e-06 5.49e-05 5.39e-05 4.78e-05 
ITEM: TIMESTEP
400
ITEM: NUMBER OF ATOMS
50
ITEM: BOX BOUNDS ff ff ff
0.0000000000000000e+00 1.0000000000000000e-04
0.0000000000000000e+00 1.0000000000000000e-04
0.0000000000000000e+00 5.0000000000000002e-05
ITEM: ATOMS id type diameter x y z 
19 1 1.79182e-06 3.46e-05 2.28e-05 6.49e-06 
34 1 1.77134e-06 2.7e-05 3.73e-05 1.78e-05 
33 1 1.89421e-06 3.84e-05 2.98e-05 2.32e-05 
35 1 1.81229e-06 2.2e-05 2.87e-05 2.46e-05 
39 1 1.41298e-06 3.05e-05 1.9e-06 2.52e-05 
44 1 1.64847e-06 1.19e-05 5.71e-06 2.6e-05 
14 1 1.86349e-06 3.29e-06 7.97e-06 3.3e-05 
25 1 1.74062e-06 3.9e-05 4.46e-05 3.98e-05 
11 1 1.61775e-06 1.29e-05 4.23e-05 4.53e-05 
12 1 1.45393e-06 1.31e-05 4.4e-05 4.71e-05 
24 1 1.5256e-06 2.14e-05 8.38e-05 3.79e-06 
50 1 1.88397e-06 3.96e-05 8.98e-05 7.17e-06 
27 1 1.41298e-06 8.4e-06 8.83e-05 1.03e-05 
26 1 1.55632e-06 1.51e-05 6.64e-05 1.31e-05 
37 1 1.85325e-06 2.15e-05 7.87e-05 1.74e-05 
20 1 1.61775e-06 4.08e-05 6.79e-05 1.81e-05 
41 1 1.61775e-06 1.85e-05 8.99e-05 2.15e-05 
40 1 1.87373e-06 2.16e-06 5.46e-05 2.79e-05 
15 1 1.88397e-06 3.31e-06 6.39e-05 3.13e-05 
29 1 1.55632e-06 4.49e-05 6.88e-05 3.1e-05 
46 1 1.46417e-06 3.74e-05 6.85e-05 4.33e-05 
16 1 1.80206e-06 4.58e-05 6.05e-05 4.73e-05 
48 1 1.63823e-06 1.59e-05 6.8e-05 4.73e-05 
43 1 1.69967e-06 2.34e-05 9.23e-05 4.82e-05 
13 1 1.47441e-06 9.57e-05 4.9e-05 1.76e-06 
49 1 1.5768e-06 5.36e-05 1.43e-05 7.61e-06 
32 1 1.49489e-06 8.13e-05 7.22e-06 9.63e-06 
5 1 1.46417e-06 5.81e-05 4.35e-05 1.15e-05 
2 1 1.53584e-06 8.56e-05 4.63e-05 1.51e-05 
45 1 1.45393e-06 7.36e-05 3.54e-06 2.05e-05 
30 1 1.5768e-06 7.22e-05 3.89e-05 2.96e-05 
18 1 1.77134e-06 8.73e-05 1.61e-05 3.01e-05 
28 1 1.66895e-06 6.2e-05 2.72e-05 3.1e-05 
22 1 1.50513e-06 6.22e-05 2.58e-05 3.7e-05 
3 1 1.86349e-06 5.08e-05 4.51e-05 4.33e-05 
47 1 1.75086e-06 5.5e-05 8.5e-05 3.83e-06 
8 1 1.91468e-06 7.45e-05 7.3e-05 7.61e-06 
42 1 1.7611e-06 8.4e-05 7.44e-05 1.58e-05 
10 1 1.66895e-06 8.99e-05 5.96e-05 1.77e-05 
1 1 1.42321e-06 7.29e-05 5.16e-05 2.8e-05 
21 1 1.80206e-06 6.63e-05 8.48e-05 2.79e-05 
31 1 1.56656e-06 8.73e-05 8.86e-05 3.34e-05 
9 1 1.68943e-06 8.44e-05 7.27e-05 3.47e-05 
7 1 1.87373e-06 6.31e-05 7.34e-05 3.5e-05 
36 1 1.69967e-06 8.26e-05 5.4e-05 3.66e-05 
6 1 1.77134e-06 8.84e-05 9.31e-05 3.73e-05 
38 1 1.45393e-06 9.06e-05 7.97e-05 3.9e-05 
4 1 1.96588e-06 5.84e-05 8.73e-05 4.61e-05 
17 1 1.68943e-06 9.3e-05 9.37e-05 4.61e-05 
23 1 1.74062e-06 5.49e-05 5.39e-05 4.78e-05 
ITEM: TIMESTEP
500
ITEM: NUMBER OF ATOMS
51
ITEM: BOX BOUNDS ff ff ff
0.0000000000000000e+00 1.0000000000000000e-04
0.0000000000000000e+00 1.0000000000000000e-04
0.0000000000000000e+00 5.0000000000000002e-05
ITEM: ATOMS id type diameter x y z 
19 1 1.80243e-06 3.46e-05 2.28e-05 6.49e-06 
34 1 1.78183e-06 2.7e-05 3.73e-05 1.78e-05 
33 1 1.90542e-06 3.84e-05 2.98e-05 2.32e-05 
35 1 1.82302e-06 2.2e-05 2.87e-05 2.46e-05 
39 1 1.42134e-06 3.05e-05 1.9e-06 2.52e-05 
44 1 1.65823e-06 1.19e-05 5.71e-06 2.6e-05 
14 1 1.87452e-06 3.29e-06 7.97e-06 3.3e-05 
25 1 1.75093e-06 3.9e-05 4.46e-05 3.98e-05 
11 1 1.62733e-06 1.29e-05 4.23e-05 4.53e-05 
12 1 1.46254e-06 1.31e-05 4.4e-05 4.71e-05 
24 1 1.53464e-06 2.14e-05 8.38e-05 3.79e-06 
50 1 1.89512e-06 3.96e-05 8.98e-05 7.17e-06 
27 1 1.42134e-06 8.4e-06 8.83e-05 1.03e-05 
26 1 1.56554e-06 1.51e-05 6.64e-05 1.31e-05 
37 1 1.86422e-06 2.15e-05 7.87e-05 1.74e-05 
20 1 1.62733e-06 4.08e-05 6.79e-05 1.81e-05 
41 1 1.62733e-06 1.85e-05 8.99e-05 2.15e-05 
40 1 1.88482e-06 2.16e-06 5.46e-05 2.79e-05 
15 1 1.89512e-06 3.31e-06 6.39e-05 3.13e-05 
29 1 1.56554e-06 4.49e-05 6.88e-05 3.1e-05 
46 1 1.47284e-06 3.74e-05 6.85e-05 4.33e-05 
16 1 1.81273e-06 4.58e-05 6.05e-05 4.73e-05 
48 1 1.64793e-06 1.59e-05 6.8e-05 4.73e-05 
43 1 1.70973e-06 2.34e-05 9.23e-05 4.82e-05 
13 1 1.48314e-06 9.57e-05 4.9e-05 1.76e-06 
49 1 1.58613e-06 5.36e-05 1.43e-05 7.61e-06 
32 1 1.50374e-06 8.13e-05 7.22e-06 9.63e-06 
5 1 1.47284e-06 5.81e-05 4.35e-05 1.15e-05 
2 1 1.54494e-06 8.56e-05 4.63e-05 1.51e-05 
45 1 1.46254e-06 7.36e-05 3.54e-06 2.05e-05 
30 1 1.58613e-06 7.22e-05 3.89e-05 2.96e-05 
18 1 1.78183e-06 8.73e-05 1.61e-05 3.01e-05 
28 1 1.67883e-06 6.2e-05 2.72e-05 3.1e-05 
22 1 1.51404e-06 6.22e-05 2.58e-05 3.7e-05 
3 1 1.87452e-06 5.08e-05 4.51e-05 4.33e-05 
47 1 1.76123e-06 5.5e-05 8.5e-05 3.83e-06 
8 1 1.92602e-06 7.45e-05 7.3e-05 7.61e-06 
42 1 1.77153e-06 8.4e-05 7.44e-05 1.58e-05 
10 1 1.67883e-06 8.99e-05 5.96e-05 1.77e-05 
1 1 1.43164e-06 7.29e-05 5.16e-05 2.8e-05 
21 1 1.81273e-06 6.63e-05 8.48e-05 2.79e-05 
31 1 1.57583e-06 8.73e-05 8.86e-05 3.34e-05 
9 1 1.69943e-06 8.44e-05 7.27e-05 3.47e-05 
7 1 1.88482e-06 6.31e-05 7.34e-05 3.5e-05 
36 1 1.70973e-06 8.26e-05 5.4e-05 3.66e-05 
6 1 1.78183e-06 8.84e-05 9.31e-05 3.73e-05 
38 1 1.46254e-06 9.06e-05 7.97e-05 3.9e-05 
4 1 1.62142e-06 5.83696e-05 8.72836e-05 4.52908e-05 
17 1 1.69943e-06 9.3e-05 9.37e-05 4.61e-05 
23 1 1.75093e-06 5.49e-05 5.39e-05 4.78e-05 
51 1 1.51402e-06 5.84284e-05 8.73153e-05 4.68556e-05 
ITEM: TIMESTEP
600
ITEM: NUMBER OF ATOMS
51
ITEM: BOX BOUNDS ff ff ff
0.0000000000000000e+00 1.0000000000000000e-04
0.0000000000000000e+00 1.0000000000000000e-04
0.0000000000000000e+00 5.0000000000000002e-05
ITEM: ATOMS id type diameter x y z 
19 1 1.8131e-06 3.46e-05 2.28e-05 6.49e-06 
34 1 1.79238e-06 2.7e-05 3.73e-05 1.78e-05 
33 1 1.9167e-06 3.84e-05 2.98e-05 2.32e-05 
35 1 1.83382e-06 2.2e-05 2.87e-05 2.46e-05 
39 1 1.42976e-06 3.05e-05 1.9e-06 2.52e-05 
44 1 1.66805e-06 1.19e-05 5.71e-06 2.6e-05 
14 1 1.88562e-06 3.29e-06 7.97e-06 3.3e-05 
25 1 1.76129e-06 3.9e-05 4.46e-05 3.98e-05 
11 1 1.63697e-06 1.29e-05 4.23e-05 4.53e-05 
12 1 1.4712e-06 1.31e-05 4.4e-05 4.71e-05 
24 1 1.54372e-06 2.14e-05 8.38e-05 3.79e-06 
50 1 1.90634e-06 3.96e-05 8.98e-05 7.17e-06 
27 1 1.42976e-06 8.4e-06 8.83e-05 1.03e-05 
26 1 1.5748e-06 1.51e-05 6.64e-05 1.31e-05 
37 1 1.87526e-06 2.15e-05 7.87e-05 1.74e-05 
20 1 1.63697e-06 4.08e-05 6.79e-05 1.81e-05 
41 1 1.63697e-06 1.85e-05 8.99e-05 2.15e-05 
40 1 1.89598e-06 2.16e-06 5.46e-05 2.79e-05 
15 1 1.90634e-06 3.31e-06 6.39e-05 3.13e-05 
29 1 1.5748e-06 4.49e-05 6.88e-05 3.1e-05 
46 1 1.48156e-06 3.74e-05 6.85e-05 4.33e-05 
16 1 1.82346e-06 4.58e-05 6.05e-05 4.73e-05 
48 1 1.65769e-06 1.59e-05 6.8e-05 4.73e-05 
43 1 1.71985e-06 2.34e-05 9.23e-05 4.82e-05 
13 1 1.49192e-06 9.57e-05 4.9e-05 1.76e-06 
49 1 1.59553e-06 5.36e-05 1.43e-05 7.61e-06 
32 1 1.51264e-06 8.13e-05 7.22e-06 9.63e-06 
5 1 1.48156e-06 5.81e-05 4.35e-05 1.15e-05 
2 1 1.55408e-06 8.56e-05 4.63e-05 1.51e-05 
45 1 1.4712e-06 7.36e-05 3.54e-06 2.05e-05 
30 1 1.59553e-06 7.22e-05 3.89e-05 2.96e-05 
18 1 1.79238e-06 8.73e-05 1.61e-05 3.01e-05 
28 1 1.68877e-06 6.2e-05 2.72e-05 3.1e-05 
22 1 1.523e-06 6.22e-05 2.58e-05 3.7e-05 
3 1 1.88562e-06 5.08e-05 4.51e-05 4.33e-05 
47 1 1.77166e-06 5.5e-05 8.5e-05 3.83e-06 
8 1 1.93742e-06 7.45e-05 7.3e-05 7.61e-06 
42 1 1.78202e-06 8.4e-05 7.44e-05 1.58e-05 
10 1 1.68877e-06 8.99e-05 5.96e-05 1.77e-05 
1 1 1.44012e-06 7.29e-05 5.16e-05 2.8e-05 
21 1 1.82346e-06 6.63e-05 8.48e-05 2.79e-05 
31 1 1.58517e-06 8.73e-05 8.86e-05 3.34e-05 
9 1 1.70949e-06 8.44e-05 7.27e-05 3.47e-05 
7 1 1.89598e-06 6.31e-05 7.34e-05 3.5e-05 
36 1 1.71985e-06 8.26e-05 5.4e-05 3.66e-05 
6 1 1.79238e-06 8.84e-05 9.31e-05 3.73e-05 
38 1 1.4712e-06 9.06e-05 7.97e-05 3.9e-05 
4 1 1.63102e-06 5.83696e-05 8.72836e-05 4.52908e-05 
17 1 1.70949e-06 9.3e-05 9.37e-05 4.61e-05 
23 1 1.76129e-06 5.49e-05 5.39e-05 4.78e-05 
51 1 1.52299e-06 5.84284e-05 8.73153e-05 4.68556e-05 
ITEM: TIMESTEP
700
ITEM: NUMBER OF ATOMS
51
ITEM: BOX BOUNDS ff ff ff
0.0000000000000000e+00 1.0000000000000000e-04
0.0000000000000000e+00 1.0000000000000000e-04
0.0000000000000000e+00 5.0000000000000002e-05
ITEM: ATOMS id type diameter x y z 
19 1 1.82383e-06 3.46e-05 2.28e-05 6.49e-06 
34 1 1.80299e-06 2.7e-05 3.73e-05 1.78e-05 
33 1 1.92805e-06 3.84e-05 2.98e-05 2.32e-05 
35 1 1.84468e-06 2.2e-05 2.87e-05 2.46e-05 
39 1 1.43822e-06 3.05e-05 1.9e-06 2.52e-05 
44 1 1.67793e-06 1.19e-05 5.71e-06 2.6e-05 
14 1 1.89679e-06 3.29e-06 7.97e-06 3.3e-05 
25 1 1.77172e-06 3.9e-05 4.46e-05 3.98e-05 
11 1 1.64666e-06 1.29e-05 4.23e-05 4.53e-05 
12 1 1.47991e-06 1.31e-05 4.4e-05 4.71e-05 
24 1 1.55286e-06 2.14e-05 8.38e-05 3.79e-06 
50 1 1.91763e-06 3.96e-05 8.98e-05 7.17e-06 
27 1 1.43822e-06 8.4e-06 8.83e-05 1.03e-05 
26 1 1.58413e-06 1.51e-05 6.64e-05 1.31e-05 
37 1 1.88636e-06 2.15e-05 7.87e-05 1.74e-05 
20 1 1.64666e-06 4.08e-05 6.79e-05 1.81e-05 
41 1 1.64666e-06 1.85e-05 8.99e-05 2.15e-05 
40 1 1.90721e-06 2.16e-06 5.46e-05 2.79e-05 
15 1 1.91763e-06 3.31e-06 6.39e-05 3.13e-05 
29 1 1.58413e-06 4.49e-05 6.88e-05 3.1e-05 
46 1 1.49033e-06 3.74e-05 6.85e-05 4.33e-05 
16 1 1.83425e-06 4.58e-05 6.05e-05 4.73e-05 
48 1 1.6675e-06 1.59e-05 6.8e-05 4.73e-05 
43 1 1.73004e-06 2.34e-05 9.23e-05 4.82e-05 
13 1 1.50075e-06 9.57e-05 4.9e-05 1.76e-06 
49 1 1.60497e-06 5.36e-05 1.43e-05 7.61e-06 
32 1 1.5216e-06 8.13e-05 7.22e-06 9.63e-06 
5 1 1.49033e-06 5.81e-05 4.35e-05 1.15e-05 
2 1 1.56329e-06 8.56e-05 4.63e-05 1.51e-05 
45 1 1.47991e-06 7.36e-05 3.54e-06 2.05e-05 
30 1 1.60497e-06 7.22e-05 3.89e-05 2.96e-05 
18 1 1.80299e-06 8.73e-05 1.61e-05 3.01e-05 
28 1 1.69877e-06 6.2e-05 2.72e-05 3.1e-05 
22 1 1.53202e-06 6.22e-05 2.58e-05 3.7e-05 
3 1 1.89679e-06 5.08e-05 4.51e-05 4.33e-05 
47 1 1.78215e-06 5.5e-05 8.5e-05 3.83e-06 
8 1 1.9489e-06 7.45e-05 7.3e-05 7.61e-06 
42 1 1.79257e-06 8.4e-05 7.44e-05 1.58e-05 
10 1 1.69877e-06 8.99e-05 5.96e-05 1.77e-05 
1 1 1.44864e-06 7.29e-05 5.16e-05 2.8e-05 
21 1 1.83425e-06 6.63e-05 8.48e-05 2.79e-05 
31 1 1.59455e-06 8.73e-05 8.86e-05 3.34e-05 
9 1 1.71961e-06 8.44e-05 7.27e-05 3.47e-05 
7 1 1.90721e-06 6.31e-05 7.34e-05 3.5e-05 
36 1 1.73004e-06 8.26e-05 5.4e-05 3.66e-05 
6 1 1.80299e-06 8.84e-05 9.31e-05 3.73e-05 
38 1 1.47991e-06 9.06e-05 7.97e-05 3.9e-05 
4 1 1.64068e-06 5.83696e-05 8.72836e-05 4.52908e-05 
17 1 1.71961e-06 9.3e-05 9.37e-05 4.61e-05 
23 1 1.77172e-06 5.49e-05 5.39e-05 4.78e-05 
51 1 1.532e-06 5.84284e-05 8.73153e-05 4.68556e-05 
ITEM: TIMESTEP
800
ITEM: NUMBER OF ATOMS
51
ITEM: BOX BOUNDS ff ff ff
0.0000000000000000e+00 1.0000000000000000e-04
0.0000000000000000e+00 1.0000000000000000e-04
0.0000000000000000e+00 5.0000000000000002e-05
ITEM: ATOMS id type diameter x y z 
19 1 1.83463e-06 3.46e-05 2.28e-05 6.49e-06 
34 1 1.81366e-06 2.7e-05 3.73e-05 1.78e-05 
33 1 1.93947e-06 3.84e-05 2.98e-05 2.32e-05 
35 1 1.8556e-06 2.2e-05 2.87e-05 2.46e-05 
39 1 1.44674e-06 3.05e-05 1.9e-06 2.52e-05 
44 1 1.68786e-06 1.19e-05 5.71e-06 2.6e-05 
14 1 1.90802e-06 3.29e-06 7.97e-06 3.3e-05 
25 1 1.78221e-06 3.9e-05 4.46e-05 3.98e-05 
11 1 1.65641e-06 1.29e-05 4.23e-05 4.53e-05 
12 1 1.48867e-06 1.31e-05 4.4e-05 4.71e-05 
24 1 1.56206e-06 2.14e-05 8.38e-05 3.79e-06 
50 1 1.92898e-06 3.96e-05 8.98e-05 7.17e-06 
27 1 1.44674e-06 8.4e-06 8.83e-05 1.03e-05 
26 1 1.59351e-06 1.51e-05 6.64e-05 1.31e-05 
37 1 1.89753e-06 2.15e-05 7.87e-05 1.74e-05 
20 1 1.65641e-06 4.08e-05 6.79e-05 1.81e-05 
41 1 1.65641e-06 1.85e-05 8.99e-05 2.15e-05 
40 1 1.9185e-06 2.16e-06 5.46e-05 2.79e-05 
15 1 1.92898e-06 3.31e-06 6.39e-05 3.13e-05 
29 1 1.59351e-06 4.49e-05 6.88e-05 3.1e-05 
46 1 1.49916e-06 3.74e-05 6.85e-05 4.33e-05 
16 1 1.84512e-06 4.58e-05 6.05e-05 4.73e-05 
48 1 1.67738e-06 1.59e-05 6.8e-05 4.73e-05 
43 1 1.74028e-06 2.34e-05 9.23e-05 4.82e-05 
13 1 1.50964e-06 9.57e-05 4.9e-05 1.76e-06 
49 1 1.61448e-06 5.36e-05 1.43e-05 7.61e-06 
32 1 1.53061e-06 8.13e-05 7.22e-06 9.63e-06 
5 1 1.49916e-06 5.81e-05 4.35e-05 1.15e-05 
2 1 1.57254e-06 8.56e-05 4.63e-05 1.51e-05 
45 1 1.48867e-06 7.36e-05 3.54e-06 2.05e-05 
30 1 1.61448e-06 7.22e-05 3.89e-05 2.96e-05 
18 1 1.81366e-06 8.73e-05 1.61e-05 3.01e-05 
28 1 1.70883e-06 6.2e-05 2.72e-05 3.1e-05 
22 1 1.54109e-06 6.22e-05 2.58e-05 3.7e-05 
3 1 1.90802e-06 5.08e-05 4.51e-05 4.33e-05 
47 1 1.7927e-06 5.5e-05 8.5e-05 3.83e-06 
8 1 1.96044e-06 7.45e-05 7.3e-05 7.61e-06 
42 1 1.80318e-06 8.4e-05 7.44e-05 1.58e-05 
10 1 1.70883e-06 8.99e-05 5.96e-05 1.77e-05 
1 1 1.45722e-06 7.29e-05 5.16e-05 2.8e-05 
21 1 1.84512e-06 6.63e-05 8.48e-05 2.79e-05 
31 1 1.60399e-06 8.73e-05 8.86e-05 3.34e-05 
9 1 1.7298e-06 8.44e-05 7.27e-05 3.47e-05 
7 1 1.9185e-06 6.31e-05 7.34e-05 3.5e-05 
36 1 1.74028e-06 8.26e-05 5.4e-05 3.66e-05 
6 1 1.81366e-06 8.84e-05 9.31e-05 3.73e-05 
38 1 1.48867e-06 9.06e-05 7.97e-05 3.9e-05 
4 1 1.65039e-06 5.83696e-05 8.72836e-05 4.52908e-05 
17 1 1.7298e-06 9.3e-05 9.37e-05 4.61e-05 
23 1 1.78221e-06 5.49e-05 5.39e-05 4.78e-05 
51 1 1.54108e-06 5.84284e-05 8.73153e-05 4.68556e-05 
ITEM: TIMESTEP
900
ITEM: NUMBER OF ATOMS
52
ITEM: BOX BOUNDS ff ff ff
0.0000000000000000e+00 1.0000000000000000e-04
0.0000000000000000e+00 1.0000000000000000e-04
0.0000000000000000e+00 5.0000000000000002e-05
ITEM: ATOMS id type diameter x y z 
19 1 1.84549e-06 3.46e-05 2.28e-05 6.49e-06 
34 1 1.8244e-06 2.7e-05 3.73e-05 1.78e-05 
33 1 1.95095e-06 3.84e-05 2.98e-05 2.32e-05 
35 1 1.86659e-06 2.2e-05 2.87e-05 2.46e-05 
39 1 1.4553e-06 3.05e-05 1.9e-06 2.52e-05 
44 1 1.69786e-06 1.19e-05 5.71e-06 2.6e-05 
14 1 1.91931e-06 3.29e-06 7.97e-06 3.3e-05 
25 1 1.79277e-06 3.9e-05 4.46e-05 3.98e-05 
11 1 1.66622e-06 1.29e-05 4.23e-05 4.53e-05 
12 1 1.49749e-06 1.31e-05 4.4e-05 4.71e-05 
24 1 1.57131e-06 2.14e-05 8.38e-05 3.79e-06 
50 1 1.94041e-06 3.96e-05 8.98e-05 7.17e-06 
27 1 1.4553e-06 8.4e-06 8.83e-05 1.03e-05 
26 1 1.60294e-06 1.51e-05 6.64e-05 1.31e-05 
37 1 1.90877e-06 2.15e-05 7.87e-05 1.74e-05 
20 1 1.66622e-06 4.08e-05 6.79e-05 1.81e-05 
41 1 1.66622e-06 1.85e-05 8.99e-05 2.15e-05 
40 1 1.92986e-06 2.16e-06 5.46e-05 2.79e-05 
15 1 1.94041e-06 3.31e-06 6.39e-05 3.13e-05 
29 1 1.60294e-06 4.49e-05 6.88e-05 3.1e-05 
46 1 1.50803e-06 3.74e-05 6.85e-05 4.33e-05 
16 1 1.85604e-06 4.58e-05 6.05e-05 4.73e-05 
48 1 1.68731e-06 1.59e-05 6.8e-05 4.73e-05 
43 1 1.75058e-06 2.34e-05 9.23e-05 4.82e-05 
13 1 1.51858e-06 9.57e-05 4.9e-05 1.76e-06 
49 1 1.62404e-06 5.36e-05 1.43e-05 7.61e-06 
32 1 1.53967e-06 8.13e-05 7.22e-06 9.63e-06 
5 1 1.50803e-06 5.81e-05 4.35e-05 1.15e-05 
2 1 1.58185e-06 8.56e-05 4.63e-05 1.51e-05 
45 1 1.49749e-06 7.36e-05 3.54e-06 2.05e-05 
30 1 1.62404e-06 7.22e-05 3.89e-05 2.96e-05 
18 1 1.8244e-06 8.73e-05 1.61e-05 3.01e-05 
28 1 1.71895e-06 6.2e-05 2.72e-05 3.1e-05 
22 1 1.55022e-06 6.22e-05 2.58e-05 3.7e-05 
3 1 1.91931e-06 5.08e-05 4.51e-05 4.33e-05 
47 1 1.80331e-06 5.5e-05 8.5e-05 3.83e-06 
8 1 1.61693e-06 7.44696e-05 7.29836e-05 6.80301e-06 
42 1 1.81386e-06 8.4e-05 7.44e-05 1.58e-05 
10 1 1.71895e-06 8.99e-05 5.96e-05 1.77e-05 
52 1 1.50983e-06 7.45283e-05 7.30153e-05 8.36354e-06 
1 1 1.46585e-06 7.29e-05 5.16e-05 2.8e-05 
21 1 1.85604e-06 6.63e-05 8.48e-05 2.79e-05 
31 1 1.61349e-06 8.73e-05 8.86e-05 3.34e-05 
9 1 1.74004e-06 8.44e-05 7.27e-05 3.47e-05 
7 1 1.92986e-06 6.31e-05 7.34e-05 3.5e-05 
36 1 1.75058e-06 8.26e-05 5.4e-05 3.66e-05 
6 1 1.8244e-06 8.84e-05 9.31e-05 3.73e-05 
38 1 1.49749e-06 9.06e-05 7.97e-05 3.9e-05 
4 1 1.66016e-06 5.83688e-05 8.72832e-05 4.52708e-05 
17 1 1.74004e-06 9.3e-05 9.37e-05 4.61e-05 
23 1 1.79277e-06 5.49e-05 5.39e-05 4.78e-05 
51 1 1.5502e-06 5.84292e-05 8.73158e-05 4.68756e-05 
ITEM: TIMESTEP
1000
ITEM: NUMBER OF ATOMS
52
ITEM: BOX BOUNDS ff ff ff
0.0000000000000000e+00 1.0000000000000000e-04
0.0000000000000000e+00 1.0000000000000000e-04
0.0000000000000000e+00 5.0000000000000002e-05
ITEM: ATOMS id type diameter x y z 
19 1 1.85642e-06 3.46e-05 2.28e-05 6.49e-06 
34 1 1.83521e-06 2.7e-05 3.73e-05 1.78e-05 
33 1 1.9625e-06 3.84e-05 2.98e-05 2.32e-05 
35 1 1.87764e-06 2.2e-05 2.87e-05 2.46e-05 
39 1 1.46392e-06 3.05e-05 1.9e-06 2.52e-05 
44 1 1.70791e-06 1.19e-05 5.71e-06 2.6e-05 
14 1 1.93068e-06 3.29e-06 7.97e-06 3.3e-05 
25 1 1.80338e-06 3.9e-05 4.46e-05 3.98e-05 
11 1 1.67608e-06 1.29e-05 4.23e-05 4.53e-05 
12 1 1.50635e-06 1.31e-05 4.4e-05 4.71e-05 
24 1 1.58061e-06 2.14e-05 8.38e-05 3.79e-06 
50 1 1.95189e-06 3.96e-05 8.98e-05 7.17e-06 
27 1 1.46392e-06 8.4e-06 8.83e-05 1.03e-05 
26 1 1.61243e-06 1.51e-05 6.64e-05 1.31e-05 
37 1 1.92007e-06 2.15e-05 7.87e-05 1.74e-05 
20 1 1.67608e-06 4.08e-05 6.79e-05 1.81e-05 
41 1 1.67608e-06 1.85e-05 8.99e-05 2.15e-05 
40 1 1.94129e-06 2.16e-06 5.46e-05 2.79e-05 
15 1 1.95189e-06 3.31e-06 6.39e-05 3.13e-05 
29 1 1.61243e-06 4.49e-05 6.88e-05 3.1e-05 
46 1 1.51696e-06 3.74e-05 6.85e-05 4.33e-05 
16 1 1.86703e-06 4.58e-05 6.05e-05 4.73e-05 
48 1 1.6973e-06 1.59e-05 6.8e-05 4.73e-05 
43 1 1.76095e-06 2.34e-05 9.23e-05 4.82e-05 
13 1 1.52757e-06 9.57e-05 4.9e-05 1.76e-06 
49 1 1.63365e-06 5.36e-05 1.43e-05 7.61e-06 
32 1 1.54879e-06 8.13e-05 7.22e-06 9.63e-06 
5 1 1.51696e-06 5.81e-05 4.35e-05 1.15e-05 
2 1 1.59122e-06 8.56e-05 4.63e-05 1.51e-05 
45 1 1.50635e-06 7.36e-05 3.54e-06 2.05e-05 
30 1 1.63365e-06 7.22e-05 3.89e-05 2.96e-05 
18 1 1.83521e-06 8.73e-05 1.61e-05 3.01e-05 
28 1 1.72912e-06 6.2e-05 2.72e-05 3.1e-05 
22 1 1.55939e-06 6.22e-05 2.58e-05 3.7e-05 
3 1 1.93068e-06 5.08e-05 4.51e-05 4.33e-05 
47 1 1.81399e-06 5.5e-05 8.5e-05 3.83e-06 
8 1 1.6265e-06 7.44696e-05 7.29836e-05 6.80301e-06 
52 1 1.51877e-06 7.45283e-05 7.30153e-05 8.36354e-06 
42 1 1.8246e-06 8.4e-05 7.44e-05 1.58e-05 
10 1 1.72912e-06 8.99e-05 5.96e-05 1.77e-05 
1 1 1.47453e-06 7.29e-05 5.16e-05 2.8e-05 
21 1 1.86703e-06 6.63e-05 8.48e-05 2.79e-05 
31 1 1.62304e-06 8.73e-05 8.86e-05 3.34e-05 
9 1 1.75034e-06 8.44e-05 7.27e-05 3.47e-05 
7 1 1.94129e-06 6.31e-05 7.34e-05 3.5e-05 
36 1 1.76095e-06 8.26e-05 5.4e-05 3.66e-05 
6 1 1.83521e-06 8.84e-05 9.31e-05 3.73e-05 
38 1 1.50635e-06 9.06e-05 7.97e-05 3.9e-05 
4 1 1.66999e-06 5.83688e-05 8.72832e-05 4.52708e-05 
17 1 1.75034e-06 9.3e-05 9.37e-05 4.61e-05 
51 1 1.55938e-06 5.84292e-05 8.73158e-05 4.68756e-05 
23 1 1.80338e-06 5.49e-05 5.39e-05 4.78e-05 
ITEM: TIMESTEP
1100
ITEM: NUMBER OF ATOMS
53
ITEM: BOX BOUNDS ff ff ff
0.0000000000000000e+00 1.0000000000000000e-04
0.0000000000000000e+00 1.0000000000000000e-04
0.0000000000000000e+00 5.0000000000000002e-05
ITEM: ATOMS id type diameter x y z 
19 1 1.86741e-06 3.46e-05 2.28e-05 6.49e-06 
34 1 1.84607e-06 2.7e-05 3.73e-05 1.78e-05 
33 1 1.61863e-06 3.83696e-05 2.97836e-05 2.23922e-05 
35 1 1.88876e-06 2.2e-05 2.87e-05 2.46e-05 
39 1 1.47259e-06 3.05e-05 1.9e-06 2.52e-05 
44 1 1.71802e-06 1.19e-05 5.71e-06 2.6e-05 
14 1 1.94211e-06 3.29e-06 7.97e-06 3.3e-05 
25 1 1.81406e-06 3.9e-05 4.46e-05 3.98e-05 
11 1 1.68601e-06 1.29e-05 4.23e-05 4.53e-05 
12 1 1.51527e-06 1.31e-05 4.4e-05 4.71e-05 
53 1 1.51142e-06 3.84284e-05 2.98153e-05 2.39543e-05 
24 1 1.58997e-06 2.14e-05 8.38e-05 3.79e-06 
50 1 1.96345e-06 3.96e-05 8.98e-05 7.17e-06 
27 1 1.47259e-06 8.4e-06 8.83e-05 1.03e-05 
26 1 1.62198e-06 1.51e-05 6.64e-05 1.31e-05 
37 1 1.93144e-06 2.15e-05 7.87e-05 1.74e-05 
20 1 1.68601e-06 4.08e-05 6.79e-05 1.81e-05 
41 1 1.68601e-06 1.85e-05 8.99e-05 2.15e-05 
40 1 1.95278e-06 2.16e-06 5.46e-05 2.79e-05 
15 1 1.96345e-06 3.31e-06 6.39e-05 3.13e-05 
29 1 1.62198e-06 4.49e-05 6.88e-05 3.1e-05 
46 1 1.52594e-06 3.74e-05 6.85e-05 4.33e-05 
16 1 1.87808e-06 4.58e-05 6.05e-05 4.73e-05 
48 1 1.70735e-06 1.59e-05 6.8e-05 4.73e-05 
43 1 1.77138e-06 2.34e-05 9.23e-05 4.82e-05 
13 1 1.53661e-06 9.57e-05 4.9e-05 1.76e-06 
49 1 1.64332e-06 5.36e-05 1.43e-05 7.61e-06 
32 1 1.55796e-06 8.13e-05 7.22e-06 9.63e-06 
5 1 1.52594e-06 5.81e-05 4.35e-05 1.15e-05 
2 1 1.60064e-06 8.56e-05 4.63e-05 1.51e-05 
45 1 1.51527e-06 7.36e-05 3.54e-06 2.05e-05 
30 1 1.64332e-06 7.22e-05 3.89e-05 2.96e-05 
18 1 1.84607e-06 8.73e-05 1.61e-05 3.01e-05 
28 1 1.73936e-06 6.2e-05 2.72e-05 3.1e-05 
22 1 1.56863e-06 6.22e-05 2.58e-05 3.7e-05 
3 1 1.94211e-06 5.08e-05 4.51e-05 4.33e-05 
47 1 1.82473e-06 5.5e-05 8.5e-05 3.83e-06 
8 1 1.63613e-06 7.44696e-05 7.29836e-05 6.80301e-06 
52 1 1.52776e-06 7.45283e-05 7.30153e-05 8.36354e-06 
42 1 1.8354e-06 8.4e-05 7.44e-05 1.58e-05 
10 1 1.73936e-06 8.99e-05 5.96e-05 1.77e-05 
1 1 1.48326e-06 7.29e-05 5.16e-05 2.8e-05 
21 1 1.87808e-06 6.63e-05 8.48e-05 2.79e-05 
31 1 1.63265e-06 8.73e-05 8.86e-05 3.34e-05 
9 1 1.7607e-06 8.44e-05 7.27e-05 3.47e-05 
7 1 1.95278e-06 6.31e-05 7.34e-05 3.5e-05 
36 1 1.77138e-06 8.26e-05 5.4e-05 3.66e-05 
6 1 1.84607e-06 8.84e-05 9.31e-05 3.73e-05 
38 1 1.51527e-06 9.06e-05 7.97e-05 3.9e-05 
4 1 1.67988e-06 5.83688e-05 8.72832e-05 4.52708e-05 
17 1 1.7607e-06 9.3e-05 9.37e-05 4.61e-05 
51 1 1.56861e-06 5.84292e-05 8.73158e-05 4.68756e-05 