LAMMPS (20 Nov 2019)
# NUFEB simulation

atom_style	bio
atom_modify	map array sort 1000 5.0e-7
boundary	ff ff ff
newton		off
processors  * * *

comm_modify	vel yes
#variable reps loop 1
read_data_bio atom_50_50_100_1_2021-08-31.in
  orthogonal box = (0 0 0) to (0.0001 0.0001 1e-05)
  8 by 4 by 1 MPI processor grid
  reading atoms ...
  100 atoms
  4 nutrients
#shell mkdir Run_50_50_100_1
#shell cd Run_50_50_100_1
##############Define initial particle distribution##############

lattice sc 1e-6 origin 0 0 0
Lattice spacing in x,y,z = 100 100 100
region reg block 0 1000 0 1000 0 100

group CYANO type 1
50 atoms in group CYANO
group ECW type 2
50 atoms in group ECW

neighbor	5e-7 bin
neigh_modify	delay 0 one 5000

##############Define DEM Variables&Commands##############

pair_style  gran/hooke/history 1.e-4 NULL 1.e-5 NULL 0.0 1
pair_coeff  * *

timestep 10

fix 1 all nve/limit 1e-8
fix fv all viscous 1e-5

fix zw all wall/gran hooke/history 2000 NULL 500.0 NULL 1.5 0 zplane  0.0  1e-05

variable kanc equal 50

variable ke equal 5e+10


##############Define IBm Variables##############

#variables used in fix eps_extract
variable EPSdens equal 30
variable EPSratio equal 1.3

#variables used in fix division
variable divDia1 equal 1.96e-6
variable divDia2 equal 1.04e-6

#variables used in fix kinetics
variable diffT equal 1e-4
variable tol equal 1e-11
variable etaHET equal 0.6
variable layer equal -1

#variables used in fix death
#variable deadDia equal 9e-7


##############Define IBm Commands##############

fix k1 all kinetics 100 50 50 5 v_diffT v_layer niter 1000000
fix kgm all kinetics/growth/monod sucexp 1.0
fix g1 all kinetics/diffusion v_tol
fix d1 CYANO divide 100 v_EPSdens v_divDia1 325982
fix d2 ECW divide 100 v_EPSdens v_divDia2 81639
#fix d2 all death 1 v_deadDia demflag 0


##############Define IBm Computes##############

compute myNtypes all ntypes
compute myMass all biomass
compute myCon all avg_con

##############Simulation exit condition##############
variable co2 equal c_myCon[4]
fix 10 all halt 100 v_co2 <= 1e-19

variable light equal c_myCon[1]
fix 11 all halt 100 v_light <= 1e-19

##############Simulation Output##############
dump    id all custom 100 output.lammmps id type diameter x y z
dump    du1 all vtk 100 atom_*.vtu id type diameter x y z
dump    du2 all grid 100 grid_%_*.vti con
dump    du3 all bio 100 ntypes biomass avg_con
dump    traj all bio/hdf5 100 trajectory.h5 id type radius x y z con
thermo_style    custom step cpu atoms c_myNtypes[*] c_myMass[*] c_myCon[*]
thermo		100
thermo_modify	lost ignore


run 35000
Model is defined as a closed system. 
Neighbor list info ...
  update every 1 steps, delay 0 steps, check yes
  max neighbors/atom: 5000, page size: 100000
  master list distance cutoff = 2.43e-06
  ghost atom cutoff = 2.43e-06
  binsize = 1.215e-06, bins = 83 83 9
  1 neighbor lists, perpetual/occasional/extra = 1 0 0
  (1) pair gran/hooke/history, perpetual
      attributes: half, newton off, size, history
      pair build: half/size/bin/newtoff
      stencil: half/bin/3d/newtoff
      bin: standard
Per MPI rank memory allocation (min/avg/max) = 6.792 | 10.51 | 12.11 Mbytes
Step CPU Atoms c_myNtypes[1] c_myNtypes[2] c_myMass[1] c_myMass[2] c_myCon[1] c_myCon[2] c_myCon[3] c_myCon[4] 
       0            0      100           50           50 4.6148823e-14 9.5250732e-15          0.1        0.009     3.42e-20       0.0299 
number of iterations: 324954 
     100    15.819432      137           50           87 4.6760398e-14 9.5178032e-15          0.1 0.0090008012   0.03708077  0.029898665 
number of iterations: 3788 
     200    16.155614      159           50          109 4.7380076e-14 9.5113793e-15          0.1 0.0090008118  0.073465194  0.029898648 
number of iterations: 2856 
     300    16.435024      159           50          109 4.8007967e-14 9.5057919e-15          0.1 0.0090008225   0.11030953   0.02989863 
number of iterations: 2395 
     400    16.687429      159           50          109 4.8644179e-14 9.501033e-15          0.1 0.0090008333   0.14762193  0.029898612 
number of iterations: 2071 
     500    16.930209      161           52          109 4.9288823e-14 9.4970948e-15          0.1 0.0090008443   0.18540957  0.029898593 
number of iterations: 1860 
     600    17.378075      164           55          109 4.9942009e-14  9.49397e-15          0.1   0.00900085   0.22367935  0.029898584 
number of iterations: 1700 
     700    17.602509      165           56          109 5.0603851e-14 9.4916517e-15          0.1 0.0090008628    0.2624384  0.029898563 
number of iterations: 1573 
     800    17.838292      165           56          109 5.1274464e-14 9.4901335e-15          0.1 0.0090008741   0.30169361  0.029898544 
number of iterations: 1468 
     900    18.099118      165           56          109 5.1953964e-14 9.4894089e-15          0.1 0.0090008857   0.34145199  0.029898524 
number of iterations: 1401 
    1000    18.304406      165           56          109 5.264247e-14 9.4894717e-15          0.1 0.0090008974   0.38172065  0.029898505 
number of iterations: 1467 
    1100    18.509899      166           57          109 5.3340099e-14 9.4903161e-15          0.1 0.0090009041   0.42250677  0.029898494 
number of iterations: 1396 
    1200    18.762411      167           58          109 5.4046973e-14 9.4919362e-15          0.1  0.009000916   0.46381758  0.029898474 
number of iterations: 1498 
    1300    18.973379      169           60          109 5.4763216e-14 9.4943267e-15          0.1 0.0090009227   0.50566034  0.029898462 
number of iterations: 1410 
    1400    19.152009      169           60          109 5.548895e-14 9.497482e-15          0.1 0.0090009349   0.54804253  0.029898442 
number of iterations: 1369 
    1500    19.338157      171           62          109 5.6224301e-14 9.5013976e-15          0.1 0.0090009405   0.59097166  0.029898433 
number of iterations: 1413 
    1600    19.553789      172           63          109 5.6969398e-14 9.5060679e-15          0.1 0.0090009488   0.63445534  0.029898419 
number of iterations: 1416 
    1700    19.736436      172           63          109 5.7724368e-14 9.5114884e-15          0.1 0.0090009614   0.67850127  0.029898398 
number of iterations: 1419 
    1800    19.928018      172           63          109 5.8489344e-14 9.5176542e-15          0.1 0.0090009741   0.72311721  0.029898377 
number of iterations: 1422 
    1900    20.128461      172           63          109 5.9264458e-14 9.5245612e-15          0.1 0.0090009869   0.76831108  0.029898355 
number of iterations: 1467 
    2000    20.359058      172           63          109 6.0049843e-14 9.5322049e-15          0.1     0.009001    0.8140908  0.029898333 
number of iterations: 1597 
    2100    20.597112      173           64          109 6.0845636e-14 9.5405815e-15          0.1 0.0090010167   0.86046451  0.029898305 
number of iterations: 1559 
    2200    20.798318      175           66          109 6.1651976e-14 9.5496877e-15          0.1 0.0090010373   0.90744036  0.029898271 
number of iterations: 1463 
    2300    20.981233      176           67          109 6.2469001e-14 9.5595197e-15          0.1  0.009001051   0.95502684  0.029898248 
number of iterations: 1442 
    2400    21.165562      176           67          109 6.3296853e-14 9.5700732e-15          0.1 0.0090010649    1.0032322  0.029898225 
number of iterations: 1445 
    2500    21.357658      176           67          109 6.4135677e-14 9.5813448e-15          0.1  0.009001079    1.0520649  0.029898202 
number of iterations: 1448 
    2600    21.560242      176           67          109 6.4985617e-14 9.5933313e-15          0.1 0.0090010933    1.1015335  0.029898178 
number of iterations: 1534 
    2700    21.759075      178           69          109 6.584682e-14 9.6060298e-15          0.1 0.0090011092    1.1516467  0.029898151 
number of iterations: 1453 
    2800    21.945046      178           69          109 6.6719436e-14 9.619437e-15          0.1 0.0090011239    1.2024134  0.029898127 
number of iterations: 1456 
    2900     22.13894      178           69          109 6.7603616e-14 9.6335501e-15          0.1 0.0090011387    1.2538425  0.029898102 
number of iterations: 1613 
    3000    22.362966      180           71          109 6.8499514e-14 9.6483679e-15          0.1 0.0090011542    1.3059432  0.029898076 
number of iterations: 1462 
    3100    22.528994      180           71          109 6.9407284e-14 9.6638864e-15          0.1 0.0090011695    1.3587245  0.029898051 
number of iterations: 1465 
    3200    22.709861      180           71          109 7.0327084e-14 9.6801031e-15          0.1 0.0090011849    1.4121958  0.029898025 
number of iterations: 1468 
    3300     22.89876      182           73          109 7.1259073e-14 9.6970157e-15          0.1 0.0090011993    1.4663664  0.029898001 
number of iterations: 1470 
    3400    23.087414      182           73          109 7.2203414e-14 9.7146222e-15          0.1 0.0090012097     1.521246  0.029897983 
number of iterations: 1474 
    3500    23.352435      182           73          109 7.3160269e-14 9.7329204e-15          0.1 0.0090012258     1.576844  0.029897957 
number of iterations: 1477 
    3600    23.524726      182           73          109 7.4129804e-14 9.7519086e-15          0.1  0.009001242    1.6331704   0.02989793 
number of iterations: 1437 
    3700    23.690823      183           74          109 7.5112188e-14 9.7715848e-15          0.1 0.0090012529    1.6902349  0.029897911 
number of iterations: 1491 
    3800    23.872101      184           75          109 7.610759e-14 9.7919494e-15          0.1 0.0090012668    1.7480477  0.029897888 
number of iterations: 1532 
    3900    24.059817      186           76          110 7.7116184e-14 9.8129984e-15          0.1 0.0090012797    1.8066186  0.029897867 
number of iterations: 1483 
    4000    24.264727      188           76          112 7.8138144e-14 9.834731e-15          0.1 0.0090012966    1.8659582  0.029897838 
number of iterations: 1486 
    4100    24.442423      188           76          112 7.9173647e-14 9.8571458e-15          0.1 0.0090013138    1.9260769   0.02989781 
number of iterations: 1489 
    4200    24.625469      188           76          112 8.0222873e-14 9.8802416e-15          0.1 0.0090013312    1.9869852  0.029897781 
number of iterations: 1491 
    4300    24.799314      188           76          112 8.1286003e-14 9.9040174e-15          0.1 0.0090013488    2.0486939  0.029897751 
number of iterations: 1494 
    4400    24.990228      188           76          112 8.2363223e-14 9.9284722e-15          0.1 0.0090013667    2.1112137  0.029897722 
number of iterations: 1501 
    4500    25.175079      188           76          112 8.3454717e-14 9.9536042e-15          0.1 0.0090013848    2.1745554  0.029897691 
number of iterations: 1500 
    4600    25.352145      188           76          112 8.4560676e-14 9.9794135e-15          0.1 0.0090014031    2.2387303  0.029897661 
number of iterations: 1468 
    4700    25.567648      188           76          112 8.5681292e-14  1.00059e-14          0.1 0.0090014181    2.3037497  0.029897636 
number of iterations: 1606 
    4800    25.766845      189           77          112 8.6816759e-14 1.0033062e-14          0.1 0.0090014393    2.3696251    0.0298976 
number of iterations: 1481 
    4900    25.976929      191           79          112 8.7967272e-14 1.0060901e-14          0.1 0.0090014555    2.4363679  0.029897573 
number of iterations: 1509 
    5000    26.217934      191           79          112 8.9133033e-14 1.0089415e-14          0.1 0.0090014748      2.50399  0.029897541 
number of iterations: 1534 
    5100    26.416934      195           82          113 9.0314242e-14 1.0118604e-14          0.1 0.0090014944     2.572503  0.029897509 
number of iterations: 1482 
    5200    26.588009      197           84          113 9.1511105e-14 1.0148468e-14          0.1 0.0090015087    2.6419192  0.029897485 
number of iterations: 1516 
    5300    26.770375      197           84          113 9.272383e-14 1.0179008e-14          0.1 0.0090015287    2.7122505  0.029897451 
number of iterations: 1518 
    5400    26.970346      198           85          113 9.3952625e-14 1.0210224e-14          0.1  0.009001549    2.7835093  0.029897418 
number of iterations: 1512 
    5500    27.161488      199           86          113 9.5197705e-14 1.0242115e-14          0.1 0.0090015681     2.855708  0.029897386 
number of iterations: 1527 
    5600     27.35091      203           90          113 9.6459284e-14 1.0274681e-14          0.1 0.0090015866    2.9288595  0.029897355 
number of iterations: 1603 
    5700     27.53493      206           93          113 9.7737583e-14 1.0307923e-14          0.1 0.0090016095    3.0029766  0.029897317 
number of iterations: 1528 
    5800    27.705501      208           95          113 9.9032822e-14 1.0341843e-14          0.1 0.0090016308    3.0780726  0.029897281 
number of iterations: 1548 
    5900    27.894463      210           97          113 1.0034523e-13 1.0376439e-14          0.1 0.0090016463      3.15416  0.029897255 
number of iterations: 1710 
    6000     28.10523      213          100          113 1.0167502e-13 1.0411712e-14          0.1 0.0090016747    3.2312527  0.029897208 
number of iterations: 1536 
    6100    28.318003      213          100          113 1.0302244e-13 1.0447664e-14          0.1 0.0090016969    3.3093639  0.029897171 
number of iterations: 1577 
    6200    28.510808      215          101          114 1.0438771e-13 1.0484296e-14          0.1 0.0090017193    3.3885074  0.029897134 
number of iterations: 1560 
    6300    28.704042      216          102          114 1.0577108e-13 1.0521607e-14          0.1  0.009001741    3.4686969  0.029897097 
number of iterations: 1544 
    6400    28.878442      217          103          114 1.0717278e-13  1.05596e-14          0.1  0.009001764    3.5499464  0.029897059 
number of iterations: 1558 
    6500    29.063023      220          105          115 1.0859306e-13 1.0598274e-14          0.1 0.0090017874    3.6322701   0.02989702 
number of iterations: 1541 
    6600    29.249521      223          108          115 1.1003215e-13 1.0637632e-14          0.1 0.0090018111    3.7156826  0.029896981 
number of iterations: 1554 
    6700    29.427751      225          110          115 1.1149032e-13 1.0677674e-14          0.1 0.0090018351    3.8001985   0.02989694 
number of iterations: 1719 
    6800    29.620336      228          113          115 1.1296782e-13 1.0718402e-14          0.1 0.0090018699    3.8858331  0.029896882 
number of iterations: 1573 
    6900    29.814819      232          117          115 1.1446489e-13 1.0759818e-14          0.1 0.0090018937    3.9726008  0.029896843 
number of iterations: 1712 
    7000    30.001055      237          122          115 1.159818e-13 1.0801924e-14          0.1 0.0090019236    4.0605176  0.029896793 
number of iterations: 1581 
    7100     30.28089      237          122          115 1.1751882e-13 1.0844719e-14          0.1 0.0090019491    4.1495981   0.02989675 
number of iterations: 1567 
    7200     30.45923      240          124          116 1.190762e-13 1.0888206e-14          0.1 0.0090019683    4.2398581  0.029896718 
number of iterations: 1602 
    7300    30.664889      245          128          117 1.2065422e-13 1.0932386e-14          0.1 0.0090019978    4.3313131  0.029896669 
number of iterations: 1575 
    7400    30.852262      247          129          118 1.2225316e-13 1.0977262e-14          0.1 0.0090020243    4.4239794  0.029896625 
number of iterations: 1578 
    7500    31.033724      247          129          118 1.2387328e-13 1.1022835e-14          0.1 0.0090020511    4.5178731   0.02989658 
number of iterations: 1581 
    7600    31.221933      249          131          118 1.2551487e-13 1.1069106e-14          0.1 0.0090020783    4.6130106  0.029896535 
number of iterations: 1596 
    7700    31.397768      251          133          118 1.2717822e-13 1.1116078e-14          0.1 0.0090021058    4.7094087  0.029896489 
number of iterations: 1580 
    7800    31.584929      252          134          118 1.2886361e-13 1.1163754e-14          0.1 0.0090021325    4.8070841  0.029896445 
number of iterations: 1664 
    7900    31.776649      253          135          118 1.3057134e-13 1.1212135e-14          0.1 0.0090021631     4.906054  0.029896394 
number of iterations: 1593 
    8000    31.976999      255          136          119 1.323017e-13 1.1261224e-14          0.1 0.0090021918    5.0063357  0.029896346 
number of iterations: 1590 
    8100    32.164284      256          137          119 1.3405499e-13 1.1311022e-14          0.1 0.0090022168    5.1079465  0.029896304 
number of iterations: 1635 
    8200    32.358848      258          139          119 1.3583151e-13 1.1361533e-14          0.1 0.0090022474    5.2109042  0.029896253 
number of iterations: 1622 
    8300    32.572341      259          139          120 1.3763158e-13 1.1412759e-14          0.1 0.0090022771     5.315227  0.029896204 
number of iterations: 1609 
    8400    32.772969      262          142          120 1.394555e-13 1.1464701e-14          0.1 0.0090023073    5.4209331  0.029896153 
number of iterations: 1607 
    8500     32.94238      264          142          122 1.4130359e-13 1.1517363e-14          0.1 0.0090023379    5.5280411  0.029896102 
number of iterations: 1610 
    8600    33.120509      265          143          122 1.4317617e-13 1.1570748e-14          0.1 0.0090023689    5.6365697  0.029896051 
number of iterations: 1616 
    8700    33.334439      268          146          122 1.4507357e-13 1.1624857e-14          0.1 0.0090023969    5.7465381  0.029896004 
number of iterations: 1619 
    8800    33.568592      269          147          122 1.4699612e-13 1.1679695e-14          0.1 0.0090024286    5.8579653  0.029895951 
number of iterations: 1630 
    8900    33.771341      271          149          122 1.4894414e-13 1.1735264e-14          0.1 0.0090024608    5.9708712  0.029895897 
number of iterations: 1621 
    9000    33.952308      271          149          122 1.5091798e-13 1.1791567e-14          0.1 0.0090024934    6.0852752  0.029895843 
number of iterations: 1728 
    9100     34.14914      273          150          123 1.5291797e-13 1.1848607e-14          0.1 0.0090025317    6.2011972  0.029895779 
number of iterations: 1628 
    9200    34.347668      275          151          124 1.5494447e-13 1.1906386e-14          0.1 0.0090025652    6.3186577  0.029895723 
number of iterations: 1632 
    9300    34.539645      275          151          124 1.5699783e-13 1.1964908e-14          0.1 0.0090025992     6.437677  0.029895667 
number of iterations: 1634 
    9400    34.732109      275          151          124 1.5907839e-13 1.2024176e-14          0.1 0.0090026337     6.558276  0.029895609 
number of iterations: 1654 
    9500    34.913915      276          152          124 1.6118653e-13 1.2084195e-14          0.1  0.009002673    6.6804759  0.029895544 
number of iterations: 1622 
    9600    35.087951      280          156          124 1.6332261e-13 1.2144966e-14          0.1 0.0090027026    6.8042977  0.029895494 
number of iterations: 1642 
    9700    35.285926      281          157          124 1.6548699e-13 1.2206494e-14          0.1 0.0090027396    6.9297633  0.029895433 
number of iterations: 1665 
    9800    35.469431      284          159          125 1.6768005e-13 1.2268782e-14          0.1 0.0090027759    7.0568945  0.029895372 
number of iterations: 1637 
    9900    35.657209      287          160          127 1.6990218e-13 1.2331833e-14          0.1 0.0090028073    7.1857136   0.02989532 
number of iterations: 1639 
   10000    35.849776      287          160          127 1.7215376e-13 1.2395653e-14          0.1 0.0090028446    7.3162433  0.029895258 
number of iterations: 1764 
   10100    36.046319      290          162          128 1.7443518e-13 1.2460243e-14          0.1 0.0090028815    7.4485063  0.029895196 
number of iterations: 1655 
   10200    36.228257      292          164          128 1.7674682e-13 1.2525608e-14          0.1 0.0090029197    7.5825259  0.029895133 
number of iterations: 1664 
   10300    36.407816      294          166          128 1.7908911e-13 1.2591751e-14          0.1 0.0090029584    7.7183254  0.029895068 
number of iterations: 1667 
   10400    36.580002      300          171          129 1.8146243e-13 1.2658676e-14          0.1 0.0090030025    7.8559284  0.029894995 
number of iterations: 1744 
   10500    36.772028      305          176          129 1.8386721e-13 1.2726389e-14          0.1 0.0090030485    7.9953587  0.029894918 
number of iterations: 1720 
   10600    36.968465      312          181          131 1.8630385e-13 1.2794891e-14          0.1 0.0090030903     8.136641  0.029894848 
number of iterations: 1675 
   10700    37.230299      315          182          133 1.8877278e-13 1.286419e-14          0.1 0.0090031337    8.2798003  0.029894776 
number of iterations: 1695 
   10800    37.439917      319          186          133 1.9127444e-13 1.2934287e-14          0.1 0.0090031673    8.4248613   0.02989472 
number of iterations: 1688 
   10900    37.624625      320          187          133 1.9380924e-13 1.3005187e-14          0.1 0.0090032108    8.5718495  0.029894647 
number of iterations: 1682 
   11000    37.823418      322          189          133 1.9637764e-13 1.3076895e-14          0.1 0.0090032534    8.7207902  0.029894577 
number of iterations: 1676 
   11100    38.026364      325          192          133 1.9898007e-13 1.3149415e-14          0.1 0.0090032965    8.8717097  0.029894505 
number of iterations: 1690 
   11200    38.208559      331          195          136 2.0161699e-13 1.3222751e-14          0.1 0.0090033317    9.0246343  0.029894446 
number of iterations: 1687 
   11300    38.396927      331          195          136 2.0428886e-13 1.3296907e-14          0.1 0.0090033759    9.1795909  0.029894372 
number of iterations: 1713 
   11400    38.612803      335          199          136 2.0699613e-13 1.337189e-14          0.1 0.0090034207    9.3366061  0.029894298 
number of iterations: 1706 
   11500    38.794216      340          203          137 2.0973929e-13 1.3447702e-14          0.1 0.0090034629    9.4957077  0.029894227 
number of iterations: 1692 
   11600    38.979903      344          206          138 2.1251879e-13 1.3524349e-14          0.1 0.0090035088    9.6569236  0.029894151 
number of iterations: 1699 
   11700    39.161808      348          210          138 2.1533513e-13 1.3601834e-14          0.1 0.0090035513    9.8202813   0.02989408 
number of iterations: 1780 
   11800    39.362534      349          211          138 2.1818879e-13 1.3680164e-14          0.1 0.0090036029      9.98581  0.029893994 
number of iterations: 1745 
   11900    39.550327      354          216          138 2.2108027e-13 1.3759344e-14          0.1 0.0090036556    10.153539  0.029893906 
number of iterations: 1698 
   12000    39.739619      359          220          139 2.2401007e-13 1.3839378e-14          0.1 0.0090037002    10.323496  0.029893832 
number of iterations: 1702 
   12100    39.939394      365          224          141 2.2697869e-13 1.3920271e-14          0.1  0.009003742    10.495713  0.029893762 
number of iterations: 1681 
   12200    40.199063      368          226          142 2.2998665e-13 1.4002029e-14          0.1 0.0090037853    10.670218   0.02989369 
number of iterations: 1775 
   12300    40.410383      376          234          142 2.3303448e-13 1.4084655e-14          0.1 0.0090038366    10.847043  0.029893604 
number of iterations: 1717 
   12400    40.593939      380          237          143 2.361227e-13 1.4168157e-14          0.1 0.0090038833    11.026218  0.029893527 
number of iterations: 1757 
   12500    40.791924      387          240          147 2.3925184e-13 1.4252538e-14          0.1 0.0090039361    11.207775  0.029893439 
number of iterations: 1764 
   12600     40.97754      393          246          147 2.4242245e-13 1.4337804e-14          0.1 0.0090039817    11.391745  0.029893363 
number of iterations: 1719 
   12700    41.172768      401          253          148 2.4563507e-13 1.442396e-14          0.1 0.0090040233     11.57816  0.029893293 
number of iterations: 1759 
   12800    41.382353      405          257          148 2.4889028e-13 1.4511013e-14          0.1 0.0090040783    11.767054  0.029893202 
number of iterations: 1762 
   12900    41.581279      410          262          148 2.5218861e-13 1.4598969e-14          0.1 0.0090041345    11.958458  0.029893108 
number of iterations: 1748 
   13000     41.78094      415          266          149 2.5553066e-13 1.4687833e-14          0.1 0.0090041944    12.152406  0.029893008 
number of iterations: 1794 
   13100    42.014363      421          270          151  2.58917e-13 1.477761e-14          0.1 0.0090042617    12.348932  0.029892896 
number of iterations: 1740 
   13200    42.349959      426          273          153 2.6234822e-13 1.4868307e-14          0.1 0.0090043182     12.54807  0.029892802 
number of iterations: 1735 
   13300    42.555554      430          275          155 2.6582491e-13 1.4959928e-14          0.1 0.0090043735    12.749857   0.02989271 
number of iterations: 1747 
   13400    42.756015      435          276          159 2.6934767e-13 1.5052481e-14          0.1 0.0090044352    12.954326  0.029892607 
number of iterations: 1823 
   13500    42.982229      440          280          160 2.7291711e-13 1.5145971e-14          0.1 0.0090045033    13.161514  0.029892494 
number of iterations: 1747 
   13600    43.176022      442          280          162 2.7653386e-13 1.5240403e-14          0.1  0.009004563    13.371456  0.029892394 
number of iterations: 1756 
   13700    43.407445      445          282          163 2.8019853e-13 1.5335785e-14          0.1 0.0090046235     13.58419  0.029892293 
number of iterations: 1741 
   13800    43.613177      448          284          164 2.8391177e-13 1.5432122e-14          0.1 0.0090046817    13.799751  0.029892196 
number of iterations: 1771 
   13900    43.828493      450          285          165 2.8767422e-13 1.5529422e-14          0.1  0.009004745    14.018178  0.029892091 
number of iterations: 1763 
   14000     44.03362      452          286          166 2.9148653e-13 1.5627689e-14          0.1 0.0090048093     14.23951  0.029891984 
number of iterations: 1787 
   14100     44.26494      456          290          166 2.9534936e-13 1.5726932e-14          0.1  0.009004871    14.463785  0.029891881 
number of iterations: 1761 
   14200    44.462235      460          292          168 2.9926339e-13 1.5827154e-14          0.1 0.0090049325    14.691042  0.029891778 
number of iterations: 1780 
   14300    44.685126      466          296          170 3.0322928e-13 1.5928365e-14          0.1 0.0090049979     14.92132  0.029891669 
number of iterations: 1775 
   14400    44.871154      469          297          172 3.0724772e-13 1.603057e-14          0.1 0.0090050626    15.154661  0.029891562 
number of iterations: 1778 
   14500    45.070006      471          299          172 3.1131943e-13 1.6133775e-14          0.1 0.0090051332    15.391104  0.029891444 
number of iterations: 1827 
   14600    45.279441      479          304          175 3.1544508e-13 1.6237988e-14          0.1 0.0090052023     15.63069  0.029891329 
number of iterations: 1775 
   14700    45.487414      479          304          175 3.1962542e-13 1.6343216e-14          0.1 0.0090052595    15.873462  0.029891233 
number of iterations: 1786 
   14800    45.669048      485          305          180 3.2386115e-13 1.6449465e-14          0.1 0.0090053292    16.119462  0.029891117 
number of iterations: 1809 
   14900    45.882522      496          314          182 3.2815301e-13 1.6556743e-14          0.1 0.0090053977    16.368734  0.029891003 
number of iterations: 1808 
   15000     46.07607      504          321          183 3.3250175e-13 1.6665056e-14          0.1 0.0090054752    16.621321  0.029890874 
number of iterations: 1812 
   15100    46.293614      509          325          184 3.3690812e-13 1.6774413e-14          0.1 0.0090055461    16.877266  0.029890756 
number of iterations: 1804 
   15200    46.473913      515          329          186 3.4137289e-13 1.6884819e-14          0.1 0.0090056259    17.136614  0.029890623 
number of iterations: 1803 
   15300    46.669432      520          333          187 3.4589682e-13 1.6996282e-14          0.1 0.0090056957    17.399411  0.029890507 
number of iterations: 1805 
   15400    46.857644      525          337          188 3.504807e-13 1.710881e-14          0.1 0.0090057695    17.665702  0.029890384 
number of iterations: 1801 
   15500    47.047438      533          342          191 3.5512533e-13 1.7222409e-14          0.1 0.0090058364    17.935534  0.029890272 
number of iterations: 1853 
   15600    47.453208      542          349          193 3.5983151e-13 1.7337088e-14          0.1 0.0090059188    18.208954  0.029890135 
number of iterations: 1806 
   15700    47.649618      545          352          193 3.6460006e-13 1.7452853e-14          0.1 0.0090059973    18.486009  0.029890004 
number of iterations: 1890 
   15800    47.831308      551          356          195 3.694318e-13 1.7569714e-14          0.1  0.009006091    18.766748  0.029889848 
number of iterations: 1806 
   15900    48.034882      555          358          197 3.7432757e-13 1.7687677e-14          0.1 0.0090061655     19.05122  0.029889724 
number of iterations: 1822 
   16000    48.244884      559          362          197 3.7928823e-13 1.7806751e-14          0.1 0.0090062508    19.339474  0.029889582 
number of iterations: 1886 
   16100    48.486442      568          369          199 3.8431462e-13 1.7926942e-14          0.1 0.0090063437    19.631561  0.029889427 
number of iterations: 1824 
   16200    48.684409      573          372          201 3.8940762e-13 1.8048259e-14          0.1 0.0090064324    19.927531  0.029889279 
number of iterations: 1870 
   16300    48.906214      581          379          202 3.9456811e-13 1.8170711e-14          0.1 0.0090065251    20.227436  0.029889125 
number of iterations: 1857 
   16400    49.111353      588          385          203 3.9979699e-13 1.8294305e-14          0.1 0.0090066175    20.531331  0.029888971 
number of iterations: 1891 
   16500    49.330292      595          391          204 4.0509517e-13 1.8419049e-14          0.1 0.0090067094    20.839266  0.029888818 
number of iterations: 1839 
   16600    49.546435      603          397          206 4.1046355e-13 1.8544953e-14          0.1 0.0090067916    21.151295  0.029888681 
number of iterations: 1853 
   16700    49.777026      617          407          210 4.1590308e-13 1.8672024e-14          0.1 0.0090068795    21.467473  0.029888534 
number of iterations: 1922 
   16800    50.000028      627          417          210 4.214147e-13 1.880027e-14          0.1 0.0090069769    21.787854  0.029888372 
number of iterations: 1799 
   16900     50.23616      640          428          212 4.2699935e-13 1.8929701e-14          0.1  0.009007051    22.112495  0.029888248 
number of iterations: 1828 
   17000    50.453907      647          434          213 4.3265802e-13 1.9060325e-14          0.1 0.0090071264    22.441454  0.029888123 
number of iterations: 1854 
   17100    50.642072      652          439          213 4.3839167e-13 1.919215e-14          0.1 0.0090072148    22.774786  0.029887976 
number of iterations: 1876 
   17200    50.839787      659          445          214 4.442013e-13 1.9325185e-14          0.1 0.0090073172    23.112551  0.029887805 
number of iterations: 1872 
   17300    51.035083      664          449          215 4.5008793e-13 1.9459439e-14          0.1 0.0090074198    23.454806  0.029887634 
number of iterations: 1849 
   17400    51.230494      672          456          216 4.5605257e-13 1.9594922e-14          0.1 0.0090075083    23.801612  0.029887487 
number of iterations: 1841 
   17500    51.434418      678          462          216 4.6209625e-13 1.9731641e-14          0.1  0.009007603    24.153028  0.029887329 
number of iterations: 1920 
   17600    51.653285      685          468          217 4.6822002e-13 1.9869606e-14          0.1 0.0090077142    24.509117  0.029887144 
number of iterations: 1862 
   17700    51.867243      694          475          219 4.7442494e-13 2.0008826e-14          0.1 0.0090078121    24.869941   0.02988698 
number of iterations: 1849 
   17800    52.057382      702          481          221 4.8071209e-13 2.0149311e-14          0.1 0.0090078963    25.235562   0.02988684 
number of iterations: 1892 
   17900    52.352444      710          489          221 4.8708257e-13 2.029107e-14          0.1 0.0090079919    25.606044  0.029886681 
number of iterations: 1931 
   18000    52.601079      720          496          224 4.9353746e-13 2.0434112e-14          0.1 0.0090080999    25.981452  0.029886501 
number of iterations: 1855 
   18100     52.80762      728          504          224 5.0007789e-13 2.0578447e-14          0.1 0.0090081967    26.361851   0.02988634 
number of iterations: 1902 
   18200    53.016817      734          510          224  5.06705e-13 2.0724084e-14          0.1  0.009008311    26.747307  0.029886149 
number of iterations: 1925 
   18300    53.263877      745          519          226 5.1341993e-13 2.0871033e-14          0.1 0.0090084197    27.137888  0.029885968 
number of iterations: 1926 
   18400    53.516463      750          523          227 5.2022385e-13 2.1019304e-14          0.1 0.0090085303    27.533661  0.029885784 
number of iterations: 1875 
   18500    53.715348      756          528          228 5.2711793e-13 2.1168906e-14          0.1 0.0090086327    27.934696  0.029885613 
number of iterations: 1932 
   18600    53.941818      767          535          232 5.3410338e-13 2.131985e-14          0.1  0.009008751    28.341062  0.029885416 
number of iterations: 1849 
   18700    54.153107      775          542          233 5.411814e-13 2.1472147e-14          0.1 0.0090088577    28.752832  0.029885238 
number of iterations: 1944 
   18800    54.363614      781          547          234 5.4835321e-13 2.1625805e-14          0.1 0.0090089725    29.170076  0.029885047 
number of iterations: 1870 
   18900    54.581321      788          554          234 5.5562007e-13 2.1780835e-14          0.1 0.0090090862    29.592867  0.029884858 
number of iterations: 1908 
   19000    54.804222      792          557          235 5.6298323e-13 2.1937249e-14          0.1 0.0090092066     30.02128  0.029884657 
number of iterations: 1922 
   19100    55.001453      802          567          235 5.7044396e-13 2.2095056e-14          0.1 0.0090093321    30.455388  0.029884448 
number of iterations: 1928 
   19200    55.203031      812          576          236 5.7800357e-13 2.2254266e-14          0.1 0.0090094627    30.895267   0.02988423 
number of iterations: 1922 
   19300    55.416305      822          586          236 5.8566336e-13 2.2414891e-14          0.1 0.0090095902    31.340994  0.029884018 
number of iterations: 1944 
   19400    55.649625      826          590          236 5.9342465e-13 2.2576941e-14          0.1 0.0090097158    31.792647  0.029883809 
number of iterations: 1898 
   19500    55.883937      832          593          239 6.012888e-13 2.2740427e-14          0.1 0.0090098252    32.250304  0.029883627 
number of iterations: 1927 
   19600    56.084801      846          604          242 6.0925716e-13 2.2905359e-14          0.1 0.0090099483    32.714044  0.029883421 
number of iterations: 1947 
   19700    56.305125      855          611          244 6.1733112e-13 2.307175e-14          0.1 0.0090100877     33.18395  0.029883189 
number of iterations: 1945 
   19800    56.524314      862          617          245 6.2551208e-13 2.323961e-14          0.1  0.009010225    33.660104   0.02988296 
number of iterations: 1950 
   19900    56.788411      873          626          247 6.3380146e-13 2.340895e-14          0.1  0.009010363    34.142589   0.02988273 
number of iterations: 1945 
   20000    57.016662      880          632          248 6.4220068e-13 2.3579782e-14          0.1 0.0090105104    34.631488  0.029882485 
number of iterations: 1948 
   20100    57.348988      885          637          248 6.5071121e-13 2.3752117e-14          0.1 0.0090106596    35.126886  0.029882236 
number of iterations: 1917 
   20200    57.567599      893          644          249 6.5933452e-13 2.3925966e-14          0.1 0.0090108007     35.62887  0.029882001 
number of iterations: 1945 
   20300    57.764926      901          651          250 6.6807212e-13 2.4101342e-14          0.1 0.0090109503    36.137526  0.029881752 
number of iterations: 1940 
   20400    57.977579      910          659          251 6.769255e-13 2.4278255e-14          0.1 0.0090110906    36.652944  0.029881518 
number of iterations: 1958 
   20500    58.201165      919          667          252 6.858962e-13 2.4456717e-14          0.1 0.0090112296    37.175214  0.029881287 
number of iterations: 1973 
   20600    58.419393      931          679          252 6.9498579e-13 2.4636741e-14          0.1 0.0090113895    37.704425   0.02988102 
number of iterations: 1962 
   20700    58.626683      940          687          253 7.0419583e-13 2.4818338e-14          0.1 0.0090115356    38.240672  0.029880777 
number of iterations: 1982 
   20800    58.832836      953          698          255 7.1352793e-13 2.5001521e-14          0.1    0.0090117    38.784047  0.029880503 
number of iterations: 1966 
   20900    59.057523      962          704          258 7.2298369e-13 2.5186302e-14          0.1 0.0090118568    39.334646  0.029880242 
number of iterations: 1947 
   21000    59.261712      972          713          259 7.3256477e-13 2.5372692e-14          0.1 0.0090120115    39.892563  0.029879984 
number of iterations: 1996 
   21100    59.462941      983          722          261 7.4227281e-13 2.5560706e-14          0.1 0.0090121715    40.457896  0.029879718 
number of iterations: 1976 
   21200    59.667033      994          733          261 7.521095e-13 2.5750354e-14          0.1 0.0090123364    41.030744  0.029879443 
number of iterations: 1973 
   21300    59.879651     1003          742          261 7.6207655e-13 2.594165e-14          0.1 0.0090124924    41.611206  0.029879183 
number of iterations: 1978 
   21400    60.113997     1024          758          266 7.7217568e-13 2.6134607e-14          0.1 0.0090126514    42.199383  0.029878918 
number of iterations: 2005 
   21500    60.352093     1037          769          268 7.8240865e-13 2.6329237e-14          0.1 0.0090128352    42.795378  0.029878612 
number of iterations: 1996 
   21600    60.583186     1052          781          271 7.9277722e-13 2.6525553e-14          0.1 0.0090130128    43.399294  0.029878316 
number of iterations: 2002 
   21700    60.800724     1064          791          273 8.032832e-13 2.6723569e-14          0.1 0.0090131866    44.011237  0.029878027 
number of iterations: 1975 
   21800    61.029951     1072          799          273 8.1283639e-13 2.6923297e-14          0.1 0.0090133329    44.630479  0.029877783 
number of iterations: 1987 
   21900    61.237762     1085          811          274 8.2360819e-13 2.712475e-14          0.1 0.0090134953    45.257952  0.029877512 
number of iterations: 2057 
   22000    61.447621     1101          825          276 8.3452275e-13 2.7327943e-14          0.1 0.0090136792    45.893764  0.029877206 
number of iterations: 2043 
   22100    61.671117     1114          836          278 8.4558194e-13 2.7532888e-14          0.1 0.0090138721    46.538029  0.029876885 
number of iterations: 1995 
   22200    61.894176     1126          844          282 8.5678769e-13  2.77396e-14          0.1 0.0090140544    47.190856  0.029876581 
number of iterations: 1983 
   22300    62.091161     1143          858          285 8.6814194e-13 2.7948091e-14          0.1 0.0090142307    47.852359  0.029876287 
number of iterations: 1993 
   22400    62.430808     1160          871          289 8.7964665e-13 2.8158377e-14          0.1 0.0090144071    48.522654  0.029875993 
number of iterations: 2008 
   22500    62.637279     1174          883          291 8.9130383e-13 2.8370471e-14          0.1 0.0090145835    49.201859    0.0298757 
number of iterations: 1997 
   22600    62.853555     1189          894          295 9.0311548e-13 2.8584388e-14          0.1 0.0090147659    49.890089  0.029875396 
number of iterations: 2025 
   22700    63.082445     1209          910          299 9.1508367e-13 2.880014e-14          0.1 0.0090149614    50.587465   0.02987507 
number of iterations: 2034 
   22800    63.340669     1228          925          303 9.2721046e-13 2.9017744e-14          0.1 0.0090151825    51.294107  0.029874702 
number of iterations: 2015 
   22900    63.555919     1240          931          309 9.3949795e-13 2.9237214e-14          0.1  0.009015395     52.01014  0.029874348 
number of iterations: 2030 
   23000    63.782337     1253          940          313 9.5194828e-13 2.9458563e-14          0.1 0.0090156047    52.735689  0.029873999 
number of iterations: 2003 
   23100    63.997396     1265          949          316 9.6456359e-13 2.9681807e-14          0.1 0.0090158009     53.47088  0.029873672 
number of iterations: 2025 
   23200    64.212725     1285          964          321 9.7734609e-13 2.9906961e-14          0.1 0.0090159846    54.215844  0.029873366 
number of iterations: 2001 
   23300    64.424783     1298          975          323 9.9029798e-13 3.0134039e-14          0.1 0.0090161729    54.970709  0.029873052 
number of iterations: 2048 
   23400    64.646968     1311          985          326 1.0034215e-12 3.0363057e-14          0.1  0.009016388    55.735605  0.029872694 
number of iterations: 2034 
   23500    64.877518     1330         1003          327 1.016719e-12 3.059403e-14          0.1 0.0090165996    56.510666  0.029872341 
number of iterations: 2050 
   23600    65.092871     1353         1022          331 1.0301926e-12 3.0826974e-14          0.1 0.0090168342    57.296026   0.02987195 
number of iterations: 2060 
   23700    65.340668     1374         1040          334 1.0438448e-12 3.1061904e-14          0.1 0.0090170643    58.091822  0.029871567 
number of iterations: 2022 
   23800    65.573846     1392         1051          341 1.057678e-12 3.1298836e-14          0.1 0.0090172742    58.898194  0.029871217 
number of iterations: 2047 
   23900     65.80752     1413         1070          343 1.0716944e-12 3.1537785e-14          0.1 0.0090174985    59.715282  0.029870844 
number of iterations: 2055 
   24000    66.012751     1427         1081          346 1.0858966e-12 3.1778767e-14          0.1 0.0090177301    60.543229  0.029870458 
number of iterations: 2053 
   24100    66.227803     1449         1101          348 1.100287e-12 3.2021799e-14          0.1 0.0090179631    61.382176   0.02987007 
number of iterations: 2043 
   24200    66.459521     1473         1120          353 1.1148681e-12 3.2266897e-14          0.1 0.0090181838    62.232272  0.029869702 
number of iterations: 2078 
   24300    66.684469     1493         1136          357 1.1296424e-12 3.2514077e-14          0.1 0.0090184341    63.093664  0.029869285 
number of iterations: 2081 
   24400    66.917126     1508         1147          361 1.1446125e-12 3.2763355e-14          0.1 0.0090186826    63.966502  0.029868871 
number of iterations: 2091 
   24500    67.138906     1523         1158          365 1.1597811e-12 3.3014748e-14          0.1 0.0090189279    64.850938  0.029868463 
number of iterations: 2087 
   24600    67.518663     1539         1174          365 1.1751506e-12 3.3268272e-14          0.1 0.0090191774    65.747124  0.029868047 
number of iterations: 2064 
   24700      67.7786     1551         1183          368 1.1907238e-12 3.3523946e-14          0.1 0.0090193851    66.655218  0.029867701 
number of iterations: 2100 
   24800    68.022389     1574         1201          373 1.2065033e-12 3.3781785e-14          0.1 0.0090196692    67.575376  0.029867228 
number of iterations: 2081 
   24900    68.265653     1587         1211          376 1.222492e-12 3.4041807e-14          0.1 0.0090199192    68.507759  0.029866811 
number of iterations: 2062 
   25000    68.492394     1601         1220          381 1.2386926e-12 3.4304029e-14          0.1 0.0090201718    69.452529   0.02986639 
number of iterations: 2103 
   25100    68.705679     1617         1233          384 1.2551078e-12 3.4568469e-14          0.1 0.0090204462    70.409852  0.029865933 
number of iterations: 2101 
   25200     68.94105     1634         1248          386 1.2717406e-12 3.4835144e-14          0.1 0.0090207387    71.379893  0.029865446 
number of iterations: 2113 
   25300    69.175714     1653         1264          389 1.2885938e-12 3.5104073e-14          0.1 0.0090210366    72.362821   0.02986495 
number of iterations: 2107 
   25400     69.39485     1669         1276          393 1.3056703e-12 3.5375272e-14          0.1 0.0090213181    73.358808  0.029864481 
number of iterations: 2112 
   25500     69.62882     1689         1294          395 1.3229732e-12 3.564876e-14          0.1 0.0090215819     74.36803  0.029864042 
number of iterations: 2099 
   25600    69.847371     1707         1310          397 1.3405053e-12 3.5924556e-14          0.1 0.0090218876    75.390663  0.029863532 
number of iterations: 2119 
   25700    70.087078     1723         1321          402 1.3569177e-12 3.6202677e-14          0.1 0.0090221621    76.425849  0.029863075 
number of iterations: 2124 
   25800    70.316775     1743         1340          403 1.3748997e-12 3.6483142e-14          0.1 0.0090224483    77.474789  0.029862599 
number of iterations: 2096 
   25900    70.569996     1769         1364          405 1.3931199e-12 3.6765969e-14          0.1 0.0090227339    78.537665  0.029862123 
number of iterations: 2100 
   26000    70.785818     1790         1383          407 1.4115817e-12 3.7051178e-14          0.1 0.0090229911     79.61466  0.029861694 
number of iterations: 2144 
   26100    71.028092     1802         1393          409 1.430288e-12 3.7338789e-14          0.1 0.0090233138    80.705964  0.029861157 
number of iterations: 2099 
   26200    71.256666     1830         1418          412 1.4492423e-12 3.7628819e-14          0.1 0.0090236203    81.811766  0.029860646 
number of iterations: 2127 
   26300    71.506932     1858         1445          413 1.4684477e-12 3.7921288e-14          0.1 0.0090239407    82.932259  0.029860112 
number of iterations: 2127 
   26400     71.75904     1883         1467          416 1.4879077e-12 3.8216215e-14          0.1 0.0090242578    84.067639  0.029859584 
number of iterations: 2119 
   26500    71.998742     1901         1482          419 1.5076255e-12 3.8513621e-14          0.1 0.0090245701    85.218102  0.029859064 
number of iterations: 2115 
   26600    72.482694     1924         1503          421 1.5276046e-12 3.8813524e-14          0.1  0.009024869     86.38385  0.029858566 
number of iterations: 2165 
   26700    72.724875     1949         1522          427 1.5478485e-12 3.9115945e-14          0.1 0.0090252176    87.565083  0.029857985 
number of iterations: 2096 
   26800    72.956001     1971         1541          430 1.5683607e-12 3.9420903e-14          0.1 0.0090255125    88.762008  0.029857494 
number of iterations: 2161 
   26900    73.210377     2002         1568          434 1.5891447e-12 3.9728419e-14          0.1 0.0090258733    89.974833  0.029856893 
number of iterations: 2131 
   27000    73.486222     2018         1584          434 1.6102041e-12 4.0038514e-14          0.1 0.0090261978    91.203769  0.029856353 
number of iterations: 2142 
   27100    73.763268     2037         1598          439 1.6315426e-12 4.0351208e-14          0.1 0.0090265282    92.449032  0.029855802 
number of iterations: 2158 
   27200    74.016768     2059         1619          440 1.6531639e-12 4.0666522e-14          0.1 0.0090268882    93.710838  0.029855203 
number of iterations: 2152 
   27300    74.234317     2078         1637          441 1.6750716e-12 4.0984477e-14          0.1 0.0090272114    94.989405  0.029854664 
number of iterations: 2138 
   27400    74.467513     2105         1659          446 1.6961094e-12 4.1305094e-14          0.1 0.0090275569    96.284068  0.029854089 
number of iterations: 2171 
   27500    74.715869     2126         1676          450 1.7185863e-12 4.1628394e-14          0.1 0.0090279156    97.595929  0.029853491 
number of iterations: 2173 
   27600     74.95308     2150         1698          452 1.741361e-12 4.1954399e-14          0.1 0.0090282647    98.925214   0.02985291 
number of iterations: 2127 
   27700    75.197797     2181         1728          453 1.7644376e-12 4.2283131e-14          0.1 0.0090286154    100.27216  0.029852326 
number of iterations: 2152 
   27800    75.439934     2222         1768          454  1.78782e-12 4.261461e-14          0.1 0.0090289753    101.63699  0.029851726 
number of iterations: 2185 
   27900    75.682985     2242         1785          457 1.8101017e-12 4.294886e-14          0.1 0.0090293616    103.01888  0.029851083 
number of iterations: 2164 
   28000    75.911554     2265         1804          461 1.8340893e-12 4.3285902e-14          0.1 0.0090297451    104.41912  0.029850444 
number of iterations: 2187 
   28100    76.188345     2300         1833          467 1.8583946e-12 4.3625759e-14          0.1 0.0090301451    105.83795  0.029849778 
number of iterations: 2160 
   28200    76.432003     2328         1855          473 1.8830221e-12 4.3968453e-14          0.1  0.009030539    107.27563  0.029849122 
number of iterations: 2208 
   28300    76.658941     2360         1884          476 1.907976e-12 4.4314008e-14          0.1 0.0090309787    108.73241  0.029848389 
number of iterations: 2173 
   28400     76.90707     2387         1910          477 1.932039e-12 4.4662445e-14          0.1 0.0090313734    110.20761  0.029847732 
number of iterations: 2198 
   28500    77.142227     2407         1928          479 1.9576424e-12 4.5013789e-14          0.1 0.0090317716     111.7024  0.029847068 
number of iterations: 2182 
   28600    77.512627     2441         1959          482 1.9835851e-12 4.5368063e-14          0.1 0.0090321546    113.21703  0.029846431 
number of iterations: 2214 
   28700    77.755851     2477         1993          484 2.0098715e-12 4.5725289e-14          0.1 0.0090326242    114.75179  0.029845648 
number of iterations: 2184 
   28800    78.003258     2517         2030          487 2.0354074e-12 4.6085492e-14          0.1 0.0090329893    116.30609   0.02984504 
number of iterations: 2195 
   28900    78.387657     2543         2054          489 2.0623806e-12 4.6448696e-14          0.1 0.0090334596    117.88104  0.029844257 
number of iterations: 2170 
   29000    78.634898     2565         2072          493 2.0897113e-12 4.6814925e-14          0.1 0.0090338767     119.4769  0.029843562 
number of iterations: 2192 
   29100    78.876837     2586         2091          495 2.1174042e-12 4.7184203e-14          0.1 0.0090343163    121.09395   0.02984283 
number of iterations: 2223 
   29200    79.124328     2618         2121          497 2.145464e-12 4.7556556e-14          0.1 0.0090347658    122.73248  0.029842081 
number of iterations: 2224 
   29300    79.380086     2654         2154          500 2.1738957e-12 4.7932007e-14          0.1 0.0090352642    124.39277  0.029841251 
number of iterations: 2191 
   29400    79.627428     2683         2182          501 2.2027041e-12 4.8310581e-14          0.1 0.0090357224    126.07511  0.029840488 
number of iterations: 2180 
   29500    79.864507     2714         2210          504 2.2318943e-12 4.8692305e-14          0.1 0.0090361506     127.7798  0.029839775 
number of iterations: 2211 
   29600    80.175687     2747         2240          507 2.2614714e-12 4.9077203e-14          0.1  0.009036615    129.50712  0.029839001 
number of iterations: 2205 
   29700    80.447589     2778         2266          512 2.2914404e-12 4.9465301e-14          0.1 0.0090371022    131.25738   0.02983819 
number of iterations: 2221 
   29800    80.697703     2809         2295          514 2.318021e-12 4.9856624e-14          0.1 0.0090375362    133.02798  0.029837467 
number of iterations: 2266 
   29900    80.949989     2839         2320          519 2.3487394e-12 5.0251199e-14          0.1 0.0090380214    134.82209  0.029836659 
number of iterations: 2218 
   30000    81.196662     2874         2352          522 2.3798649e-12 5.0649051e-14          0.1 0.0090385124    136.64004  0.029835841 
number of iterations: 2205 
   30100    81.442529     2901         2379          522 2.4101061e-12 5.1050207e-14          0.1 0.0090389739    138.48113  0.029835072 
number of iterations: 2204 
   30200    81.702757     2934         2406          528 2.4420448e-12 5.1454693e-14          0.1 0.0090394773    140.34667  0.029834233 
number of iterations: 2233 
   30300    81.955127     2972         2436          536 2.4744067e-12 5.1862537e-14          0.1 0.0090400002    142.23699  0.029833362 
number of iterations: 2254 
   30400    82.243232     3009         2467          542 2.5071974e-12 5.2273766e-14          0.1 0.0090405418    144.15241   0.02983246 
number of iterations: 2247 
   30500    82.609669     3058         2509          549 2.5404227e-12 5.2688408e-14          0.1 0.0090410809    146.09326  0.029831562 
number of iterations: 2252 
   30600    82.854053     3094         2542          552 2.5740883e-12 5.3106488e-14          0.1 0.0090416612    148.05988  0.029830596 
number of iterations: 2252 
   30700    83.110024     3126         2567          559   2.6082e-12 5.3528036e-14          0.1 0.0090422528    150.05262  0.029829611 
number of iterations: 2254 
   30800    83.435776     3169         2602          567 2.6427638e-12 5.3953079e-14          0.1 0.0090428219    152.07183  0.029828663 
number of iterations: 2274 
   30900    83.705649     3221         2649          572 2.6777856e-12 5.4381645e-14          0.1 0.0090434312    154.11784  0.029827648 
number of iterations: 2256 
   31000    83.954123     3262         2684          578 2.7132715e-12 5.4813763e-14          0.1 0.0090440134    156.19103  0.029826678 
number of iterations: 2221 
   31100    84.213004     3309         2724          585 2.748126e-12 5.5249462e-14          0.1 0.0090445267     158.2909  0.029825823 
number of iterations: 2286 
   31200    84.477249     3337         2749          588 2.7832407e-12 5.568877e-14          0.1 0.0090451025    160.41765  0.029824864 
number of iterations: 2270 
   31300     84.85375     3376         2782          594 2.8201241e-12 5.6131717e-14          0.1 0.0090457104    162.57264  0.029823852 
number of iterations: 2239 
   31400     85.13261     3410         2807          603 2.8574962e-12 5.6578332e-14          0.1 0.0090462872    164.75625  0.029822891 
number of iterations: 2276 
   31500    85.387523     3453         2845          608 2.894428e-12 5.7028644e-14          0.1 0.0090468533    166.96814  0.029821948 
number of iterations: 2276 
   31600    85.640928     3495         2881          614 2.9327847e-12 5.7482685e-14          0.1  0.009047476     169.2094  0.029820911 
number of iterations: 2274 
   31700    85.920082     3549         2928          621 2.9716498e-12 5.7940484e-14          0.1 0.0090481106    171.48042  0.029819854 
number of iterations: 2321 
   31800    86.173829     3598         2967          631 3.0110299e-12 5.8402071e-14          0.1 0.0090487906     173.7816  0.029818721 
number of iterations: 2261 
   31900    86.441325     3631         2998          633 3.0452632e-12 5.8867476e-14          0.1 0.0090493333      176.109  0.029817817 
number of iterations: 2284 
   32000    86.708494     3667         3029          638 3.0841803e-12 5.9336732e-14          0.1 0.0090499657     178.4662  0.029816764 
number of iterations: 2304 
   32100    87.000994     3704         3061          643 3.1239019e-12 5.9809869e-14          0.1 0.0090506168    180.85381   0.02981568 
number of iterations: 2295 
   32200    87.468158     3740         3091          649 3.1634063e-12 6.0286918e-14          0.1 0.0090513544    183.27167  0.029814451 
number of iterations: 2262 
   32300     87.93086     3784         3133          651 3.2053275e-12 6.0767912e-14          0.1 0.0090520344    185.72164  0.029813319 
number of iterations: 2291 
   32400    88.196956     3824         3166          658 3.2458068e-12 6.1252882e-14          0.1 0.0090527106     188.2026  0.029812192 
number of iterations: 2307 
   32500     88.44483     3876         3212          664  3.28882e-12 6.1741859e-14          0.1 0.0090534043    190.71652  0.029811037 
number of iterations: 2316 
   32600    88.720128     3919         3250          669 3.3302606e-12 6.2234876e-14          0.1 0.0090541257    193.26216  0.029809835 
number of iterations: 2273 
   32700    88.973926     3965         3289          676 3.3708052e-12 6.2731966e-14          0.1 0.0090547268    195.83887  0.029808834 
number of iterations: 2323 
   32800    89.246891     4017         3337          680 3.4154748e-12 6.3233161e-14          0.1 0.0090554975    198.44978  0.029807551 
number of iterations: 2291 
   32900    89.526056     4083         3396          687 3.4607363e-12 6.3738497e-14          0.1 0.0090561721    201.09535  0.029806427 
number of iterations: 2300 
   33000    89.770974     4154         3461          693 3.5065976e-12 6.4248006e-14          0.1 0.0090568974    203.77605  0.029805219 
number of iterations: 2307 
   33100    90.059609     4204         3501          703 3.5530666e-12 6.4761722e-14          0.1 0.0090576057    206.49234  0.029804039 
number of iterations: 2320 
   33200    90.336745     4257         3548          709 3.5983381e-12 6.5279679e-14          0.1 0.0090583654     209.2433  0.029802774 
number of iterations: 2282 
   33300    90.609085     4301         3586          715 3.6448133e-12 6.5801912e-14          0.1 0.0090591053    212.02986  0.029801542 
number of iterations: 2309 
   33400    90.873727     4367         3645          722 3.693114e-12 6.6328455e-14          0.1 0.0090598623    214.85343  0.029800281 
number of iterations: 2345 
   33500     91.14427     4435         3707          728 3.7408236e-12 6.6859343e-14          0.1 0.0090606194    217.71354   0.02979902 
number of iterations: 2296 
   33600    91.412207     4492         3758          734 3.7903965e-12 6.739461e-14          0.1 0.0090613387    220.61163  0.029797822 
number of iterations: 2307 
   33700    91.676283     4551         3814          737 3.8384702e-12 6.7934292e-14          0.1 0.0090621015    223.54656  0.029796551 
number of iterations: 2319 
   33800    91.955606     4600         3857          743 3.8860401e-12 6.8478427e-14          0.1 0.0090629112    226.51794  0.029795203 
number of iterations: 2316 
   33900    92.218084     4646         3896          750 3.9328927e-12 6.902705e-14          0.1 0.0090636732    229.52521  0.029793933 
number of iterations: 2342 
   34000     92.76707     4698         3942          756 3.982615e-12 6.9580197e-14          0.1 0.0090644812    232.57056  0.029792588 
number of iterations: 2371 
   34100    93.056822     4749         3987          762 4.0353921e-12 7.0137907e-14          0.1 0.0090653909    235.65635  0.029791073 
number of iterations: 2355 
   34200    93.370678     4792         4026          766 4.0888685e-12 7.0700215e-14          0.1 0.0090663119    238.78311  0.029789539 
number of iterations: 2324 
   34300    93.637217     4844         4073          771 4.1430535e-12 7.1267158e-14          0.1 0.0090671245    241.95138  0.029788185 
number of iterations: 2351 
   34400    93.911715     4896         4121          775 4.1979566e-12 7.1838774e-14          0.1 0.0090680144    245.16172  0.029786703 
number of iterations: 2359 
   34500    94.173104     4964         4184          780 4.2535873e-12 7.2415102e-14          0.1 0.0090689217    248.41468  0.029785192 
number of iterations: 2373 
   34600    94.452819     5027         4238          789 4.3080872e-12 7.299618e-14          0.1  0.009069821     251.7094  0.029783694 
number of iterations: 2358 
   34700     94.71667     5094         4299          795 4.3608919e-12 7.3582045e-14          0.1 0.0090706637    255.04459  0.029782291 
number of iterations: 2384 
   34800    95.018741     5153         4353          800 4.4164008e-12 7.417274e-14          0.1 0.0090716899     258.4223  0.029780581 
number of iterations: 2356 
   34900    95.305025     5213         4409          804 4.4737495e-12  7.47683e-14          0.1 0.0090726363    261.84396  0.029779005 
number of iterations: 2358 
   35000     95.58726     5272         4460          812 4.5296045e-12 7.5368766e-14          0.1 0.0090735778    265.30842  0.029777437 
Loop time of 95.5873 on 32 procs for 35000 steps with 5272 atoms

Performance: 316359998.081 tau/day, 366.157 timesteps/s
92.1% CPU use with 32 MPI tasks x no OpenMP threads

MPI task timing breakdown:
Section |  min time  |  avg time  |  max time  |%varavg| %total
---------------------------------------------------------------
Pair    | 0.012698   | 0.076103   | 0.19473    |  17.4 |  0.08
Neigh   | 0.0049482  | 0.022576   | 0.054444   |   8.5 |  0.02
Comm    | 0.061386   | 0.17568    | 0.24893    |  11.7 |  0.18
Output  | 24.647     | 24.647     | 24.655     |   0.0 | 25.78
Modify  | 70.184     | 70.229     | 70.296     |   0.4 | 73.47
Other   |            | 0.4372     |            |       |  0.46

Nlocal:    164.75 ave 375 max 28 min
Histogram: 3 6 8 1 3 2 6 1 0 2
Nghost:    92.4375 ave 183 max 14 min
Histogram: 3 2 3 3 7 7 2 1 2 2
Neighs:    587.969 ave 1496 max 63 min
Histogram: 3 8 7 1 3 4 3 1 0 2

Total # of neighbors = 18815
Ave neighs/atom = 3.56885
Neighbor list builds = 666
Dangerous builds = 0
#shell cd ..
#clear
#next reps
#jump SELF
Total wall time: 0:01:35
