LAMMPS (20 Nov 2019)
Reading data file ...
  orthogonal box = (0 0 0) to (0.001 0.001 0.0001)
  2 by 3 by 1 MPI processor grid
  reading atoms ...
  2 atoms
  4 nutrients
Lattice spacing in x,y,z = 100 100 100
1 atoms in group CYANO
1 atoms in group ECW
Model is defined as a closed system. 
Neighbor list info ...
  update every 1 steps, delay 0 steps, check yes
  max neighbors/atom: 5000, page size: 100000
  master list distance cutoff = 1.89e-06
  ghost atom cutoff = 1.89e-06
  binsize = 9.45e-07, bins = 1059 1059 106
  1 neighbor lists, perpetual/occasional/extra = 1 0 0
  (1) pair gran/hooke/history, perpetual
      attributes: half, newton off, size, history
      pair build: half/size/bin/newtoff
      stencil: half/bin/3d/newtoff
      bin: standard
Setting up Verlet run ...
  Unit style    : lj
  Current step  : 0
  Time step     : 10
Per MPI rank memory allocation (min/avg/max) = 84.25 | 92.35 | 108.5 Mbytes
Step CPU Atoms c_myNtypes[1] c_myNtypes[2] c_myMass[1] c_myMass[2] c_myCon[1] c_myCon[2] c_myCon[3] c_myCon[4] 
       0            0        2            1            1 5.2028912e-16 1.3941014e-16          0.1        0.009     3.42e-20       0.0299 
number of iterations: 578271 
     100    4.1972338        3            1            2 5.2875963e-16 1.3941014e-16          0.1 0.0090000006 2.5517892e-08  0.029899999 
number of iterations: 265288 
     200     6.022028        3            1            2 5.3736803e-16 1.3941014e-16          0.1 0.0090000006 1.0528476e-07  0.029899999 
number of iterations: 172150 
     300     7.272542        3            1            2 5.4611658e-16 1.3941014e-16          0.1 0.0090000006 2.2972368e-07  0.029899999 
number of iterations: 147051 
     400    8.3110943        3            1            2 5.5500757e-16 1.3941014e-16          0.1 0.0090000007 3.7310557e-07  0.029899999 
number of iterations: 128029 
     500    9.3627526        3            1            2 5.640433e-16 1.3941014e-16          0.1 0.0090000007 5.3385592e-07  0.029899999 
number of iterations: 113012 
     600    10.384518        3            1            2 5.7322614e-16 1.3941014e-16          0.1 0.0090000007 7.1071426e-07  0.029899999 
number of iterations: 100777 
     700    11.165462        3            1            2 5.8255847e-16 1.3941014e-16          0.1 0.0090000007 9.0267431e-07  0.029899999 
number of iterations: 90557 
     800    11.883257        3            1            2 5.9204274e-16 1.3941014e-16          0.1 0.0090000007 1.1089308e-06  0.029899999 
number of iterations: 81845 
     900     12.61701        3            1            2 6.0168142e-16 1.3941015e-16          0.1 0.0090000007 1.3288392e-06  0.029899999 
number of iterations: 74300 
    1000    13.694735        3            1            2 6.1147702e-16 1.3941015e-16          0.1 0.0090000007 1.5618739e-06  0.029899999 
number of iterations: 67677 
    1100    14.220381        3            1            2 6.214321e-16 1.3941015e-16          0.1 0.0090000008 1.8076077e-06  0.029899999 
number of iterations: 61798 
    1200    14.796183        3            1            2 6.3154924e-16 1.3941016e-16          0.1 0.0090000008 2.0656919e-06  0.029899999 
number of iterations: 56529 
    1300    15.243637        3            1            2 6.418311e-16 1.3941016e-16          0.1 0.0090000008 2.3358426e-06  0.029899999 
number of iterations: 51772 
    1400    15.706085        3            1            2 6.5228035e-16 1.3941017e-16          0.1 0.0090000008 2.6178225e-06  0.029899999 
number of iterations: 47443 
    1500    16.075853        3            1            2 6.6289972e-16 1.3941017e-16          0.1 0.0090000008 2.9114452e-06  0.029899999 
number of iterations: 43482 
    1600     16.50716        3            1            2 6.7369198e-16 1.3941018e-16          0.1 0.0090000008 3.2165566e-06  0.029899999 
number of iterations: 39839 
    1700    16.879131        3            1            2 6.8465994e-16 1.3941019e-16          0.1 0.0090000008 3.5330329e-06  0.029899999 
number of iterations: 36471 
    1800    17.178183        3            1            2 6.9580646e-16 1.394102e-16          0.1 0.0090000008 3.8607803e-06  0.029899999 
number of iterations: 33347 
    1900     17.46901        3            1            2 7.0713445e-16 1.3941021e-16          0.1 0.0090000009 4.1997233e-06  0.029899999 
number of iterations: 30435 
    2000    18.108507        3            1            2 7.1864686e-16 1.3941022e-16          0.1 0.0090000009 4.5498135e-06  0.029899999 
number of iterations: 27715 
    2100    18.360654        3            1            2 7.303467e-16 1.3941023e-16          0.1 0.0090000009 4.9110136e-06  0.029899999 
number of iterations: 25165 
    2200    18.595242        3            1            2 7.4223702e-16 1.3941024e-16          0.1 0.0090000009 5.2833058e-06  0.029899999 
number of iterations: 22767 
    2300    18.815774        3            1            2 7.5432092e-16 1.3941025e-16          0.1 0.0090000009 5.6666885e-06  0.029899999 
number of iterations: 20508 
    2400    19.034015        3            1            2 7.6660155e-16 1.3941026e-16          0.1 0.0090000009 6.0611693e-06  0.029899998 
number of iterations: 18374 
    2500    19.247108        3            1            2 7.7908211e-16 1.3941028e-16          0.1  0.009000001  6.46677e-06  0.029899998 
number of iterations: 16355 
    2600    19.452724        3            1            2 7.9176586e-16 1.3941029e-16          0.1  0.009000001 6.8835208e-06  0.029899998 
number of iterations: 14440 
    2700    19.637396        3            1            2 8.046561e-16 1.3941031e-16          0.1  0.009000001 7.3114644e-06  0.029899998 
number of iterations: 12621 
    2800    19.841073        3            1            2 8.177562e-16 1.3941033e-16          0.1  0.009000001 7.7506511e-06  0.029899998 
number of iterations: 10890 
    2900    20.004613        3            1            2 8.3106958e-16 1.3941034e-16          0.1  0.009000001 8.2011409e-06  0.029899998 
number of iterations: 9240 
    3000    20.566988        3            1            2 8.4459971e-16 1.3941036e-16          0.1  0.009000001 8.6630023e-06  0.029899998 
number of iterations: 7667 
    3100    20.702007        3            1            2 8.5835011e-16 1.3941038e-16          0.1 0.0090000011 9.1363061e-06  0.029899998 
number of iterations: 6941 
    3200     20.82651        3            1            2 8.7232437e-16 1.394104e-16          0.1 0.0090000011 9.6211392e-06  0.029899998 
number of iterations: 7018 
    3300    20.971489        3            1            2 8.8652614e-16 1.3941043e-16          0.1 0.0090000011 1.0117588e-05  0.029899998 
number of iterations: 7094 
    3400    21.103219        3            1            2 9.0095911e-16 1.3941045e-16          0.1 0.0090000011 1.0625747e-05  0.029899998 
number of iterations: 7172 
    3500     21.21682        3            1            2 9.1562707e-16 1.3941048e-16          0.1 0.0090000011 1.1145719e-05  0.029899998 
number of iterations: 7249 
    3600    21.359419        3            1            2 9.3053382e-16 1.394105e-16          0.1 0.0090000011 1.1677611e-05  0.029899998 
number of iterations: 7328 
    3700    21.506641        3            1            2 9.4568326e-16 1.3941053e-16          0.1 0.0090000012 1.2220241e-05  0.029899998 
number of iterations: 7407 
    3800    21.643642        3            1            2 9.6107934e-16 1.3941056e-16          0.1 0.0090000012 1.2771705e-05  0.029899998 
number of iterations: 7486 
    3900     21.83093        3            1            2 9.7672607e-16 1.3941059e-16          0.1 0.0090000012 1.3332148e-05  0.029899998 
number of iterations: 7567 
    4000      22.3765        3            1            2 9.9262754e-16 1.3941062e-16          0.1 0.0090000012 1.3901714e-05  0.029899998 
number of iterations: 7647 
    4100    22.488525        3            1            2 1.0087879e-15 1.3941065e-16          0.1 0.0090000012 1.4480554e-05  0.029899998 
number of iterations: 7728 
    4200    22.600811        3            1            2 1.0252113e-15 1.3941069e-16          0.1 0.0090000013 1.5068816e-05  0.029899998 
number of iterations: 7810 
    4300    22.710438        3            1            2 1.0419022e-15 1.3941072e-16          0.1 0.0090000013 1.5666657e-05  0.029899998 
number of iterations: 7892 
    4400    22.820419        3            1            2 1.0588647e-15 1.3941076e-16          0.1 0.0090000013 1.627423e-05  0.029899998 
number of iterations: 7975 
    4500    22.936926        3            1            2 1.0761034e-15 1.394108e-16          0.1 0.0090000013 1.6891694e-05  0.029899998 
number of iterations: 8058 
    4600    23.051006        3            1            2 1.0936228e-15 1.3941083e-16          0.1 0.0090000013 1.7519212e-05  0.029899998 
number of iterations: 8142 
    4700    23.164249        3            1            2 1.1114274e-15 1.3941088e-16          0.1 0.0090000014 1.8156945e-05  0.029899998 
number of iterations: 8226 
    4800    23.271812        3            1            2 1.1295218e-15 1.3941092e-16          0.1 0.0090000014 1.8805061e-05  0.029899998 
number of iterations: 8311 
    4900    23.382423        3            1            2 1.1479109e-15 1.3941096e-16          0.1 0.0090000014 1.9463728e-05  0.029899998 
number of iterations: 8397 
    5000    23.877189        3            1            2 1.1665993e-15 1.3941101e-16          0.1 0.0090000014 2.0133119e-05  0.029899998 
number of iterations: 8482 
    5100    24.019397        3            1            2 1.185592e-15 1.3941105e-16          0.1 0.0090000015 2.0813408e-05  0.029899998 
number of iterations: 8569 
    5200    24.169707        3            1            2 1.2048939e-15 1.394111e-16          0.1 0.0090000015 2.1504772e-05  0.029899998 
number of iterations: 8656 
    5300    24.305212        3            1            2  1.22451e-15 1.3941115e-16          0.1 0.0090000015 2.2207391e-05  0.029899998 
number of iterations: 8744 
    5400    24.461214        3            1            2 1.2444455e-15 1.3941121e-16          0.1 0.0090000015 2.292145e-05  0.029899997 
number of iterations: 8832 
    5500     24.58324        3            1            2 1.2647055e-15 1.3941126e-16          0.1 0.0090000016 2.3647137e-05  0.029899997 
number of iterations: 8920 
    5600    24.720418        3            1            2 1.2852954e-15 1.3941131e-16          0.1 0.0090000016 2.4384639e-05  0.029899997 
number of iterations: 9010 
    5700    24.857477        3            1            2 1.3062205e-15 1.3941137e-16          0.1 0.0090000016 2.5134148e-05  0.029899997 
number of iterations: 9099 
    5800    25.004146        3            1            2 1.3274862e-15 1.3941143e-16          0.1 0.0090000016 2.5895859e-05  0.029899997 
number of iterations: 9189 
    5900    25.151004        3            1            2 1.3490982e-15 1.3941149e-16          0.1 0.0090000017 2.6669971e-05  0.029899997 
number of iterations: 9280 
    6000    25.692692        3            1            2 1.371062e-15 1.3941155e-16          0.1 0.0090000017 2.7456685e-05  0.029899997 
number of iterations: 9371 
    6100     25.82564        3            1            2 1.3933834e-15 1.3941162e-16          0.1 0.0090000017 2.8256208e-05  0.029899997 
number of iterations: 9463 
    6200    25.955777        3            1            2 1.4160682e-15 1.3941168e-16          0.1 0.0090000018 2.9068747e-05  0.029899997 
number of iterations: 9555 
    6300    26.095033        3            1            2 1.4391224e-15 1.3941175e-16          0.1 0.0090000018 2.9894514e-05  0.029899997 
number of iterations: 9648 
    6400    26.234053        3            1            2 1.4625518e-15 1.3941182e-16          0.1 0.0090000018 3.0733726e-05  0.029899997 
number of iterations: 29509 
    6500    26.590509        4            2            2 1.4863627e-15 1.3941189e-16          0.1 0.0090000018 3.1586598e-05  0.029899997 
number of iterations: 5454 
    6600    26.694393        4            2            2 1.5105612e-15 1.3941197e-16          0.1 0.0090000018 3.2453354e-05  0.029899997 
number of iterations: 6750 
    6700    26.801763        4            2            2 1.5351538e-15 1.3941204e-16          0.1 0.0090000018 3.3334222e-05  0.029899997 
number of iterations: 7109 
    6800    26.977912        4            2            2 1.5601466e-15 1.3941212e-16          0.1 0.0090000018 3.4229431e-05  0.029899997 
number of iterations: 7334 
    6900    27.094153        4            2            2 1.5855464e-15 1.394122e-16          0.1 0.0090000018 3.5139214e-05  0.029899997 
number of iterations: 7489 
    7000    27.620675        4            2            2 1.6113597e-15 1.3941228e-16          0.1 0.0090000018 3.6063809e-05  0.029899997 
number of iterations: 7650 
    7100    27.753475        4            2            2 1.6375932e-15 1.3941237e-16          0.1 0.0090000019 3.7003456e-05  0.029899997 
number of iterations: 7819 
    7200    27.885658        4            2            2 1.6642539e-15 1.3941245e-16          0.1 0.0090000019 3.7958401e-05  0.029899997 
number of iterations: 7917 
    7300    28.001644        4            2            2 1.6913485e-15 1.3941254e-16          0.1 0.0090000019 3.8928893e-05  0.029899997 
number of iterations: 8011 
    7400    28.142629        4            2            2 1.7188843e-15 1.3941263e-16          0.1  0.009000002 3.9915185e-05  0.029899997 
number of iterations: 8103 
    7500    28.269433        4            2            2 1.7468684e-15 1.3941273e-16          0.1  0.009000002 4.0917534e-05  0.029899997 
number of iterations: 8193 
    7600    28.386411        4            2            2 1.7753081e-15 1.3941282e-16          0.1  0.009000002 4.1936202e-05  0.029899997 
number of iterations: 8284 
    7700    28.501113        4            2            2 1.8042108e-15 1.3941292e-16          0.1 0.0090000021 4.2971454e-05  0.029899997 
number of iterations: 8375 
    7800    28.626595        4            2            2 1.833584e-15 1.3941302e-16          0.1 0.0090000021 4.402356e-05  0.029899997 
number of iterations: 8466 
    7900    28.772028        4            2            2 1.8634354e-15 1.3941312e-16          0.1 0.0090000021 4.5092795e-05  0.029899997 
number of iterations: 8558 
    8000    29.376373        4            2            2 1.8937729e-15 1.3941323e-16          0.1 0.0090000022 4.6179438e-05  0.029899996 
number of iterations: 8651 
    8100    29.510822        4            2            2 1.9246042e-15 1.3941334e-16          0.1 0.0090000022 4.7283771e-05  0.029899996 
number of iterations: 8744 
    8200    29.633885        4            2            2 1.9559375e-15 1.3941345e-16          0.1 0.0090000022 4.8406083e-05  0.029899996 
number of iterations: 8837 
    8300    29.765288        4            2            2 1.9877809e-15 1.3941356e-16          0.1 0.0090000023 4.9546667e-05  0.029899996 
number of iterations: 8932 
    8400    29.892233        4            2            2 2.0201427e-15 1.3941368e-16          0.1 0.0090000023 5.070582e-05  0.029899996 
number of iterations: 9026 
    8500    30.019106        4            2            2 2.0530314e-15 1.394138e-16          0.1 0.0090000023 5.1883845e-05  0.029899996 
number of iterations: 9122 
    8600    30.146183        4            2            2 2.0864555e-15 1.3941392e-16          0.1 0.0090000024 5.3081048e-05  0.029899996 
number of iterations: 9218 
    8700    30.271457        4            2            2 2.1204238e-15 1.3941404e-16          0.1 0.0090000024 5.4297742e-05  0.029899996 
number of iterations: 9315 
    8800    30.401814        4            2            2 2.1549451e-15 1.3941417e-16          0.1 0.0090000025 5.5534245e-05  0.029899996 
number of iterations: 9412 
    8900    30.531778        4            2            2 2.1900284e-15 1.394143e-16          0.1 0.0090000025 5.6790878e-05  0.029899996 
number of iterations: 9510 
    9000    31.052183        4            2            2 2.2256829e-15 1.3941443e-16          0.1 0.0090000025 5.8067969e-05  0.029899996 
number of iterations: 9609 
    9100    31.175294        4            2            2 2.2619178e-15 1.3941457e-16          0.1 0.0090000026 5.9365852e-05  0.029899996 
number of iterations: 9708 
    9200    31.299401        4            2            2 2.2987427e-15 1.3941471e-16          0.1 0.0090000026 6.0684865e-05  0.029899996 
number of iterations: 9808 
    9300    31.438528        4            2            2 2.3361671e-15 1.3941485e-16          0.1 0.0090000027 6.2025352e-05  0.029899996 
number of iterations: 9908 
    9400    31.569637        4            2            2 2.3742007e-15 1.3941499e-16          0.1 0.0090000027 6.3387662e-05  0.029899996 
number of iterations: 10009 
    9500    31.805471        4            2            2 2.4128536e-15 1.3941514e-16          0.1 0.0090000028 6.4772152e-05  0.029899995 
number of iterations: 10111 
    9600     32.10786        4            2            2 2.4521358e-15 1.3941529e-16          0.1 0.0090000028 6.6179181e-05  0.029899995 
number of iterations: 10213 
    9700    32.259313        4            2            2 2.4920575e-15 1.3941545e-16          0.1 0.0090000029 6.7609118e-05  0.029899995 
number of iterations: 10316 
    9800    32.394301        4            2            2 2.5326291e-15 1.3941561e-16          0.1 0.0090000029 6.9062334e-05  0.029899995 
number of iterations: 10420 
    9900    32.568709        4            2            2 2.5738613e-15 1.3941577e-16          0.1 0.0090000029 7.0539209e-05  0.029899995 
number of iterations: 10524 
   10000    33.157683        4            2            2 2.6157647e-15 1.3941593e-16          0.1  0.009000003 7.2040129e-05  0.029899995 
number of iterations: 10629 
   10100    33.361296        4            2            2 2.6583503e-15 1.394161e-16          0.1  0.009000003 7.3565483e-05  0.029899995 
number of iterations: 10734 
   10200    33.513592        4            2            2 2.7016293e-15 1.3941627e-16          0.1 0.0090000031 7.5115671e-05  0.029899995 
number of iterations: 10840 
   10300      33.6724        4            2            2 2.7456128e-15 1.3941645e-16          0.1 0.0090000031 7.6691097e-05  0.029899995 
number of iterations: 10946 
   10400    33.837985        4            2            2 2.7903124e-15 1.3941663e-16          0.1 0.0090000032 7.8292171e-05  0.029899995 
number of iterations: 11054 
   10500     33.99301        4            2            2 2.8357397e-15 1.3941681e-16          0.1 0.0090000033 7.9919312e-05  0.029899995 
number of iterations: 11161 
   10600    34.149325        4            2            2 2.8819066e-15  1.39417e-16          0.1 0.0090000033 8.1572942e-05  0.029899995 
number of iterations: 31916 
   10700     34.53698        5            3            2 2.9288252e-15 1.3941719e-16          0.1 0.0090000035 8.3253497e-05  0.029899994 
number of iterations: 12880 
   10800    34.698265        5            3            2 2.9765075e-15 1.3941738e-16          0.1 0.0090000036 8.4961412e-05  0.029899994 
number of iterations: 13089 
   10900    34.864077        5            3            2 3.0249662e-15 1.3941758e-16          0.1 0.0090000036 8.6697132e-05  0.029899994 
number of iterations: 28214 
   11000    35.663873        6            4            2 3.0742138e-15 1.3941778e-16          0.1 0.0090000036 8.8461108e-05  0.029899994 
number of iterations: 10025 
   11100    35.815058        6            4            2 3.1242631e-15 1.3941799e-16          0.1 0.0090000036 9.0253803e-05  0.029899994 
number of iterations: 10962 
   11200    35.969818        6            4            2 3.1751273e-15 1.394182e-16          0.1 0.0090000037 9.2075683e-05  0.029899994 
number of iterations: 11938 
   11300    36.144176        6            4            2 3.2268196e-15 1.3941842e-16          0.1 0.0090000037 9.3927224e-05  0.029899994 
number of iterations: 12236 
   11400    36.302206        6            4            2 3.2793534e-15 1.3941864e-16          0.1 0.0090000038 9.5808909e-05  0.029899994 
number of iterations: 12375 
   11500    36.470725        6            4            2 3.3327425e-15 1.3941886e-16          0.1 0.0090000038 9.7721228e-05  0.029899994 
number of iterations: 12499 
   11600    36.672138        6            4            2 3.3870008e-15 1.3941909e-16          0.1 0.0090000039 9.9664681e-05  0.029899994 
number of iterations: 12616 
   11700    36.938671        6            4            2 3.4421424e-15 1.3941932e-16          0.1  0.009000004 0.00010163977  0.029899993 
number of iterations: 12733 
   11800    37.124101        6            4            2 3.4981818e-15 1.3941956e-16          0.1  0.009000004 0.00010364702  0.029899993 
number of iterations: 12848 
   11900    37.291629        6            4            2 3.5551335e-15 1.394198e-16          0.1 0.0090000041 0.00010568695  0.029899993 
number of iterations: 12965 
   12000    37.835814        6            4            2 3.6130124e-15 1.3942005e-16          0.1 0.0090000042 0.00010776009  0.029899993 
number of iterations: 13081 
   12100    37.993375        6            4            2 3.6718336e-15 1.394203e-16          0.1 0.0090000042 0.00010986697  0.029899993 
number of iterations: 13199 
   12200    38.154592        6            4            2 3.7316125e-15 1.3942056e-16          0.1 0.0090000043 0.00011200816  0.029899993 
number of iterations: 13316 
   12300    38.314615        6            4            2 3.7923645e-15 1.3942082e-16          0.1 0.0090000044 0.00011418421  0.029899993 
number of iterations: 13434 
   12400    38.478429        6            4            2 3.8541056e-15 1.3942109e-16          0.1 0.0090000045 0.00011639569  0.029899993 
number of iterations: 13553 
   12500    38.646314        6            4            2 3.9168519e-15 1.3942136e-16          0.1 0.0090000045 0.00011864317  0.029899993 
number of iterations: 13672 
   12600    38.826298        6            4            2 3.9806197e-15 1.3942164e-16          0.1 0.0090000046 0.00012092724  0.029899992 
number of iterations: 13792 
   12700    39.018451        6            4            2 4.0454257e-15 1.3942192e-16          0.1 0.0090000047 0.00012324849  0.029899992 
number of iterations: 13912 
   12800    39.195078        6            4            2 4.1112867e-15 1.3942221e-16          0.1 0.0090000048 0.00012560754  0.029899992 
number of iterations: 14033 
   12900    39.372531        6            4            2  4.17822e-15 1.394225e-16          0.1 0.0090000048 0.00012800499  0.029899992 
number of iterations: 14154 
   13000    39.940287        6            4            2 4.246243e-15 1.394228e-16          0.1 0.0090000049 0.00013044147  0.029899992 
number of iterations: 14276 
   13100     40.11828        6            4            2 4.3153735e-15 1.3942311e-16          0.1  0.009000005 0.00013291762  0.029899992 
number of iterations: 14399 
   13200    40.292289        6            4            2 4.3856294e-15 1.3942342e-16          0.1 0.0090000051 0.00013543409  0.029899992 
number of iterations: 14521 
   13300    40.470651        6            4            2 4.457029e-15 1.3942373e-16          0.1 0.0090000052 0.00013799152  0.029899991 
number of iterations: 14645 
   13400    40.647549        6            4            2 4.5295911e-15 1.3942406e-16          0.1 0.0090000052 0.00014059059  0.029899991 
number of iterations: 14769 
   13500    40.824789        6            4            2 4.6033346e-15 1.3942439e-16          0.1 0.0090000053 0.00014323197  0.029899991 
number of iterations: 14893 
   13600     41.01187        6            4            2 4.6782786e-15 1.3942472e-16          0.1 0.0090000054 0.00014591635  0.029899991 
number of iterations: 15018 
   13700    41.196569        6            4            2 4.7544427e-15 1.3942506e-16          0.1 0.0090000055 0.00014864444  0.029899991 
number of iterations: 15143 
   13800    41.381662        6            4            2 4.8318468e-15 1.3942541e-16          0.1 0.0090000056 0.00015141694  0.029899991 
number of iterations: 15269 
   13900    41.569434        6            4            2 4.9105111e-15 1.3942576e-16          0.1 0.0090000057 0.00015423458  0.029899991 
number of iterations: 15395 
   14000    42.168775        6            4            2 4.9904561e-15 1.3942613e-16          0.1 0.0090000058 0.00015709809   0.02989999 
number of iterations: 15522 
   14100    42.347209        6            4            2 5.0717026e-15 1.3942649e-16          0.1 0.0090000059 0.00016000822   0.02989999 
number of iterations: 15650 
   14200    42.543981        6            4            2 5.1542718e-15 1.3942687e-16          0.1  0.009000006 0.00016296573   0.02989999 
number of iterations: 15777 
   14300    42.732358        6            4            2 5.2381853e-15 1.3942725e-16          0.1 0.0090000061 0.00016597138   0.02989999 
number of iterations: 15906 
   14400    42.921981        6            4            2 5.3234649e-15 1.3942764e-16          0.1 0.0090000062 0.00016902597   0.02989999 
number of iterations: 16034 
   14500    43.109399        6            4            2 5.4101329e-15 1.3942803e-16          0.1 0.0090000063 0.00017213029   0.02989999 
number of iterations: 16164 
   14600    43.301447        6            4            2 5.4982119e-15 1.3942843e-16          0.1 0.0090000064 0.00017528515  0.029899989 
number of iterations: 16293 
   14700    43.492065        6            4            2 5.5877248e-15 1.3942884e-16          0.1 0.0090000065 0.00017849137  0.029899989 
number of iterations: 30215 
   14800    43.856971        7            5            2 5.6786951e-15 1.3942926e-16          0.1 0.0090000065 0.00018174979  0.029899989 
number of iterations: 15753 
   14900    44.039068        8            6            2 5.7711464e-15 1.3942969e-16          0.1 0.0090000065 0.00018506126  0.029899989 
number of iterations: 16554 
   15000    44.605422        8            6            2 5.8651028e-15 1.3943012e-16          0.1 0.0090000066 0.00018842663  0.029899989 
number of iterations: 16828 
   15100    44.801172        8            6            2 5.9605888e-15 1.3943056e-16          0.1 0.0090000067 0.0001918468  0.029899989 
number of iterations: 32075 
   15200    45.178059        9            7            2 6.0576295e-15 1.3943101e-16          0.1  0.009000007 0.00019532265  0.029899988 
number of iterations: 16525 
   15300    45.388204        9            7            2 6.1562499e-15 1.3943147e-16          0.1 0.0090000071 0.00019885509  0.029899988 
number of iterations: 16910 
   15400    45.595358        9            7            2 6.256476e-15 1.3943193e-16          0.1 0.0090000072 0.00020244504  0.029899988 
number of iterations: 17067 
   15500    45.826008        9            7            2 6.3583338e-15 1.394324e-16          0.1 0.0090000073 0.00020609343  0.029899988 
number of iterations: 17204 
   15600     46.04972        9            7            2 6.4618498e-15 1.3943289e-16          0.1 0.0090000074 0.00020980123  0.029899988 
number of iterations: 17338 
   15700    46.262403       10            8            2 6.5670512e-15 1.3943338e-16          0.1 0.0090000076 0.00021356938  0.029899987 
number of iterations: 17473 
   15800    46.493414       10            8            2 6.6739652e-15 1.3943388e-16          0.1 0.0090000077 0.00021739888  0.029899987 
number of iterations: 17609 
   15900    46.754309       10            8            2 6.7826199e-15 1.3943438e-16          0.1 0.0090000078 0.00022129073  0.029899987 
number of iterations: 17744 
   16000     47.38635       10            8            2 6.8930435e-15 1.394349e-16          0.1 0.0090000079 0.00022524594  0.029899987 
number of iterations: 17881 
   16100     47.62654       10            8            2 7.0052648e-15 1.3943543e-16          0.1 0.0090000081 0.00022926554  0.029899987 
number of iterations: 18017 
   16200    47.880658       10            8            2 7.1193131e-15 1.3943597e-16          0.1 0.0090000082 0.00023335058  0.029899986 
number of iterations: 18155 
   16300    48.094332       10            8            2 7.2352182e-15 1.3943651e-16          0.1 0.0090000083 0.00023750213  0.029899986 
number of iterations: 18292 
   16400    48.296558       10            8            2 7.3530103e-15 1.3943707e-16          0.1 0.0090000085 0.00024172127  0.029899986 
number of iterations: 18430 
   16500     48.51936       10            8            2  7.47272e-15 1.3943763e-16          0.1 0.0090000086 0.00024600909  0.029899986 
number of iterations: 18569 
   16600    48.755665       10            8            2 7.5943787e-15 1.3943821e-16          0.1 0.0090000088 0.00025036673  0.029899986 
number of iterations: 18708 
   16700    48.991785       10            8            2 7.718018e-15 1.3943879e-16          0.1 0.0090000089 0.0002547953  0.029899985 
number of iterations: 18847 
   16800    49.217365       10            8            2 7.8436702e-15 1.3943939e-16          0.1 0.0090000091 0.00025929598  0.029899985 
number of iterations: 18987 
   16900    49.451127       10            8            2 7.9713681e-15   1.3944e-16          0.1 0.0090000092 0.00026386993  0.029899985 
number of iterations: 19127 
   17000    50.037252       10            8            2 8.101145e-15 1.3944061e-16          0.1 0.0090000094 0.00026851834  0.029899985 
number of iterations: 19268 
   17100    50.250602       10            8            2 8.2330346e-15 1.3944124e-16          0.1 0.0090000095 0.00027324243  0.029899984 
number of iterations: 19409 
   17200    50.476942       10            8            2 8.3670715e-15 1.3944188e-16          0.1 0.0090000097 0.00027804343  0.029899984 
number of iterations: 19551 
   17300    50.693453       10            8            2 8.5032906e-15 1.3944253e-16          0.1 0.0090000098 0.0002829226  0.029899984 
number of iterations: 19692 
   17400    50.907946       10            8            2 8.6417273e-15 1.3944319e-16          0.1   0.00900001 0.0002878812  0.029899983 
number of iterations: 19835 
   17500    51.116476       10            8            2 8.7824179e-15 1.3944387e-16          0.1 0.0090000101 0.00029292052  0.029899983 
number of iterations: 19977 
   17600    51.342953       10            8            2 8.9253989e-15 1.3944455e-16          0.1 0.0090000103 0.00029804189  0.029899983 
number of iterations: 20121 
   17700    51.610511       10            8            2 9.0707078e-15 1.3944525e-16          0.1 0.0090000105 0.00030324664  0.029899983 
number of iterations: 20264 
   17800    51.952983       10            8            2 9.2183823e-15 1.3944596e-16          0.1 0.0090000106 0.00030853612  0.029899982 
number of iterations: 20408 
   17900    52.187049       10            8            2 9.368461e-15 1.3944668e-16          0.1 0.0090000108 0.00031391171  0.029899982 
number of iterations: 20552 
   18000    52.832649       11            9            2 9.520983e-15 1.3944741e-16          0.1  0.009000011 0.00031937483  0.029899982 
number of iterations: 20697 
   18100    53.099314       11            9            2 9.6759882e-15 1.3944816e-16          0.1 0.0090000112 0.00032492688  0.029899981 
number of iterations: 20842 
   18200    53.324673       11            9            2 9.8335169e-15 1.3944892e-16          0.1 0.0090000114 0.00033056932  0.029899981 
number of iterations: 20988 
   18300    53.550442       11            9            2 9.9936102e-15 1.3944969e-16          0.1 0.0090000115 0.00033630363  0.029899981 
number of iterations: 21134 
   18400    53.778013       11            9            2 1.015631e-14 1.3945048e-16          0.1 0.0090000117 0.00034213129  0.029899981 
number of iterations: 21280 
   18500    54.008383       11            9            2 1.0321658e-14 1.3945128e-16          0.1 0.0090000119 0.00034805383   0.02989998 
number of iterations: 21427 
   18600     54.24596       11            9            2 1.0489699e-14 1.3945209e-16          0.1 0.0090000121 0.00035407279   0.02989998 
number of iterations: 21574 
   18700    54.486132       11            9            2 1.0660475e-14 1.3945292e-16          0.1 0.0090000123 0.00036018974   0.02989998 
number of iterations: 21721 
   18800    54.720522       11            9            2 1.0834032e-14 1.3945376e-16          0.1 0.0090000125 0.00036640627  0.029899979 
number of iterations: 21869 
   18900    54.961232       12           10            2 1.1010414e-14 1.3945462e-16          0.1 0.0090000127 0.00037272402  0.029899979 
number of iterations: 35936 
   19000    55.736762       13           11            2 1.1189667e-14 1.3945549e-16          0.1 0.0090000131 0.00037914462  0.029899978 
number of iterations: 22652 
   19100    56.017326       14           12            2 1.1371839e-14 1.3945638e-16          0.1 0.0090000133 0.00038566975  0.029899978 
number of iterations: 22909 
   19200    56.291674       14           12            2 1.1556977e-14 1.3945728e-16          0.1 0.0090000136 0.00039230111  0.029899978 
number of iterations: 23061 
   19300    56.565973       15           13            2 1.1745129e-14 1.394582e-16          0.1 0.0090000138 0.00039904044  0.029899977 
number of iterations: 23209 
   19400    56.833917       15           13            2 1.1936344e-14 1.3945913e-16          0.1  0.009000014 0.00040588948  0.029899977 
number of iterations: 23358 
   19500     57.08812       15           13            2 1.2130672e-14 1.3946008e-16          0.1 0.0090000142 0.00041285003  0.029899976 
number of iterations: 23507 
   19600    57.340028       15           13            2 1.2328164e-14 1.3946105e-16          0.1 0.0090000145 0.00041992389  0.029899976 
number of iterations: 23657 
   19700    57.597088       15           13            2 1.2528871e-14 1.3946203e-16          0.1 0.0090000147 0.00042711293  0.029899976 
number of iterations: 30998 
   19800      57.9418       16           14            2 1.2732846e-14 1.3946303e-16          0.1 0.0090000148  0.000434419  0.029899975 
number of iterations: 22015 
   19900    58.181934       16           14            2 1.2940141e-14 1.3946405e-16          0.1  0.009000015 0.00044184401  0.029899975 
number of iterations: 23675 
   20000    58.797575       16           14            2 1.3150812e-14 1.3946508e-16          0.1 0.0090000153 0.00044938991  0.029899975 
number of iterations: 23869 
   20100    59.060914       16           14            2 1.3364912e-14 1.3946613e-16          0.1 0.0090000155 0.00045705866  0.029899974 
number of iterations: 24027 
   20200    59.327699       16           14            2 1.3582498e-14 1.394672e-16          0.1 0.0090000158 0.00046485226  0.029899974 
number of iterations: 24180 
   20300    59.586388       16           14            2 1.3803626e-14 1.3946829e-16          0.1  0.009000016 0.00047277274  0.029899973 
number of iterations: 24333 
   20400    59.845376       16           14            2 1.4028354e-14 1.3946939e-16          0.1 0.0090000163 0.00048082217  0.029899973 
number of iterations: 24487 
   20500    60.105575       17           15            2 1.4256741e-14 1.3947052e-16          0.1 0.0090000166 0.00048900265  0.029899973 
number of iterations: 24640 
   20600    60.448616       17           15            2 1.4488846e-14 1.3947166e-16          0.1 0.0090000168 0.00049731631  0.029899972 
number of iterations: 24794 
   20700    60.743728       17           15            2 1.472473e-14 1.3947283e-16          0.1 0.0090000171 0.00050576531  0.029899972 
number of iterations: 24948 
   20800    61.037534       17           15            2 1.4964454e-14 1.3947401e-16          0.1 0.0090000174 0.00051435187  0.029899971 
number of iterations: 25102 
   20900    61.331576       17           15            2 1.5208081e-14 1.3947521e-16          0.1 0.0090000177 0.00052307823  0.029899971 
number of iterations: 25257 
   21000    62.072644       17           15            2 1.5455674e-14 1.3947644e-16          0.1  0.009000018 0.00053194665   0.02989997 
number of iterations: 25412 
   21100    62.354074       17           15            2 1.5707298e-14 1.3947768e-16          0.1 0.0090000183 0.00054095945   0.02989997 
number of iterations: 25568 
   21200    62.649448       17           15            2 1.5963019e-14 1.3947895e-16          0.1 0.0090000186 0.00055011898  0.029899969 
number of iterations: 25724 
   21300    63.167932       18           16            2 1.6222903e-14 1.3948023e-16          0.1 0.0090000189 0.00055942764  0.029899969 
number of iterations: 31274 
   21400    63.541258       19           17            2 1.6487017e-14 1.3948154e-16          0.1 0.0090000191 0.00056888784  0.029899968 
number of iterations: 24719 
   21500    63.850991       19           17            2 1.6755432e-14 1.3948287e-16          0.1 0.0090000194 0.00057850206  0.029899968 
number of iterations: 25908 
   21600     64.14383       19           17            2 1.7028217e-14 1.3948423e-16          0.1 0.0090000197 0.0005882728  0.029899967 
number of iterations: 26091 
   21700    64.441076       19           17            2 1.7305443e-14 1.394856e-16          0.1   0.00900002 0.00059820261  0.029899967 
number of iterations: 26253 
   21800    64.968459       19           17            2 1.7587182e-14  1.39487e-16          0.1 0.0090000203 0.00060829408  0.029899966 
number of iterations: 26411 
   21900    65.404974       19           17            2 1.7873508e-14 1.3948842e-16          0.1 0.0090000207 0.00061854984  0.029899966 
number of iterations: 26570 
   22000    66.343861       19           17            2 1.8164495e-14 1.3948987e-16          0.1  0.009000021 0.00062897258  0.029899965 
number of iterations: 26729 
   22100    66.821711       19           17            2 1.846022e-14 1.3949134e-16          0.1 0.0090000213  0.000639565  0.029899965 
number of iterations: 26888 
   22200     67.47978       19           17            2 1.8760759e-14 1.3949284e-16          0.1 0.0090000217 0.00065032986  0.029899964 
number of iterations: 27048 
   22300      67.8526       19           17            2 1.9066191e-14 1.3949436e-16          0.1  0.009000022 0.00066126998  0.029899963 
number of iterations: 36234 
   22400     68.33328       20           18            2 1.9376596e-14 1.3949591e-16          0.1 0.0090000226 0.00067238822  0.029899963 
number of iterations: 27547 
   22500    68.692226       20           18            2 1.9692054e-14 1.3949748e-16          0.1 0.0090000229 0.00068368746  0.029899962 
number of iterations: 27791 
   22600    69.052384       23           21            2 2.0012648e-14 1.3949908e-16          0.1 0.0090000233 0.00069517066  0.029899961 
number of iterations: 27953 
   22700    69.440832       23           21            2 2.0338461e-14 1.3950071e-16          0.1 0.0090000237 0.00070684081  0.029899961 
number of iterations: 28114 
   22800    69.874063       23           21            2 2.0669579e-14 1.3950236e-16          0.1 0.0090000241 0.00071870096   0.02989996 
number of iterations: 28275 
   22900    70.333824       23           21            2 2.1006087e-14 1.3950404e-16          0.1 0.0090000244 0.00073075419  0.029899959 
number of iterations: 28436 
   23000    71.120082       23           21            2 2.1348074e-14 1.3950575e-16          0.1 0.0090000248 0.00074300365  0.029899959 
number of iterations: 28597 
   23100    71.753856       23           21            2 2.1695629e-14 1.3950749e-16          0.1 0.0090000253 0.00075545254  0.029899958 
number of iterations: 28759 
   23200    72.281577       23           21            2 2.2048842e-14 1.3950926e-16          0.1 0.0090000257 0.0007681041  0.029899957 
number of iterations: 28921 
   23300    72.614067       23           21            2 2.2407805e-14 1.3951106e-16          0.1 0.0090000261 0.00078096163  0.029899957 
number of iterations: 36118 
   23400    73.075414       24           22            2 2.2772613e-14 1.3951288e-16          0.1 0.0090000266 0.00079402849  0.029899956 
number of iterations: 29359 
   23500    73.516115       24           22            2 2.3143359e-14 1.3951474e-16          0.1 0.0090000271 0.00080730809  0.029899955 
number of iterations: 29585 
   23600    73.933088       24           22            2 2.3520142e-14 1.3951663e-16          0.1 0.0090000275 0.00082080388  0.029899954 
number of iterations: 29749 
   23700    74.307156       24           22            2 2.3903058e-14 1.3951855e-16          0.1  0.009000028 0.00083451938  0.029899954 
number of iterations: 29912 
   23800    74.662667       24           22            2 2.4292209e-14 1.395205e-16          0.1 0.0090000284 0.00084845818  0.029899953 
number of iterations: 37350 
   23900    75.124091       25           23            2 2.4687695e-14 1.3952249e-16          0.1  0.009000029 0.00086262391  0.029899952 
number of iterations: 30372 
   24000    75.850079       26           24            2 2.508962e-14 1.3952451e-16          0.1 0.0090000295 0.00087702027  0.029899951 
number of iterations: 30588 
   24100    76.213485       27           25            2 2.5498088e-14 1.3952656e-16          0.1   0.00900003  0.000891651   0.02989995 
number of iterations: 30752 
   24200    76.704572       28           26            2 2.5913207e-14 1.3952864e-16          0.1 0.0090000305 0.00090651993  0.029899949 
number of iterations: 30916 
   24300    77.106915       29           27            2 2.6335083e-14 1.3953077e-16          0.1  0.009000031 0.00092163093  0.029899949 
number of iterations: 31080 
   24400    77.451595       29           27            2 2.6763828e-14 1.3953292e-16          0.1 0.0090000315 0.00093698794  0.029899948 
number of iterations: 31245 
   24500    77.850156       29           27            2 2.7199553e-14 1.3953512e-16          0.1  0.009000032 0.00095259496  0.029899947 
number of iterations: 31410 
   24600    78.225722       29           27            2 2.7642372e-14 1.3953734e-16          0.1 0.0090000325 0.00096845608  0.029899946 
number of iterations: 31575 
   24700     78.69415       31           29            2  2.80924e-14 1.3953961e-16          0.1  0.009000033 0.00098457542  0.029899945 
number of iterations: 31740 
   24800    79.103661       31           29            2 2.8549755e-14 1.3954191e-16          0.1 0.0090000336 0.0010009572  0.029899944 
number of iterations: 34545 
   24900    79.595939       34           32            2 2.9014555e-14 1.3954426e-16          0.1  0.009000034 0.0010176057  0.029899943 
number of iterations: 31398 
   25000    80.526868       34           32            2 2.9486923e-14 1.3954664e-16          0.1 0.0090000345 0.0010345252  0.029899943 
number of iterations: 32061 
   25100    80.927308       34           32            2 2.9966981e-14 1.3954906e-16          0.1 0.0090000351 0.0010517201  0.029899942 
number of iterations: 32239 
   25200    81.375439       34           32            2 3.0454855e-14 1.3955152e-16          0.1 0.0090000357  0.001069195  0.029899941 
number of iterations: 32407 
   25300    81.810909       34           32            2 3.0950671e-14 1.3955402e-16          0.1 0.0090000362 0.0010869544   0.02989994 
number of iterations: 32574 
   25400    82.264339       34           32            2 3.1454559e-14 1.3955657e-16          0.1 0.0090000368  0.001105003  0.029899939 
number of iterations: 32742 
   25500    82.641849       34           32            2 3.1966651e-14 1.3955915e-16          0.1 0.0090000374 0.0011233454  0.029899938 
number of iterations: 32910 
   25600    83.004954       34           32            2 3.248708e-14 1.3956178e-16          0.1  0.009000038 0.0011419863  0.029899937 
number of iterations: 33078 
   25700    83.353405       34           32            2 3.3015982e-14 1.3956445e-16          0.1 0.0090000387 0.0011609308  0.029899936 
number of iterations: 33246 
   25800    83.725334       34           32            2 3.3553494e-14 1.3956717e-16          0.1 0.0090000393 0.0011801837  0.029899935 
number of iterations: 33415 
   25900    84.100544       34           32            2 3.4099757e-14 1.3956993e-16          0.1 0.0090000399 0.0011997501  0.029899934 
number of iterations: 33584 
   26000     84.83196       35           33            2 3.4654914e-14 1.3957274e-16          0.1 0.0090000406 0.0012196349  0.029899933 
number of iterations: 33753 
   26100    85.196607       37           35            2 3.5219109e-14 1.395756e-16          0.1 0.0090000412 0.0012398436  0.029899931 
number of iterations: 33923 
   26200    85.624138       37           35            2 3.5792489e-14 1.395785e-16          0.1 0.0090000419 0.0012603812   0.02989993 
number of iterations: 34093 
   26300    86.037309       38           36            2 3.6375204e-14 1.3958145e-16          0.1 0.0090000426 0.0012812532  0.029899929 
number of iterations: 34263 
   26400      86.4533       38           36            2 3.6967406e-14 1.3958445e-16          0.1 0.0090000433  0.001302465  0.029899928 
number of iterations: 38954 
   26500     86.96312       40           38            2 3.7569249e-14 1.395875e-16          0.1 0.0090000441 0.0013240221  0.029899927 
number of iterations: 34671 
   26600    87.373369       40           38            2 3.818089e-14 1.395906e-16          0.1 0.0090000448 0.0013459302  0.029899925 
number of iterations: 34869 
   26700    87.791173       40           38            2 3.8802489e-14 1.3959375e-16          0.1 0.0090000456 0.0013681949  0.029899924 
number of iterations: 35040 
   26800    88.165416       40           38            2 3.9434208e-14 1.3959695e-16          0.1 0.0090000463 0.0013908222  0.029899923 
number of iterations: 35211 
   26900    88.531917       40           38            2 4.0076211e-14 1.396002e-16          0.1 0.0090000471 0.0014138178  0.029899922 
number of iterations: 35382 
   27000    89.296941       40           38            2 4.0728667e-14 1.3960351e-16          0.1 0.0090000478 0.0014371878   0.02989992 
number of iterations: 35554 
   27100    89.682322       40           38            2 4.1391744e-14 1.3960688e-16          0.1 0.0090000486 0.0014609382  0.029899919 
number of iterations: 35725 
   27200    90.074044       42           40            2 4.2065617e-14 1.396103e-16          0.1 0.0090000494 0.0014850754  0.029899918 
number of iterations: 35898 
   27300    90.535544       43           41            2 4.2750461e-14 1.3961377e-16          0.1 0.0090000502 0.0015096055  0.029899917 
number of iterations: 36070 
   27400    90.925494       44           42            2 4.3446454e-14 1.3961731e-16          0.1  0.009000051 0.0015345349  0.029899915 
number of iterations: 36242 
   27500    91.305726       45           43            2 4.4153778e-14 1.396209e-16          0.1 0.0090000519 0.0015598702  0.029899914 
number of iterations: 36415 
   27600    91.726277       45           43            2 4.4872618e-14 1.3962455e-16          0.1 0.0090000527  0.001585618  0.029899912 
number of iterations: 36588 
   27700    92.145172       45           43            2 4.5603161e-14 1.3962827e-16          0.1 0.0090000536 0.0016117849  0.029899911 
number of iterations: 38573 
   27800    92.564996       46           44            2 4.6345597e-14 1.3963204e-16          0.1 0.0090000542 0.0016383779   0.02989991 
number of iterations: 36388 
   27900     93.01281       48           46            2 4.710012e-14 1.3963587e-16          0.1 0.0090000551 0.0016654038  0.029899908 
number of iterations: 36934 
   28000    93.847002       49           47            2 4.7866928e-14 1.3963977e-16          0.1 0.0090000559 0.0016928697  0.029899907 
number of iterations: 37116 
   28100    94.262466       49           47            2 4.8646219e-14 1.3964374e-16          0.1 0.0090000569 0.0017207828  0.029899905 
number of iterations: 37291 
   28200    94.678844       50           48            2 4.9438197e-14 1.3964777e-16          0.1 0.0090000578 0.0017491502  0.029899904 
number of iterations: 37348 
   28300    95.126229       53           51            2 5.0243069e-14 1.3965186e-16          0.1 0.0090000586 0.0017779796  0.029899902 
number of iterations: 37448 
   28400    95.552072       54           52            2 5.1061045e-14 1.3965603e-16          0.1 0.0090000596 0.0018072782  0.029899901 
number of iterations: 37749 
   28500    96.008133       56           54            2 5.1892337e-14 1.3966026e-16          0.1 0.0090000605 0.0018370539  0.029899899 
number of iterations: 37927 
   28600    96.443791       56           54            2 5.2737164e-14 1.3966456e-16          0.1 0.0090000615 0.0018673143  0.029899898 
number of iterations: 38103 
   28700    96.919828       57           55            2 5.3595744e-14 1.3966893e-16          0.1 0.0090000625 0.0018980674  0.029899896 
number of iterations: 38279 
   28800    97.375564       57           55            2 5.4468302e-14 1.3967338e-16          0.1 0.0090000635 0.0019293211  0.029899894 
number of iterations: 38455 
   28900    97.790647       58           56            2 5.5355066e-14 1.3967789e-16          0.1 0.0090000646 0.0019610837  0.029899893 
number of iterations: 38631 
   29000    98.632028       58           56            2 5.6256267e-14 1.3968249e-16          0.1 0.0090000656 0.0019933634  0.029899891 
number of iterations: 38808 
   29100    99.074447       58           56            2 5.7172139e-14 1.3968715e-16          0.1 0.0090000667 0.0020261686  0.029899889 
number of iterations: 38985 
   29200    99.508491       58           56            2 5.8102923e-14 1.396919e-16          0.1 0.0090000678 0.0020595078  0.029899887 
number of iterations: 39162 
   29300    99.963991       60           58            2 5.904886e-14 1.3969672e-16          0.1 0.0090000689 0.0020933899  0.029899885 
number of iterations: 43158 
   29400    100.47102       60           58            2 6.0010197e-14 1.3970163e-16          0.1 0.0090000702 0.0021278235  0.029899883 
number of iterations: 39581 
   29500    100.91402       61           59            2 6.0987184e-14 1.3970661e-16          0.1 0.0090000713 0.0021628178  0.029899881 
number of iterations: 39771 
   29600    101.37266       63           61            2 6.1980078e-14 1.3971168e-16          0.1 0.0090000725 0.0021983818  0.029899879 
number of iterations: 39705 
   29700    101.92363       64           62            2 6.2989136e-14 1.3971682e-16          0.1 0.0090000735 0.0022345247  0.029899878 
number of iterations: 39923 
   29800    102.37385       66           64            2 6.4014622e-14 1.3972206e-16          0.1 0.0090000747 0.0022712561  0.029899876 
number of iterations: 40228 
   29900    102.80441       66           64            2 6.5056804e-14 1.3972738e-16          0.1 0.0090000759 0.0023085855  0.029899874 
number of iterations: 40409 
   30000    103.66648       67           65            2 6.6115952e-14 1.3973279e-16          0.1 0.0090000771 0.0023465226  0.029899872 
number of iterations: 39993 
   30100    104.15346       70           68            2 6.7192344e-14 1.3973828e-16          0.1 0.0090000783 0.0023850774   0.02989987 
number of iterations: 43734 
   30200     104.7331       70           68            2 6.828626e-14 1.3974387e-16          0.1 0.0090000797 0.0024242598  0.029899867 
number of iterations: 40936 
   30300    105.23488       71           69            2 6.9397985e-14 1.3974955e-16          0.1  0.009000081 0.0024640802  0.029899865 
number of iterations: 41127 
   30400    105.77893       71           69            2 7.0527809e-14 1.3975532e-16          0.1 0.0090000823 0.0025045488  0.029899863 
number of iterations: 41306 
   30500    106.28995       72           70            2 7.1676028e-14 1.3976119e-16          0.1 0.0090000836 0.0025456763  0.029899861 
number of iterations: 41487 
   30600    106.88174       75           73            2 7.284294e-14 1.3976715e-16          0.1  0.009000085 0.0025874733  0.029899859 
number of iterations: 45521 
   30700    107.48914       75           73            2 7.4028849e-14 1.3977322e-16          0.1 0.0090000866 0.0026299508  0.029899856 
number of iterations: 41915 
   30800    107.99969       75           73            2 7.5234066e-14 1.3977938e-16          0.1  0.009000088 0.0026731199  0.029899854 
number of iterations: 44333 
   30900    108.52146       77           75            2 7.6458903e-14 1.3978564e-16          0.1 0.0090000896 0.0027169918  0.029899851 
number of iterations: 46046 
   31000    109.46147       78           76            2 7.7703682e-14 1.3979201e-16          0.1 0.0090000912 0.0027615779  0.029899848 
number of iterations: 42572 
   31100    110.01329       78           76            2 7.8968726e-14 1.3979848e-16          0.1 0.0090000927 0.0028068899  0.029899846 
number of iterations: 41429 
   31200    110.51345       79           77            2 8.0254365e-14 1.3980505e-16          0.1 0.0090000941 0.0028529396  0.029899843 
number of iterations: 43003 
   31300    111.15604       80           78            2 8.1560936e-14 1.3981174e-16          0.1 0.0090000953  0.002899739  0.029899841 
number of iterations: 41799 
   31400     111.6328       83           81            2 8.2888777e-14 1.3981854e-16          0.1 0.0090000966 0.0029473003  0.029899839 
number of iterations: 42439 
   31500    112.31374       84           82            2 8.4238236e-14 1.3982544e-16          0.1  0.009000098 0.0029956359  0.029899837 
number of iterations: 43079 
   31600    112.83726       85           83            2 8.5609665e-14 1.3983246e-16          0.1 0.0090000995 0.0030447584  0.029899834 
number of iterations: 43364 
   31700    113.36072       85           83            2 8.7003421e-14 1.398396e-16          0.1 0.0090001012 0.0030946807  0.029899832 
number of iterations: 42284 
   31800    113.83394       87           85            2 8.8419868e-14 1.3984685e-16          0.1 0.0090001027 0.0031454157  0.029899829 
number of iterations: 43669 
   31900    114.30947       87           85            2 8.9859376e-14 1.3985423e-16          0.1 0.0090001044 0.0031969767  0.029899826 
number of iterations: 43876 
   32000     115.1271       89           87            2 9.1322319e-14 1.3986172e-16          0.1 0.0090001061 0.0032493772  0.029899824 
number of iterations: 44060 
   32100    115.63104       90           88            2 9.2809079e-14 1.3986934e-16          0.1 0.0090001078 0.0033026307  0.029899821 
number of iterations: 44244 
   32200    116.10812       91           89            2 9.4320044e-14 1.3987708e-16          0.1 0.0090001096 0.0033567512  0.029899818 
number of iterations: 44428 
   32300    116.62032       94           92            2 9.5855608e-14 1.3988495e-16          0.1 0.0090001113 0.0034117528  0.029899815 
number of iterations: 44612 
   32400    117.16828       96           94            2 9.7416172e-14 1.3989294e-16          0.1 0.0090001132 0.0034676499  0.029899812 
number of iterations: 44796 
   32500    117.64995       97           95            2 9.9002142e-14 1.3990107e-16          0.1  0.009000115  0.003524457  0.029899809 
number of iterations: 48704 
   32600    118.16109      102          100            2 1.0061393e-13 1.3990934e-16          0.1 0.0090001171 0.0035821889  0.029899805 
number of iterations: 43736 
   32700    118.71827      105          103            2 1.0225196e-13 1.3991774e-16          0.1 0.0090001189 0.0036408607  0.029899802 
number of iterations: 47481 
   32800    119.25409      108          106            2 1.0391666e-13 1.3992627e-16          0.1  0.009000121 0.0037004877  0.029899799 
number of iterations: 45603 
   32900    119.81132      108          106            2 1.0560846e-13 1.3993495e-16          0.1  0.009000123 0.0037610855  0.029899795 
number of iterations: 45792 
   33000    120.67128      109          107            2 1.0732781e-13 1.3994377e-16          0.1  0.009000125 0.0038226698  0.029899792 
number of iterations: 45978 
   33100    121.21293      111          109            2 1.0907514e-13 1.3995273e-16          0.1  0.009000127 0.0038852567  0.029899789 
number of iterations: 46163 
   33200    121.75901      113          111            2 1.1085092e-13 1.3996185e-16          0.1 0.0090001291 0.0039488626  0.029899785 
number of iterations: 46349 
   33300    122.32877      113          111            2 1.1265562e-13 1.3997111e-16          0.1 0.0090001312  0.004013504  0.029899782 
number of iterations: 46534 
   33400    122.82231      113          111            2 1.1448969e-13 1.3998052e-16          0.1 0.0090001333 0.0040791978  0.029899778 
number of iterations: 46721 
   33500    123.30606      116          114            2 1.1635362e-13 1.3999009e-16          0.1 0.0090001355 0.0041459611  0.029899775 
number of iterations: 46907 
   33600    123.85657      117          115            2 1.182479e-13 1.3999981e-16          0.1 0.0090001377 0.0042138113  0.029899771 
number of iterations: 47093 
   33700     124.4033      119          117            2 1.2017302e-13 1.400097e-16          0.1 0.0090001399 0.0042827662  0.029899767 
number of iterations: 47280 
   33800     124.9893      120          118            2 1.2212948e-13 1.4001974e-16          0.1 0.0090001422 0.0043528436  0.029899763 
number of iterations: 45726 
   33900    125.53765      124          122            2 1.2411779e-13 1.4002996e-16          0.1 0.0090001443 0.0044240619   0.02989976 
number of iterations: 47605 
   34000    126.52799      125          123            2 1.2613847e-13 1.4004034e-16          0.1 0.0090001467 0.0044964397  0.029899756 
number of iterations: 46100 
   34100    127.10537      126          124            2 1.2819205e-13 1.4005089e-16          0.1 0.0090001489 0.0045699959  0.029899752 
number of iterations: 47935 
   34200    127.66266      130          128            2 1.3027906e-13 1.4006161e-16          0.1 0.0090001513 0.0046447495  0.029899748 
number of iterations: 50866 
   34300    128.27552      134          132            2 1.3240005e-13 1.4007251e-16          0.1  0.009000154 0.0047207202  0.029899744 
number of iterations: 48375 
   34400    128.97679      138          136            2 1.3455557e-13 1.4008359e-16          0.1 0.0090001565 0.0047979277  0.029899739 
number of iterations: 48565 
   34500    129.64376      139          137            2 1.3674618e-13 1.4009484e-16          0.1 0.0090001591 0.0048763921  0.029899735 
number of iterations: 48753 
   34600    130.25845      141          139            2 1.3897246e-13 1.4010629e-16          0.1 0.0090001617  0.004956134  0.029899731 
number of iterations: 48941 
   34700    130.84141      145          143            2 1.4123498e-13 1.4011792e-16          0.1 0.0090001643 0.0050371741  0.029899727 
number of iterations: 51198 
   34800    131.46488      146          144            2 1.4353433e-13 1.4012974e-16          0.1 0.0090001672 0.0051195336  0.029899722 
number of iterations: 49354 
   34900    132.23695      147          145            2 1.4587112e-13 1.4014176e-16          0.1 0.0090001699 0.0052032339  0.029899717 
number of iterations: 49544 
   35000    133.19452      149          147            2 1.4824595e-13 1.4015398e-16          0.1 0.0090001727 0.0052882969  0.029899713 
Loop time of 133.195 on 6 procs for 35000 steps with 149 atoms

Performance: 227036244.290 tau/day, 262.773 timesteps/s
99.8% CPU use with 6 MPI tasks x no OpenMP threads

MPI task timing breakdown:
Section |  min time  |  avg time  |  max time  |%varavg| %total
---------------------------------------------------------------
Pair    | 0.0030666  | 0.0097585  | 0.041109   |  14.2 |  0.01
Neigh   | 11.583     | 12.27      | 13.597     |  26.5 |  9.21
Comm    | 13.887     | 13.888     | 13.89      |   0.0 | 10.43
Output  | 1.1172     | 1.1193     | 1.1202     |   0.1 |  0.84
Modify  | 104.38     | 105.57     | 106.2      |   8.2 | 79.26
Other   |            | 0.3394     |            |       |  0.25

Nlocal:    24.8333 ave 147 max 0 min
Histogram: 5 0 0 0 0 0 0 0 0 1
Nghost:    0.666667 ave 4 max 0 min
Histogram: 5 0 0 0 0 0 0 0 0 1
Neighs:    77.1667 ave 463 max 0 min
Histogram: 5 0 0 0 0 0 0 0 0 1

Total # of neighbors = 463
Ave neighs/atom = 3.10738
Neighbor list builds = 393
Dangerous builds = 0
Total wall time: 0:02:13
