 NUFEB Simulation

     100 atoms 
     2 atom types 
     4 nutrients 

  0.0e-4   1.00e-04  xlo xhi 
  0.0e-4   1.00e-04  ylo yhi 
  0.0e-4   1.00e-04  zlo zhi 

 Atoms 

     1 1 1.54e-06  370 9.09e-05 1.38e-05 6.27e-05 1.54e-06 
     2 1 1.90e-06  370 5.79e-05 7.12e-05 9.77e-06 1.90e-06 
     3 1 1.83e-06  370 3.66e-05 2.02e-05 4.89e-05 1.83e-06 
     4 1 1.51e-06  370 4.31e-05 4.99e-05 7.18e-05 1.51e-06 
     5 1 1.58e-06  370 3.45e-05 5.02e-05 8.54e-05 1.58e-06 
     6 1 1.84e-06  370 3.74e-05 6.84e-06 6.90e-05 1.84e-06 
     7 1 1.37e-06  370 9.68e-05 3.16e-05 3.22e-05 1.37e-06 
     8 1 1.48e-06  370 6.16e-05 2.22e-05 2.06e-05 1.48e-06 
     9 1 1.40e-06  370 9.66e-05 4.32e-05 1.91e-05 1.40e-06 
     10 1 1.93e-06  370 1.62e-05 9.65e-05 7.67e-05 1.93e-06 
     11 1 1.84e-06  370 7.22e-05 8.00e-05 1.09e-05 1.84e-06 
     12 1 1.51e-06  370 2.36e-05 1.90e-05 6.14e-05 1.51e-06 
     13 1 1.60e-06  370 6.22e-05 6.74e-05 4.51e-05 1.60e-06 
     14 1 1.68e-06  370 9.57e-05 7.12e-05 7.27e-05 1.68e-06 
     15 1 1.48e-06  370 8.77e-05 7.36e-05 7.96e-05 1.48e-06 
     16 1 1.43e-06  370 7.74e-05 4.57e-05 2.96e-05 1.43e-06 
     17 1 1.78e-06  370 6.01e-06 9.29e-05 2.80e-05 1.78e-06 
     18 1 1.43e-06  370 9.04e-05 9.27e-06 7.40e-05 1.43e-06 
     19 1 1.86e-06  370 2.72e-05 6.93e-05 2.89e-05 1.86e-06 
     20 1 1.47e-06  370 8.13e-05 7.60e-05 2.36e-05 1.47e-06 
     21 1 1.68e-06  370 6.12e-05 8.35e-05 8.41e-06 1.68e-06 
     22 1 1.85e-06  370 2.39e-05 7.78e-05 9.62e-05 1.85e-06 
     23 1 1.52e-06  370 1.78e-05 7.72e-05 7.75e-05 1.52e-06 
     24 1 1.67e-06  370 1.57e-05 7.66e-06 4.48e-05 1.67e-06 
     25 1 1.90e-06  370 1.03e-05 6.99e-06 2.43e-05 1.90e-06 
     26 1 1.75e-06  370 9.26e-05 3.54e-05 8.05e-05 1.75e-06 
     27 1 1.87e-06  370 1.93e-05 8.26e-06 9.09e-05 1.87e-06 
     28 1 1.72e-06  370 8.71e-05 1.29e-05 4.02e-05 1.72e-06 
     29 1 1.67e-06  370 5.96e-05 2.98e-05 1.35e-05 1.67e-06 
     30 1 1.46e-06  370 9.55e-05 6.68e-05 1.56e-05 1.46e-06 
     31 1 1.66e-06  370 9.55e-05 5.30e-05 8.44e-05 1.66e-06 
     32 1 1.55e-06  370 3.18e-05 6.62e-05 7.01e-05 1.55e-06 
     33 1 1.90e-06  370 9.64e-05 1.32e-05 8.99e-05 1.90e-06 
     34 1 1.91e-06  370 8.61e-05 7.74e-05 4.66e-05 1.91e-06 
     35 1 1.59e-06  370 8.53e-05 3.10e-05 2.10e-05 1.59e-06 
     36 1 1.62e-06  370 2.26e-05 7.32e-05 7.78e-05 1.62e-06 
     37 1 1.67e-06  370 9.13e-05 3.48e-05 6.65e-05 1.67e-06 
     38 1 1.80e-06  370 3.59e-06 3.23e-05 6.12e-05 1.80e-06 
     39 1 1.85e-06  370 1.10e-05 8.48e-05 1.33e-05 1.85e-06 
     40 1 1.85e-06  370 8.58e-05 7.00e-06 1.87e-05 1.85e-06 
     41 1 1.74e-06  370 8.16e-06 1.12e-05 1.74e-05 1.74e-06 
     42 1 1.84e-06  370 7.62e-05 3.59e-06 1.93e-05 1.84e-06 
     43 1 1.83e-06  370 6.25e-05 2.47e-05 8.07e-05 1.83e-06 
     44 1 1.81e-06  370 4.01e-05 4.35e-05 7.24e-05 1.81e-06 
     45 1 1.72e-06  370 1.55e-05 4.84e-05 9.11e-05 1.72e-06 
     46 1 1.59e-06  370 5.21e-05 6.76e-05 4.26e-05 1.59e-06 
     47 1 1.79e-06  370 8.92e-05 8.86e-06 7.51e-05 1.79e-06 
     48 1 1.64e-06  370 6.81e-05 2.04e-05 9.20e-05 1.64e-06 
     49 1 1.46e-06  370 5.82e-05 4.79e-05 5.96e-06 1.46e-06 
     50 1 1.44e-06  370 9.00e-05 5.20e-05 7.36e-05 1.44e-06 
     51 1 1.76e-06  370 6.01e-05 7.75e-06 6.36e-05 1.76e-06 
     52 1 1.76e-06  370 2.47e-05 6.58e-05 1.91e-05 1.76e-06 
     53 1 1.80e-06  370 4.28e-06 2.45e-05 6.86e-05 1.80e-06 
     54 1 1.91e-06  370 1.99e-05 2.02e-05 1.90e-05 1.91e-06 
     55 1 1.69e-06  370 3.00e-05 3.94e-05 1.66e-05 1.69e-06 
     56 1 1.84e-06  370 7.89e-05 3.12e-05 3.81e-05 1.84e-06 
     57 1 1.39e-06  370 3.10e-05 2.99e-05 6.00e-05 1.39e-06 
     58 1 1.48e-06  370 8.98e-05 1.91e-05 2.68e-05 1.48e-06 
     59 1 1.59e-06  370 3.98e-05 9.06e-05 8.49e-05 1.59e-06 
     60 1 1.79e-06  370 1.43e-05 6.64e-05 1.96e-05 1.79e-06 
     61 1 1.93e-06  370 3.69e-05 6.76e-05 6.16e-05 1.93e-06 
     62 1 1.87e-06  370 1.30e-05 7.89e-05 1.77e-05 1.87e-06 
     63 1 1.86e-06  370 8.97e-05 9.08e-05 5.00e-05 1.86e-06 
     64 1 1.39e-06  370 3.75e-05 5.31e-05 5.47e-05 1.39e-06 
     65 1 1.69e-06  370 5.72e-06 7.12e-05 2.96e-05 1.69e-06 
     66 1 1.88e-06  370 6.26e-05 4.40e-05 1.94e-05 1.88e-06 
     67 1 1.46e-06  370 1.61e-05 2.78e-05 7.91e-05 1.46e-06 
     68 1 1.81e-06  370 6.95e-05 3.67e-05 1.86e-05 1.81e-06 
     69 1 1.87e-06  370 3.34e-05 3.40e-05 6.79e-05 1.87e-06 
     70 1 1.76e-06  370 3.21e-05 3.00e-05 1.88e-05 1.76e-06 
     71 1 1.58e-06  370 1.76e-05 5.56e-05 9.69e-06 1.58e-06 
     72 1 1.88e-06  370 4.55e-05 5.13e-05 5.13e-05 1.88e-06 
     73 1 1.93e-06  370 6.23e-05 4.95e-05 2.99e-05 1.93e-06 
     74 1 1.84e-06  370 2.77e-05 2.54e-05 3.12e-05 1.84e-06 
     75 1 1.81e-06  370 7.33e-05 4.27e-05 9.79e-05 1.81e-06 
     76 1 1.57e-06  370 4.00e-06 3.75e-05 7.21e-06 1.57e-06 
     77 1 1.85e-06  370 2.39e-05 8.91e-05 2.11e-05 1.85e-06 
     78 1 1.63e-06  370 7.35e-06 2.36e-05 5.54e-06 1.63e-06 
     79 1 1.82e-06  370 7.87e-05 3.11e-05 5.41e-05 1.82e-06 
     80 1 1.59e-06  370 6.96e-05 5.39e-05 5.90e-05 1.59e-06 
     81 1 1.69e-06  370 9.72e-05 8.35e-05 8.71e-05 1.69e-06 
     82 1 1.74e-06  370 2.47e-05 1.04e-05 1.15e-05 1.74e-06 
     83 1 1.45e-06  370 2.71e-05 6.10e-05 8.64e-05 1.45e-06 
     84 1 1.41e-06  370 9.52e-05 4.14e-05 4.88e-06 1.41e-06 
     85 1 1.73e-06  370 8.28e-06 4.26e-05 7.03e-05 1.73e-06 
     86 1 1.85e-06  370 2.73e-05 7.19e-05 2.76e-06 1.85e-06 
     87 1 1.71e-06  370 1.91e-06 4.55e-05 6.27e-05 1.71e-06 
     88 1 1.60e-06  370 2.21e-05 5.25e-05 9.15e-06 1.60e-06 
     89 1 1.60e-06  370 4.52e-05 9.60e-06 2.61e-05 1.60e-06 
     90 1 1.41e-06  370 2.06e-05 2.34e-05 5.16e-05 1.41e-06 
     91 1 1.87e-06  370 2.81e-05 2.57e-05 2.80e-05 1.87e-06 
     92 1 1.79e-06  370 7.38e-06 4.54e-05 7.95e-05 1.79e-06 
     93 1 1.71e-06  370 2.88e-05 3.59e-05 6.25e-05 1.71e-06 
     94 1 1.91e-06  370 4.16e-05 2.29e-05 3.84e-05 1.91e-06 
     95 1 1.71e-06  370 5.26e-05 2.77e-05 5.40e-05 1.71e-06 
     96 1 1.52e-06  370 1.63e-05 8.43e-05 1.13e-05 1.52e-06 
     97 1 1.74e-06  370 7.28e-05 5.59e-05 3.61e-05 1.74e-06 
     98 1 1.65e-06  370 4.37e-06 6.51e-05 9.82e-05 1.65e-06 
     99 1 1.72e-06  370 3.13e-05 7.15e-05 5.37e-05 1.72e-06 
     100 1 1.84e-06  370 4.68e-05 4.64e-05 8.81e-05 1.84e-06 

 Nutrients 

     1 sub g nn nn nn 1.00e-01 1.00e-01 
     2 o2 l nn nn nd 9.00e-03 9.00e-03 
     3 suc l nn nn nn 3.42e-20 3.42e-20 
     4 co2 l nn nn nd 2.99e-02 2.99e-02 

 Type Name 

     1 cyano  
     2 ecw  

 Diffusion Coeffs 

     sub 0 
     o2 2.3e-09 
     suc 5.2e-10 
     co2 1.9e-09 

 Growth Rate 

     cyano 1.89e-05 
     ecw 6.71e-05 

 Ks 

     cyano 0.00035 0.0002 0.01 0.000138 
     ecw 0 0.001 3.6 0.05 

 Yield 

     cyano 0.55 
     ecw 0.43 

 Maintenance 

     cyano 0 
     ecw 9.5e-07 

 Decay 

     cyano 0 
     ecw 0 



