 NUFEB Simulation

     50 atoms 
     2 atom types 
     4 nutrients 

  0.0e-4   1.00e-04  xlo xhi 
  0.0e-4   1.00e-04  ylo yhi 
  0.0e-4   5.00e-05  zlo zhi 

 Atoms 

     1 1 1.67e-06  370 9.04e-05 4.42e-05 1.83e-05 1.67e-06 
     2 1 1.90e-06  370 5.75e-05 3.37e-05 9.17e-06 1.90e-06 
     3 1 1.53e-06  370 3.79e-06 9.60e-05 3.96e-05 1.53e-06 
     4 1 1.55e-06  370 1.63e-05 6.73e-05 2.91e-05 1.55e-06 
     5 1 1.57e-06  370 5.89e-05 3.52e-05 3.75e-05 1.57e-06 
     6 1 1.42e-06  370 2.83e-05 8.91e-05 3.68e-05 1.42e-06 
     7 1 1.59e-06  370 7.53e-05 1.96e-05 6.02e-06 1.59e-06 
     8 1 1.45e-06  370 8.69e-05 2.97e-05 1.55e-05 1.45e-06 
     9 1 1.70e-06  370 8.24e-05 3.35e-05 2.21e-05 1.70e-06 
     10 1 1.79e-06  370 7.73e-05 4.54e-05 7.27e-06 1.79e-06 
     11 1 1.84e-06  370 1.55e-05 2.46e-05 2.74e-05 1.84e-06 
     12 1 1.73e-06  370 1.51e-05 3.15e-05 2.61e-06 1.73e-06 
     13 1 1.84e-06  370 4.71e-05 5.31e-05 8.11e-06 1.84e-06 
     14 1 1.86e-06  370 7.87e-05 7.85e-05 3.21e-06 1.86e-06 
     15 1 1.76e-06  370 7.04e-05 5.69e-05 1.54e-05 1.76e-06 
     16 1 1.54e-06  370 2.03e-05 3.46e-05 4.19e-05 1.54e-06 
     17 1 1.52e-06  370 5.21e-05 8.09e-05 3.88e-05 1.52e-06 
     18 1 1.46e-06  370 6.99e-05 6.64e-05 8.24e-06 1.46e-06 
     19 1 1.39e-06  370 3.18e-05 6.37e-06 2.80e-05 1.39e-06 
     20 1 1.79e-06  370 6.94e-05 9.67e-05 4.57e-05 1.79e-06 
     21 1 1.78e-06  370 7.61e-05 2.65e-05 2.22e-05 1.78e-06 
     22 1 1.69e-06  370 8.05e-05 5.19e-05 3.84e-06 1.69e-06 
     23 1 1.80e-06  370 5.11e-05 2.07e-05 2.14e-05 1.80e-06 
     24 1 1.42e-06  370 9.02e-05 1.31e-05 1.05e-05 1.42e-06 
     25 1 1.40e-06  370 2.94e-05 5.16e-05 3.95e-05 1.40e-06 
     26 1 1.58e-06  370 6.10e-05 2.02e-05 1.28e-05 1.58e-06 
     27 1 1.73e-06  370 3.99e-06 6.93e-05 3.24e-05 1.73e-06 
     28 1 1.90e-06  370 7.17e-05 7.18e-05 4.57e-05 1.90e-06 
     29 1 1.89e-06  370 2.31e-05 3.01e-06 2.03e-05 1.89e-06 
     30 1 1.47e-06  370 8.08e-05 4.27e-05 2.84e-05 1.47e-06 
     31 1 1.91e-06  370 9.35e-05 6.22e-05 6.56e-06 1.91e-06 
     32 1 1.58e-06  370 8.27e-05 6.19e-05 3.90e-06 1.58e-06 
     33 1 1.57e-06  370 7.06e-05 4.15e-05 2.73e-05 1.57e-06 
     34 1 1.81e-06  370 6.25e-05 2.67e-05 2.46e-06 1.81e-06 
     35 1 1.59e-06  370 4.02e-06 4.35e-05 4.52e-06 1.59e-06 
     36 1 1.84e-06  370 1.62e-05 9.20e-05 2.78e-05 1.84e-06 
     37 1 1.82e-06  370 7.79e-05 8.20e-05 2.94e-06 1.82e-06 
     38 1 1.48e-06  370 1.81e-05 8.60e-05 1.51e-05 1.48e-06 
     39 1 1.85e-06  370 7.60e-05 9.30e-05 8.26e-06 1.85e-06 
     40 1 1.68e-06  370 3.64e-05 2.07e-05 2.82e-05 1.68e-06 
     41 1 1.86e-06  370 6.22e-05 1.66e-05 3.73e-06 1.86e-06 
     42 1 1.73e-06  370 6.17e-05 6.29e-05 6.63e-06 1.73e-06 
     43 1 1.65e-06  370 7.14e-05 1.86e-05 1.50e-05 1.65e-06 
     44 1 1.82e-06  370 1.24e-05 3.49e-05 3.80e-05 1.82e-06 
     45 1 1.48e-06  370 9.27e-05 8.23e-05 4.29e-05 1.48e-06 
     46 1 1.38e-06  370 6.36e-05 5.16e-06 4.45e-06 1.38e-06 
     47 1 1.50e-06  370 5.35e-05 7.01e-05 2.17e-05 1.50e-06 
     48 1 1.88e-06  370 8.56e-05 3.66e-05 6.41e-06 1.88e-06 
     49 1 1.45e-06  370 2.78e-05 8.77e-05 4.65e-05 1.45e-06 
     50 1 1.72e-06  370 6.41e-05 3.32e-05 1.70e-05 1.72e-06 

 Nutrients 

     1 sub g nn nn nn 1.00e-01 1.00e-01 
     2 o2 l nn nn nd 9.00e-03 9.00e-03 
     3 suc l nn nn nn 3.42e-20 3.42e-20 
     4 co2 l nn nn nd 2.99e-02 2.99e-02 

 Type Name 

     1 cyano  
     2 ecw  

 Diffusion Coeffs 

     sub 0 
     o2 2.3e-09 
     suc 5.2e-10 
     co2 1.9e-09 

 Growth Rate 

     cyano 2.047e-05 
     ecw 6.71e-05 

 Ks 

     cyano 0.00035 0.0002 0.01 0.000138 
     ecw 0 0.001 3.6 0.05 

 Yield 

     cyano 0.55 
     ecw 0.43 

 Maintenance 

     cyano 0 
     ecw 9.5e-07 

 Decay 

     cyano 0 
     ecw 0 



