 NUFEB Simulation

     50 atoms 
     2 atom types 
     4 nutrients 

  0.0e-4   1.00e-04  xlo xhi 
  0.0e-4   1.00e-04  ylo yhi 
  0.0e-4   5.00e-05  zlo zhi 

 Atoms 

     1 1 1.87e-06  370 7.49e-05 5.23e-06 4.80e-05 1.87e-06 
     2 1 1.73e-06  370 4.43e-05 6.82e-05 1.57e-05 1.73e-06 
     3 1 1.69e-06  370 5.31e-05 4.08e-05 4.57e-05 1.69e-06 
     4 1 1.64e-06  370 1.96e-05 4.27e-05 1.85e-05 1.64e-06 
     5 1 1.82e-06  370 9.47e-05 2.79e-05 3.88e-05 1.82e-06 
     6 1 1.68e-06  370 6.17e-05 9.53e-05 4.42e-05 1.68e-06 
     7 1 1.79e-06  370 9.05e-05 6.28e-05 2.08e-05 1.79e-06 
     8 1 1.60e-06  370 5.14e-05 6.81e-05 3.59e-05 1.60e-06 
     9 1 1.84e-06  370 9.64e-05 6.51e-05 3.06e-05 1.84e-06 
     10 1 1.91e-06  370 7.64e-05 6.52e-05 2.90e-05 1.91e-06 
     11 1 1.74e-06  370 7.82e-05 6.75e-05 2.14e-05 1.74e-06 
     12 1 1.71e-06  370 3.14e-06 2.40e-05 3.78e-05 1.71e-06 
     13 1 1.40e-06  370 1.17e-05 3.10e-05 3.67e-05 1.40e-06 
     14 1 1.83e-06  370 6.40e-05 1.20e-05 1.46e-05 1.83e-06 
     15 1 1.75e-06  370 7.84e-05 8.21e-05 2.71e-05 1.75e-06 
     16 1 1.78e-06  370 9.52e-05 2.90e-05 4.82e-05 1.78e-06 
     17 1 1.67e-06  370 2.97e-05 2.78e-05 3.79e-05 1.67e-06 
     18 1 1.79e-06  370 8.74e-05 7.66e-05 2.24e-05 1.79e-06 
     19 1 1.56e-06  370 5.44e-05 6.86e-05 3.67e-05 1.56e-06 
     20 1 1.62e-06  370 8.41e-05 8.10e-05 4.75e-06 1.62e-06 
     21 1 1.85e-06  370 3.94e-05 7.10e-05 4.12e-05 1.85e-06 
     22 1 1.59e-06  370 5.52e-05 3.20e-05 3.39e-05 1.59e-06 
     23 1 1.38e-06  370 1.23e-05 1.93e-05 2.25e-05 1.38e-06 
     24 1 1.85e-06  370 8.17e-05 4.48e-05 3.53e-05 1.85e-06 
     25 1 1.41e-06  370 1.88e-05 2.72e-05 4.81e-05 1.41e-06 
     26 1 1.64e-06  370 7.63e-05 6.70e-05 3.03e-05 1.64e-06 
     27 1 1.91e-06  370 2.34e-05 3.60e-05 8.81e-06 1.91e-06 
     28 1 1.43e-06  370 3.57e-05 8.36e-05 3.48e-05 1.43e-06 
     29 1 1.46e-06  370 9.82e-05 2.81e-05 2.68e-05 1.46e-06 
     30 1 1.48e-06  370 1.04e-05 1.61e-05 2.48e-05 1.48e-06 
     31 1 1.48e-06  370 4.20e-05 9.48e-05 8.95e-06 1.48e-06 
     32 1 1.76e-06  370 1.79e-05 4.72e-05 1.38e-05 1.76e-06 
     33 1 1.58e-06  370 6.73e-05 6.62e-05 2.00e-06 1.58e-06 
     34 1 1.76e-06  370 7.21e-06 7.31e-05 4.01e-05 1.76e-06 
     35 1 1.42e-06  370 8.30e-05 1.17e-05 2.16e-05 1.42e-06 
     36 1 1.60e-06  370 8.06e-05 7.46e-05 4.26e-05 1.60e-06 
     37 1 1.81e-06  370 1.98e-05 2.61e-05 9.47e-06 1.81e-06 
     38 1 1.51e-06  370 4.84e-05 2.79e-05 4.68e-05 1.51e-06 
     39 1 1.47e-06  370 4.93e-05 6.95e-05 2.24e-05 1.47e-06 
     40 1 1.41e-06  370 1.02e-05 6.28e-06 2.69e-05 1.41e-06 
     41 1 1.91e-06  370 8.19e-05 3.89e-05 1.11e-05 1.91e-06 
     42 1 1.93e-06  370 3.24e-05 8.39e-05 4.44e-06 1.93e-06 
     43 1 1.89e-06  370 2.36e-05 9.37e-05 2.09e-05 1.89e-06 
     44 1 1.46e-06  370 4.49e-05 8.60e-05 3.92e-05 1.46e-06 
     45 1 1.42e-06  370 7.09e-05 4.38e-05 1.20e-05 1.42e-06 
     46 1 1.80e-06  370 3.44e-05 1.87e-05 2.16e-06 1.80e-06 
     47 1 1.57e-06  370 2.50e-05 4.60e-05 2.93e-05 1.57e-06 
     48 1 1.42e-06  370 4.83e-05 3.96e-05 4.66e-05 1.42e-06 
     49 1 1.50e-06  370 4.29e-05 3.60e-05 1.83e-06 1.50e-06 
     50 1 1.56e-06  370 3.13e-05 1.75e-05 9.74e-06 1.56e-06 

 Nutrients 

     1 sub g nn nn nn 1.00e-01 1.00e-01 
     2 o2 l nn nn nd 9.00e-03 9.00e-03 
     3 suc l nn nn nn 3.42e-20 3.42e-20 
     4 co2 l nn nn nd 2.99e-02 2.99e-02 

 Type Name 

     1 cyano  
     2 ecw  

 Diffusion Coeffs 

     sub 0 
     o2 2.3e-09 
     suc 5.2e-10 
     co2 1.9e-09 

 Growth Rate 

     cyano 2.047e-05 
     ecw 6.71e-05 

 Ks 

     cyano 0.00035 0.0002 0.01 0.000138 
     ecw 0 0.001 3.6 0.05 

 Yield 

     cyano 0.55 
     ecw 0.43 

 Maintenance 

     cyano 0 
     ecw 9.5e-07 

 Decay 

     cyano 0 
     ecw 0 



