LAMMPS (20 Nov 2019)
Reading data file ...
  orthogonal box = (0 0 0) to (0.0001 0.0001 5e-05)
  2 by 2 by 2 MPI processor grid
  reading atoms ...
  50 atoms
  4 nutrients
Lattice spacing in x,y,z = 100 100 100
50 atoms in group CYANO
0 atoms in group ECW
Model is defined as a closed system. 
Neighbor list info ...
  update every 1 steps, delay 0 steps, check yes
  max neighbors/atom: 5000, page size: 100000
  master list distance cutoff = 2.43e-06
  ghost atom cutoff = 2.43e-06
  binsize = 1.215e-06, bins = 83 83 42
  1 neighbor lists, perpetual/occasional/extra = 1 0 0
  (1) pair gran/hooke/history, perpetual
      attributes: half, newton off, size, history
      pair build: half/size/bin/newtoff
      stencil: half/bin/3d/newtoff
      bin: standard
Setting up Verlet run ...
  Unit style    : lj
  Current step  : 0
  Time step     : 10
Per MPI rank memory allocation (min/avg/max) = 6.973 | 10.28 | 12.35 Mbytes
Step CPU Atoms c_myNtypes[1] c_myNtypes[2] c_myMass[1] c_myMass[2] c_myCon[1] c_myCon[2] c_myCon[3] c_myCon[4] 
       0            0       50           50            0 4.5164045e-14            0          0.1        0.009     3.42e-20       0.0299 
number of iterations: 324104 
     100    4.8963192       50           50            0 4.5916026e-14            0          0.1 0.0090039995 0.0080528165  0.029893341 
number of iterations: 25063 
     200    5.4933709       50           50            0 4.6680527e-14            0          0.1 0.0090040661  0.015986484   0.02989323 
number of iterations: 25151 
     300    6.1215332       50           50            0 4.7457757e-14            0          0.1 0.0090041338  0.024051295  0.029893117 
number of iterations: 25239 
     400    6.7140838       51           51            0 4.8247928e-14            0          0.1 0.0090042026   0.03224998  0.029893003 
number of iterations: 25327 
     500    7.3030162       51           51            0 4.9051256e-14            0          0.1 0.0090042726  0.040584931  0.029892886 
number of iterations: 25415 
     600    7.8840731       54           54            0 4.9867958e-14            0          0.1 0.0090043437  0.049058489  0.029892768 
number of iterations: 25503 
     700    8.4985008       54           54            0 5.0698259e-14            0          0.1  0.009004416  0.057673004  0.029892647 
number of iterations: 25592 
     800    9.1349623       55           55            0 5.1542384e-14            0          0.1 0.0090044896  0.066430849  0.029892525 
number of iterations: 25680 
     900    9.7534651       55           55            0 5.2400564e-14            0          0.1 0.0090045643  0.075334427  0.029892401 
number of iterations: 25768 
    1000    10.395213       56           56            0 5.3273033e-14            0          0.1 0.0090046403  0.084386177  0.029892274 
number of iterations: 25856 
    1100    11.046396       56           56            0 5.4160028e-14            0          0.1 0.0090047176  0.093588579  0.029892145 
number of iterations: 25944 
    1200    11.683764       58           58            0 5.5061791e-14            0          0.1 0.0090047961   0.10294415  0.029892015 
number of iterations: 26032 
    1300    12.304113       59           59            0 5.5978569e-14            0          0.1  0.009004876   0.11245545  0.029891882 
number of iterations: 26120 
    1400     12.91944       60           60            0 5.6910611e-14            0          0.1 0.0090049572   0.12212508  0.029891746 
number of iterations: 26209 
    1500    13.523182       61           61            0 5.7858172e-14            0          0.1 0.0090050397   0.13195566  0.029891609 
number of iterations: 25564 
    1600    14.117506       62           62            0 5.882151e-14            0          0.1 0.0090051149   0.14194993  0.029891484 
number of iterations: 26373 
    1700    14.749459       63           63            0 5.9800887e-14            0          0.1    0.0090052   0.15211057  0.029891342 
number of iterations: 26462 
    1800    15.452642       65           65            0 6.079657e-14            0          0.1 0.0090052866   0.16244036  0.029891198 
number of iterations: 26550 
    1900    16.128419       66           66            0 6.1808832e-14            0          0.1 0.0090053747   0.17294212  0.029891051 
number of iterations: 26643 
    2000    16.744166       66           66            0 6.2837948e-14            0          0.1 0.0090054641    0.1836187  0.029890902 
number of iterations: 28318 
    2100    17.367259       68           68            0 6.3884198e-14            0          0.1 0.0090055863   0.19447305  0.029890699 
number of iterations: 26844 
    2200    17.986843       69           69            0 6.4947869e-14            0          0.1 0.0090056794    0.2055081  0.029890544 
number of iterations: 26932 
    2300    18.605686       70           70            0 6.6029249e-14            0          0.1 0.0090057739   0.21672686  0.029890386 
number of iterations: 27021 
    2400     19.23883       71           71            0 6.7128635e-14            0          0.1 0.0090058701    0.2281324  0.029890226 
number of iterations: 27109 
    2500    19.875017       71           71            0 6.8246325e-14            0          0.1 0.0090059678   0.23972783  0.029890064 
number of iterations: 27197 
    2600    20.503373       72           72            0 6.9382625e-14            0          0.1 0.0090060672   0.25151629  0.029889898 
number of iterations: 27286 
    2700    21.172962       72           72            0 7.0537844e-14            0          0.1 0.0090061682   0.26350103   0.02988973 
number of iterations: 27374 
    2800     21.81224       73           73            0 7.1712297e-14            0          0.1 0.0090062709   0.27568529  0.029889559 
number of iterations: 27463 
    2900    22.431755       73           73            0 7.2906305e-14            0          0.1 0.0090063753    0.2880724  0.029889385 
number of iterations: 27551 
    3000    23.058635       74           74            0 7.4120193e-14            0          0.1 0.0090064815   0.30066574  0.029889208 
number of iterations: 27647 
    3100    23.696922       75           75            0 7.5354292e-14            0          0.1 0.0090065894   0.31346876  0.029889029 
number of iterations: 27728 
    3200    24.335649       75           75            0 7.6608939e-14            0          0.1 0.0090066991   0.32648493  0.029888846 
number of iterations: 27816 
    3300    24.988634       75           75            0 7.7884476e-14            0          0.1 0.0090068107    0.3397178   0.02988866 
number of iterations: 28887 
    3400    25.644859       77           77            0 7.918125e-14            0          0.1 0.0090069441   0.35317105  0.029888438 
number of iterations: 28010 
    3500     26.32567       77           77            0 8.0499615e-14            0          0.1 0.0090070597   0.36684828  0.029888246 
number of iterations: 28099 
    3600    26.949335       78           78            0 8.1839932e-14            0          0.1 0.0090071772   0.38075323   0.02988805 
number of iterations: 28187 
    3700    27.607459       78           78            0 8.3202564e-14            0          0.1 0.0090072967   0.39488968  0.029887851 
number of iterations: 28276 
    3800     28.24447       80           80            0 8.4587884e-14            0          0.1 0.0090074182   0.40926149  0.029887649 
number of iterations: 28364 
    3900    28.899883       80           80            0 8.599627e-14            0          0.1 0.0090075418   0.42387258  0.029887443 
number of iterations: 28453 
    4000    29.557113       81           81            0 8.7428105e-14            0          0.1 0.0090076673   0.43872693  0.029887234 
number of iterations: 28541 
    4100    30.217279       82           82            0 8.888378e-14            0          0.1  0.009007795   0.45382859  0.029887021 
number of iterations: 28630 
    4200    30.967867       83           83            0 9.0363691e-14            0          0.1 0.0090079248   0.46918169  0.029886805 
number of iterations: 28283 
    4300    31.611271       86           86            0 9.1868244e-14            0          0.1 0.0090080487   0.48479043  0.029886599 
number of iterations: 28800 
    4400    32.265775       86           86            0 9.3397847e-14            0          0.1 0.0090081827   0.50065904  0.029886376 
number of iterations: 28888 
    4500    32.918218       89           89            0 9.4952918e-14            0          0.1 0.0090083189   0.51679186  0.029886149 
number of iterations: 30684 
    4600    33.595651       89           89            0 9.653388e-14            0          0.1 0.0090085017   0.53319327  0.029885844 
number of iterations: 29098 
    4700      34.2464       90           90            0 9.8141165e-14            0          0.1 0.0090086433   0.54986776  0.029885609 
number of iterations: 29186 
    4800    34.901857       92           92            0 9.9775212e-14            0          0.1 0.0090087872   0.56681987  0.029885369 
number of iterations: 29275 
    4900    35.562011       95           95            0 1.0143647e-13            0          0.1 0.0090089335   0.58405422  0.029885125 
number of iterations: 29364 
    5000    36.290575       98           98            0 1.0312538e-13            0          0.1 0.0090090822   0.60157551  0.029884878 
number of iterations: 28362 
    5100    36.968213      101          101            0 1.0484241e-13            0          0.1 0.0090092085   0.61938845  0.029884667 
number of iterations: 29886 
    5200    37.693703      102          102            0 1.0658803e-13            0          0.1 0.0090093701   0.63749795  0.029884399 
number of iterations: 29619 
    5300    38.383173      106          106            0 1.0836272e-13            0          0.1 0.0090095261   0.65590895  0.029884139 
number of iterations: 29713 
    5400    39.071011      107          107            0 1.1016695e-13            0          0.1 0.0090096847   0.67462649  0.029883875 
number of iterations: 29797 
    5500    39.767949      110          110            0 1.1200123e-13            0          0.1  0.009009846   0.69365566  0.029883606 
number of iterations: 29885 
    5600    40.438267      112          112            0 1.1386604e-13            0          0.1 0.0090100099   0.71300167  0.029883333 
number of iterations: 29974 
    5700    41.168567      113          113            0 1.1576191e-13            0          0.1 0.0090101766   0.73266977  0.029883056 
number of iterations: 30062 
    5800    41.864917      115          115            0 1.1768934e-13            0          0.1  0.009010346   0.75266534  0.029882773 
number of iterations: 30150 
    5900    42.561018      118          118            0 1.1964886e-13            0          0.1 0.0090105183   0.77299386  0.029882487 
number of iterations: 30240 
    6000    43.247597      124          124            0 1.2164101e-13            0          0.1 0.0090106934   0.79366084  0.029882195 
number of iterations: 31230 
    6100    43.931482      129          129            0 1.2366633e-13            0          0.1  0.009010904   0.81467192  0.029881844 
number of iterations: 29406 
    6200     44.57774      131          131            0 1.2572536e-13            0          0.1 0.0090110573   0.83603281  0.029881589 
number of iterations: 30506 
    6300    45.250173      133          133            0 1.2781868e-13            0          0.1 0.0090112414   0.85774935  0.029881283 
number of iterations: 29636 
    6400    45.942758      136          136            0 1.2994686e-13            0          0.1 0.0090113974   0.87982743  0.029881023 
number of iterations: 30672 
    6500    46.661997      142          142            0 1.3211047e-13            0          0.1 0.0090115871   0.90227312  0.029880707 
number of iterations: 31181 
    6600     47.41575      144          144            0 1.343101e-13            0          0.1 0.0090117929   0.92509247  0.029880364 
number of iterations: 30853 
    6700    48.115257      146          146            0 1.3654635e-13            0          0.1 0.0090119892   0.94829174  0.029880037 
number of iterations: 30942 
    6800    48.800678      146          146            0 1.3881984e-13            0          0.1 0.0090121888   0.97187728  0.029879705 
number of iterations: 31031 
    6900    49.495523      146          146            0 1.4113119e-13            0          0.1 0.0090123918    0.9958555  0.029879367 
number of iterations: 31119 
    7000    50.195127      146          146            0 1.4348101e-13            0          0.1 0.0090125981     1.020233  0.029879024 
number of iterations: 31864 
    7100    50.938582      146          146            0 1.4586996e-13            0          0.1 0.0090128298    1.0450163  0.029878638 
number of iterations: 31308 
    7200    51.649524      147          147            0 1.4829869e-13            0          0.1 0.0090130435    1.0702122  0.029878282 
number of iterations: 31397 
    7300    52.355205      149          149            0 1.5076785e-13            0          0.1 0.0090132606    1.0958277   0.02987792 
number of iterations: 31486 
    7400    53.047142      149          149            0 1.5327813e-13            0          0.1 0.0090134814    1.1218696  0.029877553 
number of iterations: 31574 
    7500    53.732584      150          150            0 1.558302e-13            0          0.1 0.0090137059    1.1483451  0.029877179 
number of iterations: 31663 
    7600     54.45017      151          151            0 1.5842476e-13            0          0.1 0.0090139341    1.1752614  0.029876799 
number of iterations: 31752 
    7700    55.147201      152          152            0 1.6106252e-13            0          0.1 0.0090141661    1.2026259  0.029876413 
number of iterations: 31840 
    7800    55.869807      154          154            0 1.637442e-13            0          0.1  0.009014402     1.230446   0.02987602 
number of iterations: 31929 
    7900    56.572593      155          155            0 1.6647053e-13            0          0.1 0.0090146418    1.2587293  0.029875621 
number of iterations: 32018 
    8000    57.300093      157          157            0 1.6924225e-13            0          0.1 0.0090148856    1.2874835  0.029875215 
number of iterations: 32107 
    8100    58.040447      159          159            0 1.7206013e-13            0          0.1 0.0090151334    1.3167165  0.029874802 
number of iterations: 32196 
    8200    58.734893      162          162            0 1.7492491e-13            0          0.1 0.0090153854    1.3464361  0.029874382 
number of iterations: 31670 
    8300    59.455737      167          167            0 1.778374e-13            0          0.1 0.0090156169    1.3766506  0.029873997 
number of iterations: 32364 
    8400    60.159484      172          172            0 1.8079838e-13            0          0.1 0.0090158769    1.4073682  0.029873564 
number of iterations: 32811 
    8500    60.906715      174          174            0 1.8380866e-13            0          0.1  0.009016156    1.4385971  0.029873099 
number of iterations: 32547 
    8600    61.650824      180          180            0 1.8686906e-13            0          0.1  0.009016425    1.4703461  0.029872651 
number of iterations: 32636 
    8700    62.381098      181          181            0 1.8998041e-13            0          0.1 0.0090166985    1.5026236  0.029872196 
number of iterations: 32532 
    8800    63.140308      187          187            0 1.9314357e-13            0          0.1 0.0090169689    1.5354385  0.029871746 
number of iterations: 32812 
    8900    63.870114      190          190            0 1.963594e-13            0          0.1 0.0090172514    1.5687999  0.029871275 
number of iterations: 32899 
    9000    64.605358      194          194            0 1.9962876e-13            0          0.1 0.0090175386    1.6027167  0.029870797 
number of iterations: 32988 
    9100    65.359444      195          195            0 2.0295256e-13            0          0.1 0.0090178307    1.6371982  0.029870311 
number of iterations: 32853 
    9200    66.126588      197          197            0 2.0633171e-13            0          0.1 0.0090181181    1.6722538  0.029869832 
number of iterations: 33642 
    9300    66.866924      202          202            0 2.0976711e-13            0          0.1 0.0090184446    1.7078931  0.029869289 
number of iterations: 33259 
    9400    67.582797      205          205            0 2.1325971e-13            0          0.1 0.0090187517    1.7441258  0.029868777 
number of iterations: 33348 
    9500    68.335661      209          209            0 2.1681047e-13            0          0.1 0.0090190639    1.7809618  0.029868257 
number of iterations: 32793 
    9600    69.086367      212          212            0 2.2042034e-13            0          0.1 0.0090193451     1.818411  0.029867789 
number of iterations: 33518 
    9700     69.81702      217          217            0 2.2409032e-13            0          0.1 0.0090196672    1.8564838  0.029867253 
number of iterations: 33605 
    9800    70.581909      223          223            0 2.278214e-13            0          0.1 0.0090199946    1.8951905  0.029866708 
number of iterations: 33694 
    9900    71.364052      228          228            0 2.3161461e-13            0          0.1 0.0090203275    1.9345416  0.029866153 
number of iterations: 33782 
   10000    72.114939      232          232            0 2.3547096e-13            0          0.1  0.009020666     1.974548   0.02986559 
Loop time of 72.115 on 8 procs for 10000 steps with 232 atoms

Performance: 119808663.692 tau/day, 138.667 timesteps/s
88.7% CPU use with 8 MPI tasks x no OpenMP threads

MPI task timing breakdown:
Section |  min time  |  avg time  |  max time  |%varavg| %total
---------------------------------------------------------------
Pair    | 0.0082742  | 0.010108   | 0.012563   |   1.3 |  0.01
Neigh   | 0.006736   | 0.0078048  | 0.0089676  |   1.0 |  0.01
Comm    | 0.032554   | 0.042337   | 0.052329   |   3.0 |  0.06
Output  | 12.225     | 12.226     | 12.228     |   0.0 | 16.95
Modify  | 59.767     | 59.769     | 59.771     |   0.0 | 82.88
Other   |            | 0.06024    |            |       |  0.08

Nlocal:    29 ave 56 max 11 min
Histogram: 1 2 0 1 1 1 1 0 0 1
Nghost:    5.375 ave 12 max 1 min
Histogram: 2 0 2 1 1 0 0 1 0 1
Neighs:    29.875 ave 62 max 10 min
Histogram: 1 2 1 1 0 1 1 0 0 1

Total # of neighbors = 239
Ave neighs/atom = 1.03017
Neighbor list builds = 111
Dangerous builds = 0
Total wall time: 0:01:12
