LAMMPS (20 Nov 2019)
# NUFEB simulation

atom_style	bio
atom_modify	map array sort 1000 5.0e-7
boundary	ff ff ff
newton		off
processors  * * *

comm_modify	vel yes

read_data_bio atom_1_1_63_1_2021-11-18.in
  orthogonal box = (0 0 0) to (0.001 0.001 0.0001)
  2 by 3 by 1 MPI processor grid
  reading atoms ...
  2 atoms
  4 nutrients

##############Define initial particle distribution##############

lattice sc 1e-6 origin 0 0 0
Lattice spacing in x,y,z = 100 100 100
region reg block 0 1000 0 1000 0 100

group CYANO type 1
1 atoms in group CYANO
group ECW type 2
1 atoms in group ECW

neighbor	5e-7 bin
neigh_modify	delay 0 one 5000

##############Define DEM Variables&Commands##############

pair_style  gran/hooke/history 1.e-4 NULL 1.e-5 NULL 0.0 1
pair_coeff  * *

timestep 10

fix 1 all nve/limit 1e-8
fix fv all viscous 1e-5

fix zw all wall/gran hooke/history 2000 NULL 500.0 NULL 1.5 0 zplane  0.0  0.0001

variable kanc equal 50

variable ke equal 5e+10


##############Define IBm Variables##############

#variables used in fix eps_extract
variable EPSdens equal 30
variable EPSratio equal 1.3

#variables used in fix division
variable divDia1 equal 1.96e-6
variable divDia2 equal 1.04e-6

#variables used in fix kinetics
variable diffT equal 1e-4
variable tol equal 1e-11
variable etaHET equal 0.6
variable layer equal -1

#variables used in fix death
#variable deadDia equal 9e-7


##############Define IBm Commands##############

fix k1 all kinetics 100 10 10 1 v_diffT v_layer niter 1000000
fix kgm all kinetics/growth/monod sucexp 0.63
fix g1 all kinetics/diffusion v_tol
fix d1 CYANO divide 100 v_EPSdens v_divDia1 361051
fix d2 ECW divide 100 v_EPSdens v_divDia2 855395
#fix d2 all death 1 v_deadDia demflag 0


##############Define IBm Computes##############

compute myNtypes all ntypes
compute myMass all biomass
compute myCon all avg_con

##############Simulation exit condition##############
variable co2 equal c_myCon[4]
fix 10 all halt 1000 v_co2 <= 1e-19

variable light equal c_myCon[1]
fix 11 all halt 1000 v_light <= 1e-19

##############Simulation Output##############


dump    du3 all bio 100 ntypes biomass avg_con
dump    traj all bio/hdf5 100 trajectory.h5 id type radius x y z con
thermo_style    custom step cpu atoms c_myNtypes[*] c_myMass[*] c_myCon[*]
thermo		100
thermo_modify	lost ignore


run 35000
Model is defined as a closed system. 
Neighbor list info ...
  update every 1 steps, delay 0 steps, check yes
  max neighbors/atom: 5000, page size: 100000
  master list distance cutoff = 1.89e-06
  ghost atom cutoff = 1.89e-06
  binsize = 9.45e-07, bins = 1059 1059 106
  1 neighbor lists, perpetual/occasional/extra = 1 0 0
  (1) pair gran/hooke/history, perpetual
      attributes: half, newton off, size, history
      pair build: half/size/bin/newtoff
      stencil: half/bin/3d/newtoff
      bin: standard
Per MPI rank memory allocation (min/avg/max) = 84.25 | 92.35 | 108.5 Mbytes
Step CPU Atoms c_myNtypes[1] c_myNtypes[2] c_myMass[1] c_myMass[2] c_myCon[1] c_myCon[2] c_myCon[3] c_myCon[4] 
       0            0        2            1            1 5.2028912e-16 1.3941014e-16          0.1        0.009     3.42e-20       0.0299 
number of iterations: 578268 
     100    3.4440012        3            1            2 5.2906567e-16 1.3929094e-16          0.1 0.0090000007 2.974044e-08  0.029899999 
number of iterations: 265338 
     200     5.098415        3            1            2 5.3799026e-16 1.3917185e-16          0.1 0.0090000007 1.2273958e-07  0.029899999 
number of iterations: 172174 
     300    6.2113783        3            1            2 5.470654e-16 1.3905286e-16          0.1 0.0090000007 2.6791942e-07  0.029899999 
number of iterations: 147090 
     400    7.1850567        3            1            2 5.5629363e-16 1.3893397e-16          0.1 0.0090000007 4.352829e-07  0.029899999 
number of iterations: 128083 
     500    8.0459572        3            1            2 5.6567752e-16 1.3881518e-16          0.1 0.0090000007 6.2301268e-07  0.029899999 
number of iterations: 113083 
     600    8.8532047        3            1            2 5.752197e-16 1.3869649e-16          0.1 0.0090000008 8.2965354e-07  0.029899999 
number of iterations: 100861 
     700    9.6159036        3            1            2 5.8492285e-16 1.3857791e-16          0.1 0.0090000008 1.0540519e-06  0.029899999 
number of iterations: 90654 
     800    10.275781        3            1            2 5.9478967e-16 1.3845943e-16          0.1 0.0090000008 1.2952838e-06  0.029899999 
number of iterations: 81956 
     900    10.894846        3            1            2 6.0482294e-16 1.3834105e-16          0.1 0.0090000008 1.5526103e-06  0.029899999 
number of iterations: 74424 
    1000    11.892566        3            1            2 6.1502545e-16 1.3822277e-16          0.1 0.0090000008 1.8254336e-06  0.029899999 
number of iterations: 67812 
    1100    12.412302        3            1            2 6.2540007e-16 1.3810459e-16          0.1 0.0090000008 2.1132723e-06  0.029899999 
number of iterations: 61945 
    1200    12.891072        3            1            2 6.3594969e-16 1.3798652e-16          0.1 0.0090000008 2.4157315e-06  0.029899999 
number of iterations: 56687 
    1300    13.316833        3            1            2 6.4667726e-16 1.3786855e-16          0.1 0.0090000009 2.7324951e-06  0.029899999 
number of iterations: 51940 
    1400    13.766245        3            1            2 6.575858e-16 1.3775068e-16          0.1 0.0090000009 3.0633015e-06  0.029899999 
number of iterations: 47622 
    1500    14.238853        3            1            2 6.6867835e-16 1.3763291e-16          0.1 0.0090000009 3.407945e-06  0.029899999 
number of iterations: 43672 
    1600    14.658972        3            1            2 6.7995801e-16 1.3751524e-16          0.1 0.0090000009 3.7662589e-06  0.029899999 
number of iterations: 40039 
    1700      15.0253        3            1            2 6.9142794e-16 1.3739767e-16          0.1 0.0090000009 4.1381143e-06  0.029899999 
number of iterations: 36682 
    1800    15.354125        3            1            2 7.0309136e-16 1.3728021e-16          0.1 0.0090000009 4.5234133e-06  0.029899998 
number of iterations: 33567 
    1900    15.658392        3            1            2 7.1495152e-16 1.3716284e-16          0.1  0.009000001 4.9220855e-06  0.029899998 
number of iterations: 30666 
    2000    16.402089        3            1            2 7.2701175e-16 1.3704558e-16          0.1  0.009000001 5.334084e-06  0.029899998 
number of iterations: 27955 
    2100    16.701899        3            1            2 7.3927542e-16 1.3692842e-16          0.1  0.009000001 5.7593836e-06  0.029899998 
number of iterations: 25415 
    2200    16.988498        3            1            2 7.5174595e-16 1.3681136e-16          0.1  0.009000001 6.1979756e-06  0.029899998 
number of iterations: 23027 
    2300    17.251985        3            1            2 7.6442685e-16 1.366944e-16          0.1  0.009000001 6.6498722e-06  0.029899998 
number of iterations: 20777 
    2400    17.503131        3            1            2 7.7732166e-16 1.3657754e-16          0.1  0.009000001 7.1150993e-06  0.029899998 
number of iterations: 18653 
    2500    17.746209        3            1            2 7.9043398e-16 1.3646078e-16          0.1 0.0090000011 7.5936946e-06  0.029899998 
number of iterations: 16642 
    2600    17.974483        3            1            2 8.0376749e-16 1.3634412e-16          0.1 0.0090000011 8.0857135e-06  0.029899998 
number of iterations: 14736 
    2700    18.181376        3            1            2 8.1732591e-16 1.3622757e-16          0.1 0.0090000011 8.5912184e-06  0.029899998 
number of iterations: 12927 
    2800    18.391248        3            1            2 8.3111305e-16 1.3611111e-16          0.1 0.0090000011 9.1102809e-06  0.029899998 
number of iterations: 11206 
    2900    18.586949        3            1            2 8.4513276e-16 1.3599476e-16          0.1 0.0090000011 9.6429866e-06  0.029899998 
number of iterations: 9565 
    3000    19.243394        3            1            2 8.5938896e-16 1.3587851e-16          0.1 0.0090000012 1.0189434e-05  0.029899998 
number of iterations: 8000 
    3100    19.443418        3            1            2 8.7388565e-16 1.3576235e-16          0.1 0.0090000012 1.0749726e-05  0.029899998 
number of iterations: 7626 
    3200    19.616843        3            1            2 8.8862687e-16 1.356463e-16          0.1 0.0090000012 1.1323976e-05  0.029899998 
number of iterations: 7710 
    3300     19.77813        3            1            2 9.0361675e-16 1.3553035e-16          0.1 0.0090000012 1.1912304e-05  0.029899998 
number of iterations: 7794 
    3400    19.929955        3            1            2 9.188595e-16 1.354145e-16          0.1 0.0090000012 1.2514839e-05  0.029899998 
number of iterations: 7879 
    3500    20.085601        3            1            2 9.3435936e-16 1.3529875e-16          0.1 0.0090000013 1.3131715e-05  0.029899998 
number of iterations: 7965 
    3600    20.241543        3            1            2 9.5012069e-16 1.351831e-16          0.1 0.0090000013 1.3763078e-05  0.029899998 
number of iterations: 8051 
    3700    20.395667        3            1            2 9.6614789e-16 1.3506755e-16          0.1 0.0090000013 1.4408806e-05  0.029899998 
number of iterations: 8138 
    3800    20.549193        3            1            2 9.8244545e-16 1.349521e-16          0.1 0.0090000013 1.5065425e-05  0.029899998 
number of iterations: 8225 
    3900    20.703531        3            1            2 9.9901792e-16 1.3483675e-16          0.1 0.0090000013 1.5733122e-05  0.029899998 
number of iterations: 8314 
    4000    21.297816        3            1            2 1.0158699e-15 1.347215e-16          0.1 0.0090000014 1.6412081e-05  0.029899998 
number of iterations: 8402 
    4100    21.453241        3            1            2 1.0330062e-15 1.3460635e-16          0.1 0.0090000014 1.7102493e-05  0.029899998 
number of iterations: 8491 
    4200    21.611755        3            1            2 1.0504316e-15 1.344913e-16          0.1 0.0090000014 1.7804552e-05  0.029899998 
number of iterations: 8581 
    4300    21.767526        3            1            2 1.0681509e-15 1.3437635e-16          0.1 0.0090000014 1.8518453e-05  0.029899998 
number of iterations: 8671 
    4400     21.91864        3            1            2 1.0861691e-15 1.342615e-16          0.1 0.0090000015 1.9244397e-05  0.029899998 
number of iterations: 8762 
    4500    22.071679        3            1            2 1.1044913e-15 1.3414675e-16          0.1 0.0090000015 1.9982586e-05  0.029899998 
number of iterations: 8853 
    4600    22.223993        3            1            2 1.1231225e-15 1.340321e-16          0.1 0.0090000015 2.0733228e-05  0.029899998 
number of iterations: 8945 
    4700    22.379537        3            1            2 1.142068e-15 1.3391754e-16          0.1 0.0090000015 2.1496532e-05  0.029899997 
number of iterations: 9037 
    4800    22.539362        3            1            2 1.161333e-15 1.3380309e-16          0.1 0.0090000016 2.2272712e-05  0.029899997 
number of iterations: 9131 
    4900    22.700139        3            1            2 1.1809231e-15 1.3368874e-16          0.1 0.0090000016 2.3061985e-05  0.029899997 
number of iterations: 9224 
    5000    23.302842        3            1            2 1.2008436e-15 1.3357449e-16          0.1 0.0090000016 2.3864571e-05  0.029899997 
number of iterations: 9318 
    5100    23.461801        3            1            2 1.2211002e-15 1.3346034e-16          0.1 0.0090000016 2.4680696e-05  0.029899997 
number of iterations: 9413 
    5200    23.614352        3            1            2 1.2416984e-15 1.3334628e-16          0.1 0.0090000017 2.5510588e-05  0.029899997 
number of iterations: 9508 
    5300    23.775259        3            1            2 1.2626441e-15 1.3323233e-16          0.1 0.0090000017 2.6354479e-05  0.029899997 
number of iterations: 9604 
    5400    23.944743        3            1            2 1.2839431e-15 1.3311847e-16          0.1 0.0090000017 2.7212606e-05  0.029899997 
number of iterations: 9700 
    5500    24.104804        3            1            2 1.3056015e-15 1.3300472e-16          0.1 0.0090000018 2.8085208e-05  0.029899997 
number of iterations: 9797 
    5600    24.279612        3            1            2 1.3276251e-15 1.3289106e-16          0.1 0.0090000018 2.8972533e-05  0.029899997 
number of iterations: 9895 
    5700    24.451595        3            1            2 1.3500203e-15 1.3277751e-16          0.1 0.0090000018 2.9874827e-05  0.029899997 
number of iterations: 9993 
    5800    24.619152        3            1            2 1.3727932e-15 1.3266405e-16          0.1 0.0090000019 3.0792341e-05  0.029899997 
number of iterations: 10091 
    5900    24.783095        3            1            2 1.3959503e-15 1.3255069e-16          0.1 0.0090000019 3.1725332e-05  0.029899997 
number of iterations: 10190 
    6000    25.409843        3            1            2 1.419498e-15 1.3243743e-16          0.1 0.0090000019 3.2674062e-05  0.029899997 
number of iterations: 10290 
    6100    25.581357        3            1            2 1.443443e-15 1.3232427e-16          0.1  0.009000002 3.3638795e-05  0.029899997 
number of iterations: 10390 
    6200    25.743018        3            1            2 1.4677918e-15 1.322112e-16          0.1  0.009000002 3.4619802e-05  0.029899997 
number of iterations: 28798 
    6300      26.0839        4            2            2 1.4925514e-15 1.3209824e-16          0.1 0.0090000019 3.5617355e-05  0.029899997 
number of iterations: 5655 
    6400    26.204727        4            2            2 1.5177286e-15 1.3198537e-16          0.1 0.0090000019 3.6631735e-05  0.029899997 
number of iterations: 6917 
    6500    26.346664        4            2            2 1.5433306e-15 1.3187261e-16          0.1  0.009000002 3.7663226e-05  0.029899997 
number of iterations: 7835 
    6600    26.485285        4            2            2 1.5693644e-15 1.3175994e-16          0.1  0.009000002 3.8712117e-05  0.029899997 
number of iterations: 8634 
    6700    26.632557        4            2            2 1.5958374e-15 1.3164737e-16          0.1  0.009000002 3.9778701e-05  0.029899997 
number of iterations: 8791 
    6800    26.771032        4            2            2 1.6227569e-15 1.315349e-16          0.1  0.009000002 4.0863278e-05  0.029899997 
number of iterations: 8913 
    6900    26.912459        4            2            2 1.6501305e-15 1.3142253e-16          0.1 0.0090000021 4.1966149e-05  0.029899997 
number of iterations: 9023 
    7000    27.467656        4            2            2 1.6779659e-15 1.3131026e-16          0.1 0.0090000021 4.3087624e-05  0.029899997 
number of iterations: 9127 
    7100    27.606266        4            2            2 1.7062708e-15 1.3119808e-16          0.1 0.0090000022 4.4228017e-05  0.029899996 
number of iterations: 9228 
    7200    27.763561        4            2            2 1.7350532e-15  1.31086e-16          0.1 0.0090000022 4.5387647e-05  0.029899996 
number of iterations: 9328 
    7300    27.915237        4            2            2 1.7643211e-15 1.3097402e-16          0.1 0.0090000022 4.6566838e-05  0.029899996 
number of iterations: 9429 
    7400    28.061687        4            2            2 1.7940828e-15 1.3086214e-16          0.1 0.0090000023 4.776592e-05  0.029899996 
number of iterations: 9529 
    7500    28.215862        4            2            2 1.8243464e-15 1.3075036e-16          0.1 0.0090000023 4.8985229e-05  0.029899996 
number of iterations: 9630 
    7600    28.368463        4            2            2 1.8551206e-15 1.3063868e-16          0.1 0.0090000023 5.0225106e-05  0.029899996 
number of iterations: 9732 
    7700    28.522776        4            2            2 1.8864138e-15 1.3052709e-16          0.1 0.0090000024 5.1485898e-05  0.029899996 
number of iterations: 9834 
    7800     28.66639        4            2            2 1.918235e-15 1.304156e-16          0.1 0.0090000024 5.2767958e-05  0.029899996 
number of iterations: 9936 
    7900    28.843332        4            2            2 1.9505929e-15 1.3030421e-16          0.1 0.0090000025 5.4071644e-05  0.029899996 
number of iterations: 10040 
    8000    29.426977        4            2            2 1.9834967e-15 1.3019292e-16          0.1 0.0090000025 5.5397322e-05  0.029899996 
number of iterations: 10144 
    8100    29.601971        4            2            2 2.0169555e-15 1.3008173e-16          0.1 0.0090000025 5.6745362e-05  0.029899996 
number of iterations: 10249 
    8200    29.761192        4            2            2 2.0509787e-15 1.2997063e-16          0.1 0.0090000026 5.8116142e-05  0.029899996 
number of iterations: 10354 
    8300    29.909029        4            2            2 2.0855758e-15 1.2985963e-16          0.1 0.0090000026 5.9510044e-05  0.029899996 
number of iterations: 10460 
    8400    30.071669        4            2            2 2.1207565e-15 1.2974873e-16          0.1 0.0090000027 6.092746e-05  0.029899996 
number of iterations: 10566 
    8500    30.228884        4            2            2 2.1565307e-15 1.2963793e-16          0.1 0.0090000027 6.2368786e-05  0.029899996 
number of iterations: 10674 
    8600     30.39534        4            2            2 2.1929083e-15 1.2952723e-16          0.1 0.0090000028 6.3834424e-05  0.029899995 
number of iterations: 10781 
    8700    30.556673        4            2            2 2.2298996e-15 1.2941662e-16          0.1 0.0090000028 6.5324786e-05  0.029899995 
number of iterations: 10890 
    8800     30.71628        4            2            2 2.2675149e-15 1.2930611e-16          0.1 0.0090000029 6.6840288e-05  0.029899995 
number of iterations: 10999 
    8900     30.87449        4            2            2 2.3057647e-15 1.291957e-16          0.1 0.0090000029 6.8381355e-05  0.029899995 
number of iterations: 11108 
    9000    31.469781        4            2            2 2.3446597e-15 1.2908538e-16          0.1  0.009000003 6.9948417e-05  0.029899995 
number of iterations: 11219 
    9100    31.633598        4            2            2 2.3842108e-15 1.2897517e-16          0.1  0.009000003 7.1541913e-05  0.029899995 
number of iterations: 11329 
    9200    31.794597        4            2            2 2.4244291e-15 1.2886505e-16          0.1 0.0090000031 7.316229e-05  0.029899995 
number of iterations: 11441 
    9300    31.965424        4            2            2 2.4653258e-15 1.2875503e-16          0.1 0.0090000031    7.481e-05  0.029899995 
number of iterations: 11553 
    9400    32.140672        4            2            2 2.5069124e-15 1.286451e-16          0.1 0.0090000032 7.6485504e-05  0.029899995 
number of iterations: 11666 
    9500    32.314998        4            2            2 2.5492005e-15 1.2853528e-16          0.1 0.0090000032 7.8189272e-05  0.029899995 
number of iterations: 11779 
    9600    32.498799        4            2            2 2.5922019e-15 1.2842555e-16          0.1 0.0090000033 7.9921779e-05  0.029899995 
number of iterations: 28031 
    9700    32.842118        5            3            2 2.6359287e-15 1.2831591e-16          0.1 0.0090000033 8.168351e-05  0.029899995 
number of iterations: 11304 
    9800    33.007236        5            3            2 2.6803931e-15 1.2820638e-16          0.1 0.0090000033 8.3474959e-05  0.029899995 
number of iterations: 12019 
    9900    33.177888        5            3            2 2.7256075e-15 1.2809694e-16          0.1 0.0090000033 8.5296626e-05  0.029899994 
number of iterations: 12333 
   10000    33.762862        5            3            2 2.7715847e-15 1.279876e-16          0.1 0.0090000034 8.7149023e-05  0.029899994 
number of iterations: 12512 
   10100    33.960544        5            3            2 2.8183374e-15 1.2787836e-16          0.1 0.0090000034 8.9032667e-05  0.029899994 
number of iterations: 12649 
   10200    34.155898        5            3            2 2.8658788e-15 1.2776922e-16          0.1 0.0090000035 9.0948085e-05  0.029899994 
number of iterations: 12770 
   10300    34.339766        5            3            2 2.9142222e-15 1.2766017e-16          0.1 0.0090000036 9.2895814e-05  0.029899994 
number of iterations: 12887 
   10400    34.530634        5            3            2 2.963381e-15 1.2755122e-16          0.1 0.0090000036 9.4876398e-05  0.029899994 
number of iterations: 13002 
   10500    34.709332        5            3            2 3.0133691e-15 1.2744237e-16          0.1 0.0090000037 9.6890392e-05  0.029899994 
number of iterations: 13117 
   10600    34.886042        5            3            2 3.0642004e-15 1.2733361e-16          0.1 0.0090000037 9.8938359e-05  0.029899994 
number of iterations: 13232 
   10700    35.067199        5            3            2 3.1158891e-15 1.2722495e-16          0.1 0.0090000038 0.00010102087  0.029899994 
number of iterations: 13347 
   10800    35.247309        5            3            2 3.1684498e-15 1.2711639e-16          0.1 0.0090000039 0.00010313852  0.029899994 
number of iterations: 13463 
   10900    35.419952        5            3            2 3.2218971e-15 1.2700792e-16          0.1 0.0090000039 0.00010529188  0.029899994 
number of iterations: 13580 
   11000    36.034761        5            3            2 3.2762459e-15 1.2689956e-16          0.1  0.009000004 0.00010748157  0.029899993 
number of iterations: 13696 
   11100    36.208325        5            3            2 3.3315116e-15 1.2679129e-16          0.1 0.0090000041 0.00010970819  0.029899993 
number of iterations: 13814 
   11200    36.386996        5            3            2 3.3877095e-15 1.2668311e-16          0.1 0.0090000041 0.00011197238  0.029899993 
number of iterations: 32509 
   11300     36.73346        6            4            2 3.4448554e-15 1.2657504e-16          0.1 0.0090000044 0.00011427476  0.029899993 
number of iterations: 13547 
   11400    36.932277        6            4            2 3.5029653e-15 1.2646706e-16          0.1 0.0090000044 0.00011661598  0.029899993 
number of iterations: 13887 
   11500    37.108897        6            4            2 3.5620554e-15 1.2635918e-16          0.1 0.0090000045 0.00011899669  0.029899993 
number of iterations: 14041 
   11600    37.284441        6            4            2 3.6221422e-15 1.2625139e-16          0.1 0.0090000046 0.00012141756  0.029899992 
number of iterations: 14169 
   11700    37.470173        6            4            2 3.6832427e-15 1.261437e-16          0.1 0.0090000047 0.00012387927  0.029899992 
number of iterations: 14295 
   11800    37.657175        6            4            2 3.7453738e-15 1.2603611e-16          0.1 0.0090000047 0.00012638251  0.029899992 
number of iterations: 14421 
   11900    37.848181        6            4            2 3.808553e-15 1.2592862e-16          0.1 0.0090000048 0.00012892797  0.029899992 
number of iterations: 14548 
   12000    38.470546        6            4            2 3.8727979e-15 1.2582122e-16          0.1 0.0090000049 0.00013151636  0.029899992 
number of iterations: 14675 
   12100    38.664375        6            4            2 3.9381266e-15 1.2571392e-16          0.1  0.009000005 0.00013414842  0.029899992 
number of iterations: 14803 
   12200    38.874991        6            4            2 4.0045572e-15 1.2560672e-16          0.1 0.0090000051 0.00013682488  0.029899992 
number of iterations: 14931 
   12300    39.082379        6            4            2 4.0721085e-15 1.2549961e-16          0.1 0.0090000052 0.00013954649  0.029899991 
number of iterations: 15060 
   12400     39.28464        6            4            2 4.1407992e-15 1.2539261e-16          0.1 0.0090000053 0.00014231401  0.029899991 
number of iterations: 15189 
   12500    39.485862        6            4            2 4.2106487e-15 1.2528569e-16          0.1 0.0090000053 0.00014512821  0.029899991 
number of iterations: 15319 
   12600    39.671082        6            4            2 4.2816764e-15 1.2517888e-16          0.1 0.0090000054 0.00014798989  0.029899991 
number of iterations: 15450 
   12700    39.866356        6            4            2 4.3539022e-15 1.2507216e-16          0.1 0.0090000055 0.00015089983  0.029899991 
number of iterations: 15581 
   12800    40.050384        6            4            2 4.4273464e-15 1.2496554e-16          0.1 0.0090000056 0.00015385886  0.029899991 
number of iterations: 15712 
   12900    40.249092        6            4            2 4.5020296e-15 1.2485902e-16          0.1 0.0090000057 0.00015686781  0.029899991 
number of iterations: 15844 
   13000    40.864538        7            5            2 4.5779725e-15 1.2475259e-16          0.1 0.0090000058 0.00015992752   0.02989999 
number of iterations: 15977 
   13100    41.054924        7            5            2 4.6551964e-15 1.2464627e-16          0.1 0.0090000059 0.00016303883   0.02989999 
number of iterations: 16110 
   13200     41.26693        7            5            2 4.733723e-15 1.2454003e-16          0.1  0.009000006 0.00016620263   0.02989999 
number of iterations: 16243 
   13300    41.474331        7            5            2 4.8135743e-15 1.244339e-16          0.1 0.0090000061 0.0001694198   0.02989999 
number of iterations: 16377 
   13400    41.684403        7            5            2 4.8947725e-15 1.2432786e-16          0.1 0.0090000062 0.00017269124   0.02989999 
number of iterations: 16512 
   13500    41.897064        7            5            2 4.9773404e-15 1.2422192e-16          0.1 0.0090000063 0.00017601786   0.02989999 
number of iterations: 16647 
   13600    42.096783        7            5            2 5.0613011e-15 1.2411608e-16          0.1 0.0090000064 0.0001794006  0.029899989 
number of iterations: 16782 
   13700    42.294172        7            5            2 5.1466782e-15 1.2401033e-16          0.1 0.0090000065 0.0001828404  0.029899989 
number of iterations: 16918 
   13800    42.498409        7            5            2 5.2334954e-15 1.2390468e-16          0.1 0.0090000067 0.00018633823  0.029899989 
number of iterations: 17055 
   13900    42.713007        7            5            2 5.3217771e-15 1.2379913e-16          0.1 0.0090000068 0.00018989505  0.029899989 
number of iterations: 17192 
   14000     43.33859        7            5            2 5.411548e-15 1.2369368e-16          0.1 0.0090000069 0.00019351188  0.029899989 
number of iterations: 17329 
   14100    43.555587        7            5            2 5.5028332e-15 1.2358832e-16          0.1  0.009000007 0.00019718972  0.029899988 
number of iterations: 17467 
   14200    43.773313        7            5            2 5.5956582e-15 1.2348306e-16          0.1 0.0090000071 0.0002009296  0.029899988 
number of iterations: 17605 
   14300    43.996717        7            5            2 5.6900491e-15 1.233779e-16          0.1 0.0090000072 0.00020473256  0.029899988 
number of iterations: 17744 
   14400    44.219807        7            5            2 5.7860322e-15 1.2327284e-16          0.1 0.0090000074 0.00020859968  0.029899988 
number of iterations: 17884 
   14500    44.451511        7            5            2 5.8836345e-15 1.2316787e-16          0.1 0.0090000075 0.00021253202  0.029899988 
number of iterations: 18023 
   14600     44.67244        7            5            2 5.9828831e-15  1.23063e-16          0.1 0.0090000076 0.0002165307  0.029899987 
number of iterations: 18164 
   14700    44.900731        7            5            2 6.0838059e-15 1.2295823e-16          0.1 0.0090000077 0.00022059684  0.029899987 
number of iterations: 18304 
   14800    45.120111        7            5            2 6.1864311e-15 1.2285355e-16          0.1 0.0090000079 0.00022473156  0.029899987 
number of iterations: 18446 
   14900    45.344625        8            6            2 6.2907875e-15 1.2274898e-16          0.1  0.009000008 0.00022893603  0.029899987 
number of iterations: 18587 
   15000    46.005896        8            6            2 6.3969043e-15 1.226445e-16          0.1 0.0090000081 0.00023321142  0.029899987 
number of iterations: 18729 
   15100    46.238144        8            6            2 6.504811e-15 1.2254012e-16          0.1 0.0090000083 0.00023755894  0.029899986 
number of iterations: 18872 
   15200    46.474843        8            6            2 6.614538e-15 1.2243583e-16          0.1 0.0090000084 0.00024197978  0.029899986 
number of iterations: 19015 
   15300      46.7202        8            6            2 6.726116e-15 1.2233165e-16          0.1 0.0090000086 0.00024647521  0.029899986 
number of iterations: 19158 
   15400    46.961045       10            8            2 6.8395761e-15 1.2222756e-16          0.1 0.0090000087 0.00025104646  0.029899986 
number of iterations: 19302 
   15500    47.210842       10            8            2 6.9549501e-15 1.2212357e-16          0.1 0.0090000089 0.00025569483  0.029899985 
number of iterations: 19447 
   15600    47.473201       10            8            2 7.0722703e-15 1.2201968e-16          0.1  0.009000009 0.0002604216  0.029899985 
number of iterations: 19591 
   15700    47.728611       10            8            2 7.1915696e-15 1.2191589e-16          0.1 0.0090000092 0.00026522811  0.029899985 
number of iterations: 19737 
   15800    47.972394       10            8            2 7.3128812e-15 1.2181219e-16          0.1 0.0090000093 0.0002701157  0.029899985 
number of iterations: 31291 
   15900     48.33583       10            8            2 7.4362392e-15 1.2170859e-16          0.1 0.0090000093 0.00027508574  0.029899984 
number of iterations: 18616 
   16000    49.024201       10            8            2 7.5616781e-15 1.2160509e-16          0.1 0.0090000095 0.00028013961  0.029899984 
number of iterations: 19433 
   16100    49.273801       10            8            2 7.689233e-15 1.2150169e-16          0.1 0.0090000096 0.00028527873  0.029899984 
number of iterations: 19686 
   16200    49.510776       10            8            2 7.8189395e-15 1.2139839e-16          0.1 0.0090000098 0.00029050454  0.029899984 
number of iterations: 19846 
   16300    49.747182       10            8            2 7.950834e-15 1.2129519e-16          0.1 0.0090000099 0.0002958185  0.029899984 
number of iterations: 19991 
   16400    49.983813       11            9            2 8.0849534e-15 1.2119208e-16          0.1 0.0090000101 0.00030122211  0.029899983 
number of iterations: 20132 
   16500    50.267978       11            9            2 8.2213352e-15 1.2108907e-16          0.1 0.0090000103 0.00030671686  0.029899983 
number of iterations: 20272 
   16600    50.517744       11            9            2 8.3600175e-15 1.2098616e-16          0.1 0.0090000104 0.0003123043  0.029899983 
number of iterations: 20413 
   16700    50.757757       11            9            2 8.5010393e-15 1.2088336e-16          0.1 0.0090000106  0.000317986  0.029899982 
number of iterations: 20554 
   16800    50.983943       11            9            2 8.6444398e-15 1.2078064e-16          0.1 0.0090000108 0.00032376354  0.029899982 
number of iterations: 20696 
   16900    51.231334       11            9            2 8.7902594e-15 1.2067803e-16          0.1  0.009000011 0.00032963853  0.029899982 
number of iterations: 20838 
   17000    51.882003       11            9            2 8.9385387e-15 1.2057552e-16          0.1 0.0090000112 0.00033561263  0.029899982 
number of iterations: 20980 
   17100    52.119268       11            9            2 9.0893192e-15 1.2047311e-16          0.1 0.0090000114 0.0003416875  0.029899981 
number of iterations: 21122 
   17200    52.363135       11            9            2 9.2426432e-15 1.2037079e-16          0.1 0.0090000115 0.00034786485  0.029899981 
number of iterations: 21265 
   17300    52.607703       11            9            2 9.3985536e-15 1.2026858e-16          0.1 0.0090000117 0.0003541464  0.029899981 
number of iterations: 21409 
   17400    52.861847       11            9            2 9.557094e-15 1.2016646e-16          0.1 0.0090000119 0.00036053392   0.02989998 
number of iterations: 21552 
   17500    53.129548       11            9            2 9.7183087e-15 1.2006445e-16          0.1 0.0090000121 0.00036702918   0.02989998 
number of iterations: 21696 
   17600    53.388772       11            9            2 9.8822429e-15 1.1996253e-16          0.1 0.0090000123  0.000373634   0.02989998 
number of iterations: 36439 
   17700    53.789428       11            9            2 1.0048942e-14 1.1986072e-16          0.1 0.0090000128 0.00038035025  0.029899979 
number of iterations: 22469 
   17800     54.06354       11            9            2 1.0218454e-14  1.19759e-16          0.1  0.009000013 0.00038717978  0.029899978 
number of iterations: 22745 
   17900    54.328249       12           10            2 1.0390825e-14 1.1965738e-16          0.1 0.0090000132 0.00039412453  0.029899978 
number of iterations: 22903 
   18000    55.047947       12           10            2 1.0566103e-14 1.1955587e-16          0.1 0.0090000134 0.00040118642  0.029899978 
number of iterations: 23058 
   18100    55.302061       12           10            2 1.0744339e-14 1.1945445e-16          0.1 0.0090000137 0.00040836743  0.029899977 
number of iterations: 23213 
   18200    55.569513       12           10            2 1.0925581e-14 1.1935314e-16          0.1 0.0090000139 0.00041566958  0.029899977 
number of iterations: 35019 
   18300    55.954621       13           11            2 1.110988e-14 1.1925196e-16          0.1 0.0090000141 0.00042309491  0.029899976 
number of iterations: 21096 
   18400    56.199262       13           11            2 1.1297288e-14 1.1915089e-16          0.1 0.0090000144 0.00043064549  0.029899976 
number of iterations: 23230 
   18500    56.461347       13           11            2 1.1487857e-14 1.1904991e-16          0.1 0.0090000146 0.00043832343  0.029899976 
number of iterations: 23480 
   18600    56.742901       13           11            2 1.1681641e-14 1.1894904e-16          0.1 0.0090000148 0.0004461309  0.029899975 
number of iterations: 23648 
   18700    57.004073       13           11            2 1.1878694e-14 1.1884827e-16          0.1 0.0090000151 0.00045407006  0.029899975 
number of iterations: 23805 
   18800    57.265637       13           11            2 1.2079071e-14 1.187476e-16          0.1 0.0090000154 0.00046214315  0.029899975 
number of iterations: 23962 
   18900    57.532519       14           12            2 1.2282828e-14 1.1864704e-16          0.1 0.0090000156 0.00047035242  0.029899974 
number of iterations: 35728 
   19000    58.338263       14           12            2 1.2490022e-14 1.1854657e-16          0.1 0.0090000161 0.00047870017  0.029899973 
number of iterations: 24615 
   19100    58.622175       14           12            2 1.2700711e-14 1.1844621e-16          0.1 0.0090000163 0.00048718873  0.029899973 
number of iterations: 24859 
   19200    58.916586       14           12            2 1.2914954e-14 1.1834595e-16          0.1 0.0090000166 0.00049582049  0.029899972 
number of iterations: 25018 
   19300    59.218134       15           13            2 1.3132811e-14 1.182458e-16          0.1 0.0090000169 0.00050459785  0.029899972 
number of iterations: 42889 
   19400    59.672796       15           13            2 1.3354343e-14 1.1814583e-16          0.1 0.0090000172 0.00051352327  0.029899971 
number of iterations: 22530 
   19500    59.932093       16           14            2 1.3579612e-14 1.1804596e-16          0.1 0.0090000174 0.00052259925  0.029899971 
number of iterations: 24715 
   19600    60.228983       16           14            2 1.3808681e-14 1.1794621e-16          0.1 0.0090000177 0.00053182833  0.029899971 
number of iterations: 24980 
   19700    60.502145       16           14            2 1.4041614e-14 1.1784655e-16          0.1  0.009000018 0.0005412131   0.02989997 
number of iterations: 25149 
   19800    60.778173       17           15            2 1.4278476e-14  1.17747e-16          0.1 0.0090000183 0.00055075617   0.02989997 
number of iterations: 25306 
   19900    61.104775       17           15            2 1.4519334e-14 1.1764756e-16          0.1 0.0090000187 0.00056046021  0.029899969 
number of iterations: 30568 
   20000    61.874895       18           16            2 1.4764255e-14 1.1754822e-16          0.1 0.0090000189 0.00057032795  0.029899969 
number of iterations: 24240 
   20100    62.147188       18           16            2 1.5013307e-14 1.1744899e-16          0.1 0.0090000192 0.00058036215  0.029899968 
number of iterations: 25457 
   20200    62.429786       18           16            2 1.526656e-14 1.1734986e-16          0.1 0.0090000195 0.0005905656  0.029899968 
number of iterations: 25647 
   20300    62.720293       19           17            2 1.5524085e-14 1.1725084e-16          0.1 0.0090000198 0.00060094118  0.029899967 
number of iterations: 25809 
   20400    63.016052       19           17            2 1.5785955e-14 1.1715192e-16          0.1 0.0090000202 0.00061149178  0.029899967 
number of iterations: 25968 
   20500    63.324894       19           17            2 1.6052242e-14 1.1705312e-16          0.1 0.0090000205 0.00062222035  0.029899966 
number of iterations: 36556 
   20600    63.719032       19           17            2 1.632302e-14 1.1695446e-16          0.1 0.0090000209 0.00063312989  0.029899965 
number of iterations: 24446 
   20700     64.01371       19           17            2 1.6598367e-14 1.1685591e-16          0.1 0.0090000212 0.00064422347  0.029899965 
number of iterations: 26072 
   20800    64.313567       19           17            2 1.6878358e-14 1.1675747e-16          0.1 0.0090000215 0.00065550418  0.029899964 
number of iterations: 26297 
   20900    64.589682       19           17            2 1.7163072e-14 1.1665913e-16          0.1 0.0090000219 0.00066697517  0.029899964 
number of iterations: 26463 
   21000    65.308951       19           17            2 1.7452589e-14 1.1656091e-16          0.1 0.0090000223 0.00067863967  0.029899963 
number of iterations: 26623 
   21100     65.59781       19           17            2 1.7746989e-14 1.1646279e-16          0.1 0.0090000227 0.00069050093  0.029899962 
number of iterations: 26783 
   21200    65.899862       19           17            2 1.8046356e-14 1.1636478e-16          0.1  0.009000023 0.00070256227  0.029899962 
number of iterations: 26942 
   21300    66.209206       19           17            2 1.8350773e-14 1.1626689e-16          0.1 0.0090000234 0.00071482707  0.029899961 
number of iterations: 27103 
   21400    66.517788       19           17            2 1.8660324e-14 1.161691e-16          0.1 0.0090000238 0.00072729877   0.02989996 
number of iterations: 34812 
   21500    66.928442       20           18            2 1.8975098e-14 1.1607142e-16          0.1  0.009000024 0.00073998083   0.02989996 
number of iterations: 25411 
   21600    67.236702       20           18            2 1.9295181e-14 1.1597386e-16          0.1 0.0090000243 0.00075287683   0.02989996 
number of iterations: 27003 
   21700    67.547277       20           18            2 1.9620663e-14 1.158764e-16          0.1 0.0090000248 0.00076599036  0.029899959 
number of iterations: 36237 
   21800    67.961977       22           20            2 1.9951636e-14 1.1577906e-16          0.1 0.0090000253 0.0007793251  0.029899958 
number of iterations: 27585 
   21900      68.3052       22           20            2 2.0288192e-14 1.1568183e-16          0.1 0.0090000258 0.00079288478  0.029899957 
number of iterations: 27813 
   22000    69.135985       22           20            2 2.0630426e-14 1.1558471e-16          0.1 0.0090000262 0.00080667319  0.029899957 
number of iterations: 27977 
   22100    69.492177       22           20            2 2.0978432e-14 1.154877e-16          0.1 0.0090000266 0.00082069419  0.029899956 
number of iterations: 28140 
   22200    69.830509       22           20            2 2.1332308e-14 1.1539081e-16          0.1 0.0090000271 0.00083495171  0.029899955 
number of iterations: 31764 
   22300    70.216255       23           21            2 2.1692154e-14 1.1529403e-16          0.1 0.0090000275 0.00084944973  0.029899954 
number of iterations: 27558 
   22400     70.55871       23           21            2 2.205807e-14 1.1519736e-16          0.1 0.0090000279 0.00086419231  0.029899954 
number of iterations: 39270 
   22500    71.017031       24           22            2 2.2430159e-14 1.1510086e-16          0.1 0.0090000284 0.00087918358  0.029899953 
number of iterations: 26602 
   22600    71.369147       25           23            2 2.2808524e-14 1.1500447e-16          0.1 0.0090000288 0.00089442773  0.029899952 
number of iterations: 28225 
   22700    71.698402       25           23            2 2.3193272e-14 1.1490819e-16          0.1 0.0090000293 0.00090992902  0.029899951 
number of iterations: 28444 
   22800    72.030236       25           23            2 2.358451e-14 1.1481203e-16          0.1 0.0090000298 0.00092569181   0.02989995 
number of iterations: 28615 
   22900    72.374246       25           23            2 2.3982347e-14 1.1471599e-16          0.1 0.0090000303 0.00094172048   0.02989995 
number of iterations: 28781 
   23000    73.141218       26           24            2 2.4386895e-14 1.1462007e-16          0.1 0.0090000308 0.00095801954  0.029899949 
number of iterations: 28947 
   23100    73.451883       26           24            2 2.4798268e-14 1.1452426e-16          0.1 0.0090000313 0.00097459354  0.029899948 
number of iterations: 29113 
   23200    73.786214       26           24            2 2.521658e-14 1.1442857e-16          0.1 0.0090000319 0.00099144712  0.029899947 
number of iterations: 42341 
   23300    74.246493       28           26            2 2.5641948e-14 1.1433294e-16          0.1 0.0090000323  0.001008585  0.029899946 
number of iterations: 37643 
   23400    74.681487       28           26            2 2.6074491e-14 1.1423744e-16          0.1  0.009000033  0.001026012  0.029899945 
number of iterations: 29847 
   23500    75.007869       29           27            2 2.6514331e-14 1.1414205e-16          0.1 0.0090000335 0.0010437329  0.029899944 
number of iterations: 35878 
   23600     75.40616       29           27            2 2.6961591e-14 1.140468e-16          0.1 0.0090000343 0.0010617528  0.029899943 
number of iterations: 29941 
   23700    75.735807       30           28            2 2.7416395e-14 1.1395166e-16          0.1 0.0090000349 0.0010800766  0.029899942 
number of iterations: 30406 
   23800    76.117687       30           28            2 2.7878871e-14 1.1385664e-16          0.1 0.0090000355 0.0010987095  0.029899941 
number of iterations: 30583 
   23900    76.448328       31           29            2 2.8349148e-14 1.1376174e-16          0.1 0.0090000361 0.0011176568   0.02989994 
number of iterations: 30753 
   24000     77.17496       31           29            2 2.8827358e-14 1.1366697e-16          0.1 0.0090000367 0.0011369236  0.029899939 
number of iterations: 30924 
   24100    77.518471       31           29            2 2.9313635e-14 1.1357232e-16          0.1 0.0090000373 0.0011565155  0.029899938 
number of iterations: 31094 
   24200    77.854555       31           29            2 2.9808115e-14 1.1347779e-16          0.1  0.009000038 0.0011764379  0.029899937 
number of iterations: 31265 
   24300    78.206393       31           29            2 3.0310935e-14 1.1338338e-16          0.1 0.0090000386 0.0011966963  0.029899936 
number of iterations: 31436 
   24400    78.633206       32           30            2 3.0822238e-14 1.1328909e-16          0.1 0.0090000392 0.0012172964  0.029899935 
number of iterations: 31607 
   24500    79.112601       33           31            2 3.1342166e-14 1.1319493e-16          0.1 0.0090000399 0.0012382441  0.029899934 
number of iterations: 44979 
   24600    79.694141       33           31            2 3.1870864e-14 1.1310097e-16          0.1 0.0090000406 0.0012595451  0.029899932 
number of iterations: 30046 
   24700    80.038585       33           31            2 3.2408481e-14 1.1300714e-16          0.1 0.0090000413 0.0012812054  0.029899931 
number of iterations: 31489 
   24800    80.423878       34           32            2 3.2955166e-14 1.1291344e-16          0.1  0.009000042 0.0013032311   0.02989993 
number of iterations: 31701 
   24900    80.796175       34           32            2 3.3511073e-14 1.1281986e-16          0.1 0.0090000427 0.0013256283  0.029899929 
number of iterations: 40060 
   25000    81.690493       35           33            2 3.4076358e-14 1.1272646e-16          0.1 0.0090000434 0.0013484033  0.029899928 
number of iterations: 30659 
   25100    82.096262       35           33            2 3.4651178e-14 1.1263319e-16          0.1 0.0090000441 0.0013715626  0.029899927 
number of iterations: 31847 
   25200    82.491686       37           35            2 3.5235694e-14 1.1254003e-16          0.1 0.0090000447 0.0013951125  0.029899926 
number of iterations: 32049 
   25300    82.928737       38           36            2 3.5830071e-14 1.1244701e-16          0.1 0.0090000455 0.0014190596  0.029899924 
number of iterations: 32224 
   25400    83.304818       39           37            2 3.6434473e-14 1.1235413e-16          0.1 0.0090000462 0.0014434107  0.029899923 
number of iterations: 32398 
   25500    83.699348       39           37            2 3.7049072e-14 1.1226137e-16          0.1  0.009000047 0.0014681726  0.029899922 
number of iterations: 32572 
   25600    84.089498       39           37            2 3.7674037e-14 1.1216875e-16          0.1 0.0090000478 0.0014933521  0.029899921 
number of iterations: 32746 
   25700     84.48059       39           37            2 3.8309545e-14 1.1207626e-16          0.1 0.0090000486 0.0015189564  0.029899919 
number of iterations: 32920 
   25800    84.877293       39           37            2 3.8955773e-14 1.119839e-16          0.1 0.0090000494 0.0015449926  0.029899918 
number of iterations: 34885 
   25900    85.274051       41           39            2 3.9612902e-14 1.1189169e-16          0.1 0.0090000502 0.0015714681  0.029899917 
number of iterations: 32781 
   26000    86.135286       42           40            2 4.0281116e-14 1.117996e-16          0.1  0.009000051 0.0015983901  0.029899915 
number of iterations: 33310 
   26100    86.524223       43           41            2 4.0960601e-14 1.1170766e-16          0.1 0.0090000518 0.0016257662  0.029899914 
number of iterations: 33494 
   26200    86.892823       44           42            2 4.1651549e-14 1.1161584e-16          0.1 0.0090000526 0.0016536041  0.029899913 
number of iterations: 33670 
   26300    87.237561       44           42            2 4.2354152e-14 1.1152416e-16          0.1 0.0090000534 0.0016819117  0.029899911 
number of iterations: 36475 
   26400    87.620971       45           43            2 4.3068606e-14 1.1143262e-16          0.1 0.0090000542 0.0017106967   0.02989991 
number of iterations: 45603 
   26500    88.098301       46           44            2 4.3795113e-14 1.113413e-16          0.1 0.0090000551 0.0017399673  0.029899908 
number of iterations: 32426 
   26600    88.439253       46           44            2 4.4533875e-14 1.1125013e-16          0.1  0.009000056 0.0017697316  0.029899907 
number of iterations: 38858 
   26700    88.841484       47           45            2 4.5285098e-14 1.1115913e-16          0.1 0.0090000569 0.0017999981  0.029899905 
number of iterations: 33000 
   26800    89.257225       47           45            2 4.6048994e-14 1.1106828e-16          0.1 0.0090000579 0.0018307751  0.029899904 
number of iterations: 33865 
   26900    89.612407       48           46            2 4.6825776e-14 1.1097758e-16          0.1 0.0090000588 0.0018620712  0.029899902 
number of iterations: 34059 
   27000    90.443855       48           46            2 4.761566e-14 1.1088702e-16          0.1 0.0090000598 0.0018938953  0.029899901 
number of iterations: 34238 
   27100    90.811207       50           48            2 4.8418869e-14 1.1079662e-16          0.1 0.0090000608 0.0019262562  0.029899899 
number of iterations: 42963 
   27200    91.282313       50           48            2 4.9235627e-14 1.1070642e-16          0.1 0.0090000619 0.0019591629  0.029899897 
number of iterations: 33470 
   27300    91.643533       50           48            2 5.0066163e-14 1.1061638e-16          0.1 0.0090000629 0.0019926248  0.029899895 
number of iterations: 34479 
   27400    92.021042       50           48            2 5.0910708e-14 1.1052649e-16          0.1  0.009000064 0.0020266511  0.029899894 
number of iterations: 42899 
   27500    92.467661       50           48            2  5.17695e-14 1.104367e-16          0.1 0.0090000651 0.0020612514  0.029899892 
number of iterations: 35107 
   27600    92.823227       52           50            2 5.2642778e-14 1.1034707e-16          0.1 0.0090000662 0.0020964354   0.02989989 
number of iterations: 41021 
   27700    93.310128       54           52            2 5.3530788e-14 1.1025759e-16          0.1 0.0090000675 0.0021322129  0.029899888 
number of iterations: 35510 
   27800    93.687662       55           53            2 5.4433777e-14 1.1016827e-16          0.1 0.0090000686 0.0021685938  0.029899886 
number of iterations: 35717 
   27900    94.091505       55           53            2 5.5351997e-14 1.100791e-16          0.1 0.0090000698 0.0022055885  0.029899884 
number of iterations: 46622 
   28000    95.032668       56           54            2 5.6285707e-14 1.0999003e-16          0.1  0.009000071 0.0022432072  0.029899882 
number of iterations: 36416 
   28100    95.444095       57           55            2 5.7235168e-14 1.0990113e-16          0.1 0.0090000721 0.0022814605   0.02989988 
number of iterations: 36555 
   28200    95.861664       58           56            2 5.8200644e-14 1.0981238e-16          0.1 0.0090000734 0.0023203591  0.029899878 
number of iterations: 36733 
   28300    96.258592       59           57            2 5.9182407e-14 1.0972379e-16          0.1 0.0090000746 0.0023599138  0.029899876 
number of iterations: 36913 
   28400    96.699346       60           58            2 6.018073e-14 1.0963536e-16          0.1 0.0090000759 0.0024001358  0.029899874 
number of iterations: 37094 
   28500    97.116604       62           60            2 6.1195894e-14 1.0954709e-16          0.1 0.0090000771 0.0024410363  0.029899872 
number of iterations: 37275 
   28600     97.52321       63           61            2 6.2228183e-14 1.0945899e-16          0.1 0.0090000784 0.0024826267   0.02989987 
number of iterations: 47301 
   28700    98.066488       66           64            2 6.3277884e-14 1.0937101e-16          0.1   0.00900008 0.0025249186  0.029899867 
number of iterations: 37935 
   28800    98.499669       66           64            2 6.4345292e-14 1.0928319e-16          0.1 0.0090000813  0.002567924  0.029899865 
number of iterations: 42041 
   28900    99.000216       69           67            2 6.5430707e-14 1.0919554e-16          0.1 0.0090000828 0.0026116548  0.029899862 
number of iterations: 38328 
   29000    99.928509       70           68            2 6.653443e-14 1.0910805e-16          0.1 0.0090000842 0.0026561233   0.02989986 
number of iterations: 38526 
   29100    100.35139       70           68            2 6.7656772e-14 1.0902074e-16          0.1 0.0090000856 0.0027013419  0.029899858 
number of iterations: 38709 
   29200    100.79669       70           68            2 6.8798046e-14 1.089336e-16          0.1 0.0090000871 0.0027473233  0.029899855 
number of iterations: 38892 
   29300    101.23147       72           70            2 6.9958572e-14 1.0884663e-16          0.1 0.0090000886 0.0027940803  0.029899853 
number of iterations: 39075 
   29400    101.68909       73           71            2 7.1138674e-14 1.0875983e-16          0.1   0.00900009  0.002841626   0.02989985 
number of iterations: 39258 
   29500    102.12048       73           71            2 7.2338682e-14 1.0867321e-16          0.1 0.0090000916 0.0028899738  0.029899848 
number of iterations: 39442 
   29600    102.54283       73           71            2 7.3558934e-14 1.0858677e-16          0.1 0.0090000931 0.0029391372  0.029899845 
number of iterations: 39626 
   29700    103.02793       76           74            2 7.4799769e-14 1.0850051e-16          0.1 0.0090000948 0.0029891298  0.029899842 
number of iterations: 39810 
   29800    103.48704       78           76            2 7.6061535e-14 1.0841443e-16          0.1 0.0090000965 0.0030399658   0.02989984 
number of iterations: 39995 
   29900    103.99065       78           76            2 7.7344586e-14 1.0832854e-16          0.1 0.0090000981 0.0030916593  0.029899837 
number of iterations: 40179 
   30000    104.88385       79           77            2 7.8649279e-14 1.0824283e-16          0.1 0.0090000997 0.0031442247  0.029899834 
number of iterations: 45252 
   30100     105.3996       80           78            2 7.9975981e-14 1.0815736e-16          0.1 0.0090001013 0.0031976769  0.029899831 
number of iterations: 39666 
   30200    105.81819       81           79            2 8.1325063e-14 1.0807209e-16          0.1  0.009000103 0.0032520308  0.029899829 
number of iterations: 39352 
   30300    106.24424       83           81            2 8.2696901e-14 1.0798703e-16          0.1 0.0090001047 0.0033073015  0.029899826 
number of iterations: 40334 
   30400    106.69306       84           82            2 8.4091881e-14 1.0790217e-16          0.1 0.0090001065 0.0033635046  0.029899823 
number of iterations: 40708 
   30500    107.11969       86           84            2 8.5510392e-14 1.078175e-16          0.1 0.0090001083 0.0034206557   0.02989982 
number of iterations: 40897 
   30600    107.60757       87           85            2 8.6952831e-14 1.0773303e-16          0.1 0.0090001101 0.0034787709  0.029899817 
number of iterations: 40382 
   30700    108.03817       90           88            2 8.8419602e-14 1.0764875e-16          0.1 0.0090001118 0.0035378664  0.029899814 
number of iterations: 41135 
   30800    108.53378       91           89            2 8.9911116e-14 1.0756467e-16          0.1 0.0090001137 0.0035979587  0.029899811 
number of iterations: 41397 
   30900    108.97039       91           89            2 9.1427789e-14 1.0748081e-16          0.1 0.0090001158 0.0036590648  0.029899807 
number of iterations: 42148 
   31000     109.8478       96           94            2 9.2970046e-14 1.0739719e-16          0.1 0.0090001179 0.0037212016  0.029899804 
number of iterations: 41767 
   31100    110.37476       97           95            2 9.4538319e-14 1.0731377e-16          0.1 0.0090001196 0.0037843865  0.029899801 
number of iterations: 50868 
   31200    110.94311       98           96            2 9.6133047e-14 1.0723051e-16          0.1 0.0090001218 0.0038486373  0.029899797 
number of iterations: 46721 
   31300    111.43242      100           98            2 9.7754675e-14 1.0714742e-16          0.1 0.0090001239  0.003913972  0.029899794 
number of iterations: 48567 
   31400    111.97747      101           99            2 9.9403658e-14 1.0706454e-16          0.1 0.0090001263 0.0039804087   0.02989979 
number of iterations: 42803 
   31500    112.47695      103          101            2 1.0108046e-13 1.0698187e-16          0.1 0.0090001285 0.0040479661  0.029899786 
number of iterations: 42996 
   31600    112.97936      104          102            2 1.0278554e-13 1.0689941e-16          0.1 0.0090001306 0.0041166631  0.029899783 
number of iterations: 41965 
   31700    113.43252      104          102            2 1.0451939e-13 1.0681717e-16          0.1 0.0090001327  0.004186519  0.029899779 
number of iterations: 43273 
   31800    113.90073      106          104            2 1.0628248e-13 1.0673515e-16          0.1 0.0090001349 0.0042575532  0.029899776 
number of iterations: 43509 
   31900    114.44912      107          105            2 1.0807532e-13 1.0665335e-16          0.1 0.0090001372 0.0043297857  0.029899772 
number of iterations: 48318 
   32000    115.36742      109          107            2 1.0989839e-13 1.0657184e-16          0.1 0.0090001397 0.0044032366  0.029899768 
number of iterations: 45678 
   32100    115.91579      110          108            2 1.1175222e-13 1.0649061e-16          0.1  0.009000142 0.0044779265  0.029899764 
number of iterations: 43479 
   32200    116.37421      111          109            2 1.1363732e-13 1.0640961e-16          0.1 0.0090001444 0.0045538763   0.02989976 
number of iterations: 46714 
   32300    116.91129      114          112            2 1.1555422e-13 1.0632884e-16          0.1  0.009000147 0.0046311073  0.029899755 
number of iterations: 42907 
   32400    117.44128      115          113            2 1.1750346e-13 1.062483e-16          0.1 0.0090001493 0.0047096411  0.029899751 
number of iterations: 45763 
   32500    117.91361      116          114            2 1.1948558e-13 1.0616805e-16          0.1  0.009000152 0.0047894997  0.029899747 
number of iterations: 42726 
   32600    118.43752      118          116            2 1.2150113e-13 1.0608804e-16          0.1 0.0090001545 0.0048707053  0.029899743 
number of iterations: 50636 
   32700    119.04866      121          119            2 1.2355068e-13 1.0600822e-16          0.1 0.0090001571 0.0049532808  0.029899739 
number of iterations: 45852 
   32800    119.52867      121          119            2 1.256348e-13 1.059287e-16          0.1 0.0090001597 0.0050372492  0.029899734 
number of iterations: 44753 
   32900    120.03197      122          120            2 1.2775409e-13 1.0584943e-16          0.1 0.0090001624  0.005122634   0.02989973 
number of iterations: 43839 
   33000      120.952      128          126            2 1.2990912e-13 1.0577041e-16          0.1  0.009000165 0.0052094591  0.029899725 
number of iterations: 48105 
   33100     121.4906      131          129            2 1.321005e-13 1.056917e-16          0.1 0.0090001678 0.0052977489  0.029899721 
number of iterations: 45060 
   33200    122.03461      135          133            2 1.3432885e-13 1.0561325e-16          0.1 0.0090001706 0.0053875279  0.029899716 
number of iterations: 45520 
   33300     122.5428      138          136            2 1.3659478e-13 1.0553507e-16          0.1 0.0090001735 0.0054788214  0.029899711 
number of iterations: 48008 
   33400    123.10753      144          142            2 1.3889894e-13 1.0545713e-16          0.1 0.0090001764 0.0055716549  0.029899706 
number of iterations: 48745 
   33500    123.64863      145          143            2 1.4124197e-13 1.0537947e-16          0.1 0.0090001798 0.0056660544  0.029899701 
number of iterations: 44711 
   33600    124.18663      146          144            2 1.4362452e-13 1.0530208e-16          0.1 0.0090001826 0.0057620463  0.029899696 
number of iterations: 45869 
   33700    124.73799      148          146            2 1.4604726e-13 1.0522502e-16          0.1 0.0090001857 0.0058596574  0.029899691 
number of iterations: 51177 
   33800    125.32759      150          148            2 1.4851087e-13 1.0514817e-16          0.1 0.0090001888 0.0059589151  0.029899686 
number of iterations: 46736 
   33900     125.8556      151          149            2 1.5101604e-13 1.050716e-16          0.1  0.009000192 0.0060598471  0.029899681 
number of iterations: 46464 
   34000    126.79129      153          151            2 1.5356346e-13 1.0499536e-16          0.1 0.0090001952 0.0061624816  0.029899675 
number of iterations: 46873 
   34100    127.27949      155          153            2 1.5615386e-13 1.049194e-16          0.1 0.0090001985 0.0062668475   0.02989967 
number of iterations: 47191 
   34200    127.80567      156          154            2 1.5878795e-13 1.0484375e-16          0.1 0.0090002019 0.0063729739  0.029899664 
number of iterations: 47381 
   34300    128.35456      161          159            2 1.6146648e-13 1.0476839e-16          0.1 0.0090002053 0.0064808905  0.029899658 
number of iterations: 50068 
   34400    128.91502      165          163            2 1.6419019e-13 1.0469339e-16          0.1 0.0090002087 0.0065906274  0.029899653 
number of iterations: 49705 
   34500    129.50232      169          167            2 1.6695985e-13 1.0461854e-16          0.1 0.0090002121 0.0067022155  0.029899647 
number of iterations: 50134 
   34600    130.06517      174          172            2 1.6977622e-13 1.0454413e-16          0.1 0.0090002156 0.0068156859  0.029899641 
number of iterations: 47701 
   34700    130.60706      177          175            2 1.726401e-13 1.0447002e-16          0.1 0.0090002193 0.0069310704  0.029899635 
number of iterations: 51299 
   34800    131.20427      177          175            2 1.755523e-13 1.0439638e-16          0.1 0.0090002234 0.0070484013  0.029899628 
number of iterations: 46271 
   34900    131.72205      179          177            2 1.7851361e-13 1.0432305e-16          0.1 0.0090002269 0.0071677113  0.029899622 
number of iterations: 52007 
   35000    132.71082      180          178            2 1.8152488e-13 1.0425002e-16          0.1 0.0090002308  0.007289034  0.029899616 
Loop time of 132.711 on 6 procs for 35000 steps with 180 atoms

Performance: 227863776.944 tau/day, 263.731 timesteps/s
94.4% CPU use with 6 MPI tasks x no OpenMP threads

MPI task timing breakdown:
Section |  min time  |  avg time  |  max time  |%varavg| %total
---------------------------------------------------------------
Pair    | 0.024208   | 0.032385   | 0.056569   |   6.8 |  0.02
Neigh   | 14.426     | 15.376     | 17.138     |  31.3 | 11.59
Comm    | 15.016     | 15.046     | 15.104     |   1.1 | 11.34
Output  | 11.194     | 11.195     | 11.196     |   0.0 |  8.44
Modify  | 88.963     | 90.51      | 91.33      |  11.2 | 68.20
Other   |            | 0.5519     |            |       |  0.42

Nlocal:    30 ave 117 max 0 min
Histogram: 4 0 0 0 0 1 0 0 0 1
Nghost:    14.5 ave 45 max 0 min
Histogram: 4 0 0 0 0 0 0 0 0 2
Neighs:    115.333 ave 444 max 0 min
Histogram: 4 0 0 0 0 1 0 0 0 1

Total # of neighbors = 692
Ave neighs/atom = 3.84444
Neighbor list builds = 401
Dangerous builds = 0

Total wall time: 0:02:13
