 NUFEB Simulation

     100 atoms 
     2 atom types 
     4 nutrients 

  0.0e-4   1.00e-04  xlo xhi 
  0.0e-4   1.00e-04  ylo yhi 
  0.0e-4   1.00e-05  zlo zhi 

 Atoms 

     1 1 1.41e-06  370 5.19e-06 7.30e-05 5.82e-06 1.41e-06 
     2 1 1.63e-06  370 1.10e-05 9.39e-05 4.41e-06 1.63e-06 
     3 1 1.71e-06  370 7.62e-05 4.32e-05 5.45e-06 1.71e-06 
     4 1 1.63e-06  370 6.06e-05 4.23e-06 2.50e-06 1.63e-06 
     5 1 1.47e-06  370 4.86e-06 9.75e-05 8.24e-06 1.47e-06 
     6 1 1.85e-06  370 8.34e-05 3.35e-05 7.60e-06 1.85e-06 
     7 1 1.75e-06  370 5.58e-05 7.53e-05 6.25e-06 1.75e-06 
     8 1 1.63e-06  370 7.61e-05 3.52e-05 5.35e-06 1.63e-06 
     9 1 1.83e-06  370 7.72e-05 4.40e-05 5.54e-06 1.83e-06 
     10 1 1.39e-06  370 9.38e-05 2.79e-05 4.16e-06 1.39e-06 
     11 1 1.61e-06  370 2.06e-05 7.43e-05 4.81e-06 1.61e-06 
     12 1 1.47e-06  370 6.37e-05 6.81e-05 2.16e-06 1.47e-06 
     13 1 1.77e-06  370 1.55e-05 7.90e-06 6.57e-06 1.77e-06 
     14 1 1.87e-06  370 4.94e-05 7.23e-05 5.94e-06 1.87e-06 
     15 1 1.86e-06  370 1.95e-05 7.15e-05 2.08e-06 1.86e-06 
     16 1 1.89e-06  370 3.71e-05 4.94e-05 5.44e-06 1.89e-06 
     17 1 1.45e-06  370 8.70e-05 3.81e-05 7.73e-06 1.45e-06 
     18 1 1.49e-06  370 5.07e-06 2.68e-05 4.00e-06 1.49e-06 
     19 1 1.93e-06  370 1.47e-05 6.02e-05 4.73e-06 1.93e-06 
     20 1 1.90e-06  370 2.02e-05 2.21e-05 8.04e-06 1.90e-06 
     21 1 1.43e-06  370 5.07e-06 3.81e-05 7.26e-06 1.43e-06 
     22 1 1.40e-06  370 5.00e-05 8.03e-05 8.30e-06 1.40e-06 
     23 1 1.85e-06  370 4.34e-05 9.44e-06 6.86e-06 1.85e-06 
     24 1 1.69e-06  370 5.27e-05 7.42e-05 7.00e-06 1.69e-06 
     25 1 1.86e-06  370 5.31e-05 6.39e-05 1.96e-06 1.86e-06 
     26 1 1.81e-06  370 6.13e-06 6.59e-05 5.04e-06 1.81e-06 
     27 1 1.43e-06  370 2.88e-05 8.45e-05 8.13e-06 1.43e-06 
     28 1 1.52e-06  370 3.92e-05 9.92e-06 1.70e-06 1.52e-06 
     29 1 1.79e-06  370 9.49e-05 8.61e-05 3.41e-06 1.79e-06 
     30 1 1.83e-06  370 9.56e-05 8.47e-05 2.12e-06 1.83e-06 
     31 1 1.37e-06  370 1.04e-05 7.92e-05 3.04e-06 1.37e-06 
     32 1 1.61e-06  370 9.25e-05 7.52e-05 5.26e-06 1.61e-06 
     33 1 1.90e-06  370 5.20e-05 1.23e-05 3.05e-06 1.90e-06 
     34 1 1.75e-06  370 8.79e-05 5.30e-05 3.74e-06 1.75e-06 
     35 1 1.45e-06  370 6.29e-05 2.26e-05 5.27e-06 1.45e-06 
     36 1 1.92e-06  370 2.97e-05 5.83e-05 5.79e-06 1.92e-06 
     37 1 1.49e-06  370 1.81e-05 4.15e-05 7.71e-06 1.49e-06 
     38 1 1.40e-06  370 8.92e-06 1.52e-05 4.38e-06 1.40e-06 
     39 1 1.77e-06  370 1.79e-05 6.40e-05 4.14e-06 1.77e-06 
     40 1 1.50e-06  370 8.36e-05 5.80e-06 7.23e-06 1.50e-06 
     41 1 1.56e-06  370 2.11e-05 9.42e-05 4.88e-06 1.56e-06 
     42 1 1.74e-06  370 5.04e-05 1.74e-05 7.13e-06 1.74e-06 
     43 1 1.44e-06  370 2.25e-05 3.49e-05 3.89e-06 1.44e-06 
     44 1 1.79e-06  370 4.82e-05 4.80e-05 5.24e-06 1.79e-06 
     45 1 1.94e-06  370 2.08e-05 1.79e-05 2.10e-06 1.94e-06 
     46 1 1.43e-06  370 8.47e-05 6.33e-06 8.38e-06 1.43e-06 
     47 1 1.39e-06  370 3.96e-05 7.66e-05 8.27e-06 1.39e-06 
     48 1 1.52e-06  370 2.38e-05 1.59e-05 5.03e-06 1.52e-06 
     49 1 1.78e-06  370 7.73e-05 8.39e-05 6.68e-06 1.78e-06 
     50 1 1.91e-06  370 4.56e-05 1.40e-05 3.99e-06 1.91e-06 
     51 2 1.07e-06  230 2.93e-05 1.45e-05 4.00e-06 1.07e-06 
     52 2 1.09e-06  230 4.61e-05 7.90e-05 7.12e-06 1.09e-06 
     53 2 1.14e-06  230 2.91e-05 2.48e-05 7.17e-06 1.14e-06 
     54 2 1.38e-06  230 6.96e-05 1.12e-05 5.78e-06 1.38e-06 
     55 2 1.24e-06  230 4.50e-05 2.87e-05 6.43e-06 1.24e-06 
     56 2 9.25e-07  230 7.42e-05 9.12e-05 4.65e-06 9.25e-07 
     57 2 1.30e-06  230 2.84e-05 7.90e-06 1.90e-06 1.30e-06 
     58 2 9.06e-07  230 2.60e-05 7.21e-05 5.87e-06 9.06e-07 
     59 2 9.82e-07  230 2.62e-05 8.65e-05 6.95e-06 9.82e-07 
     60 2 1.14e-06  230 9.16e-05 9.60e-05 5.58e-06 1.14e-06 
     61 2 1.32e-06  230 5.75e-05 5.99e-05 5.95e-06 1.32e-06 
     62 2 1.12e-06  230 2.63e-05 7.16e-05 8.29e-06 1.12e-06 
     63 2 1.35e-06  230 7.26e-05 1.52e-05 4.56e-06 1.35e-06 
     64 2 9.39e-07  230 9.40e-05 2.34e-05 6.92e-06 9.39e-07 
     65 2 1.14e-06  230 5.35e-05 8.73e-05 4.17e-06 1.14e-06 
     66 2 9.49e-07  230 7.94e-05 2.48e-05 2.77e-06 9.49e-07 
     67 2 1.18e-06  230 5.64e-05 3.72e-05 7.54e-06 1.18e-06 
     68 2 9.13e-07  230 1.50e-05 5.95e-05 1.62e-06 9.13e-07 
     69 2 1.03e-06  230 6.55e-06 2.11e-05 8.67e-06 1.03e-06 
     70 2 1.10e-06  230 9.17e-05 7.57e-06 1.70e-06 1.10e-06 
     71 2 9.99e-07  230 2.71e-05 1.58e-05 8.08e-06 9.99e-07 
     72 2 9.83e-07  230 5.10e-05 7.89e-05 1.98e-06 9.83e-07 
     73 2 9.75e-07  230 2.38e-05 5.02e-05 4.16e-06 9.75e-07 
     74 2 1.37e-06  230 7.85e-05 6.69e-05 3.69e-06 1.37e-06 
     75 2 1.21e-06  230 8.35e-05 5.62e-05 2.72e-06 1.21e-06 
     76 2 1.00e-06  230 5.20e-05 5.74e-05 3.77e-06 1.00e-06 
     77 2 9.54e-07  230 6.96e-05 9.43e-05 5.75e-06 9.54e-07 
     78 2 1.10e-06  230 9.12e-06 9.27e-05 7.34e-06 1.10e-06 
     79 2 1.09e-06  230 8.18e-05 1.67e-05 7.80e-06 1.09e-06 
     80 2 1.03e-06  230 5.63e-05 2.63e-05 5.43e-06 1.03e-06 
     81 2 9.39e-07  230 1.55e-05 3.54e-05 2.56e-06 9.39e-07 
     82 2 1.31e-06  230 7.98e-05 6.00e-05 6.11e-06 1.31e-06 
     83 2 1.16e-06  230 4.27e-05 6.72e-05 6.88e-06 1.16e-06 
     84 2 1.36e-06  230 5.64e-05 2.34e-05 3.17e-06 1.36e-06 
     85 2 1.15e-06  230 8.38e-05 4.33e-05 4.23e-06 1.15e-06 
     86 2 1.01e-06  230 2.39e-05 1.14e-05 7.11e-06 1.01e-06 
     87 2 1.35e-06  230 2.38e-05 2.84e-05 3.94e-06 1.35e-06 
     88 2 1.37e-06  230 7.02e-05 5.16e-05 3.94e-06 1.37e-06 
     89 2 1.07e-06  230 5.83e-05 6.82e-05 4.69e-06 1.07e-06 
     90 2 1.28e-06  230 6.19e-05 5.90e-05 1.60e-06 1.28e-06 
     91 2 9.02e-07  230 4.59e-05 6.96e-05 3.78e-06 9.02e-07 
     92 2 1.31e-06  230 4.19e-05 6.36e-05 5.68e-06 1.31e-06 
     93 2 1.35e-06  230 5.28e-05 9.57e-05 3.43e-06 1.35e-06 
     94 2 1.13e-06  230 5.64e-05 6.06e-05 5.74e-06 1.13e-06 
     95 2 9.16e-07  230 9.31e-06 4.84e-05 5.65e-06 9.16e-07 
     96 2 1.32e-06  230 8.05e-06 1.33e-05 6.43e-06 1.32e-06 
     97 2 1.36e-06  230 7.07e-05 9.76e-05 1.47e-06 1.36e-06 
     98 2 1.30e-06  230 2.90e-05 6.41e-05 3.85e-06 1.30e-06 
     99 2 1.10e-06  230 1.58e-05 5.77e-06 3.91e-06 1.10e-06 
     100 2 1.15e-06  230 6.39e-05 5.10e-05 5.74e-06 1.15e-06 

 Nutrients 

     1 sub g nn nn nn 1.00e-01 1.00e-01 
     2 o2 l nn nn nd 9.00e-03 9.00e-03 
     3 suc l nn nn nn 3.42e-20 3.42e-20 
     4 co2 l nn nn nd 2.99e-02 2.99e-02 

 Type Name 

     1 cyano  
     2 ecw  

 Diffusion Coeffs 

     sub 0 
     o2 2.3e-09 
     suc 5.2e-10 
     co2 1.9e-09 

 Growth Rate 

     cyano 1.67e-05 
     ecw 1.6e-05 

 Ks 

     cyano 0.00035 0.0002 0.01 0.000138 
     ecw 0 0.001 3.6 0.05 

 Yield 

     cyano 0.55 
     ecw 0.43 

 Maintenance 

     cyano 0 
     ecw 9.5e-07 

 Decay 

     cyano 0 
     ecw 0 



