ITEM: TIMESTEP
0
ITEM: NUMBER OF ATOMS
50
ITEM: BOX BOUNDS ff ff ff
0.0000000000000000e+00 1.0000000000000000e-04
0.0000000000000000e+00 1.0000000000000000e-04
0.0000000000000000e+00 5.0000000000000002e-05
ITEM: ATOMS id type diameter x y z 
5 1 1.47e-06 3.05e-05 3.02e-05 3.89e-06 
26 1 1.48e-06 3.27e-05 3.3e-05 5.07e-06 
35 1 1.38e-06 2.46e-05 2.11e-05 7.67e-06 
25 1 1.6e-06 4.25e-05 7.13e-06 8.46e-06 
12 1 1.83e-06 3.41e-05 9.28e-06 8.37e-06 
18 1 1.92e-06 3.99e-05 3.11e-05 9.29e-06 
1 1 1.86e-06 4.68e-05 2.27e-05 2.08e-05 
27 1 1.4e-06 2.47e-06 3.01e-05 2.18e-05 
17 1 1.82e-06 4.52e-05 1.04e-05 2.75e-05 
7 1 1.68e-06 5.35e-06 2.22e-05 3.01e-05 
40 1 1.4e-06 2.89e-05 3.89e-05 3.76e-05 
43 1 1.65e-06 3.76e-05 8.73e-06 3.83e-05 
19 1 1.51e-06 3.28e-05 4.93e-06 4.65e-05 
14 1 1.77e-06 3.01e-06 6.84e-05 7.8e-06 
29 1 1.42e-06 6.97e-06 5.49e-05 1.12e-05 
28 1 1.92e-06 4.9e-05 7.59e-05 1.23e-05 
47 1 1.6e-06 4.49e-05 5.48e-05 2.13e-05 
23 1 1.72e-06 3.04e-05 7.7e-05 2.12e-05 
3 1 1.71e-06 7.49e-06 5.97e-05 2.39e-05 
16 1 1.46e-06 7.42e-06 7.28e-05 2.71e-05 
39 1 1.72e-06 8.88e-06 6.07e-05 3.65e-05 
6 1 1.54e-06 1.8e-05 5.1e-05 4e-05 
38 1 1.69e-06 1.29e-05 7.49e-05 4.09e-05 
49 1 1.7e-06 1.54e-05 5.56e-05 4.12e-05 
42 1 1.84e-06 4.47e-05 9.6e-05 4.24e-05 
9 1 1.39e-06 1.15e-05 9.51e-05 4.33e-05 
10 1 1.55e-06 2.59e-05 8.55e-05 4.44e-05 
30 1 1.42e-06 2.34e-05 9.46e-05 4.7e-05 
46 1 1.74e-06 6.04e-05 3.63e-05 2.65e-06 
48 1 1.92e-06 6.64e-05 1.89e-05 1.03e-05 
32 1 1.64e-06 8.92e-05 3e-05 1.46e-05 
20 1 1.57e-06 5.45e-05 7.88e-06 1.78e-05 
34 1 1.67e-06 5.26e-05 1.29e-05 1.86e-05 
2 1 1.72e-06 8.56e-05 9.84e-06 2.91e-05 
44 1 1.66e-06 6.48e-05 1.18e-05 2.99e-05 
50 1 1.38e-06 6.01e-05 1.7e-05 3.07e-05 
11 1 1.47e-06 9.83e-05 2.64e-05 3.23e-05 
15 1 1.83e-06 6.99e-05 2.73e-05 3.51e-05 
37 1 1.86e-06 7.1e-05 7.15e-06 3.59e-05 
24 1 1.71e-06 5.8e-05 2.24e-05 3.94e-05 
13 1 1.62e-06 7.17e-05 7.67e-06 4.45e-05 
21 1 1.78e-06 9.15e-05 3.99e-05 4.77e-05 
36 1 1.71e-06 7.07e-05 9.34e-05 1.34e-05 
4 1 1.91e-06 7.43e-05 9.2e-05 1.8e-05 
31 1 1.53e-06 8.22e-05 5.95e-05 2.09e-05 
33 1 1.6e-06 5.13e-05 9.44e-05 2.87e-05 
45 1 1.41e-06 7.98e-05 6.28e-05 3.36e-05 
8 1 1.5e-06 6.58e-05 7.86e-05 4.07e-05 
22 1 1.39e-06 6.41e-05 7.31e-05 4.43e-05 
41 1 1.57e-06 9.71e-05 7.85e-05 4.47e-05 
ITEM: TIMESTEP
100
ITEM: NUMBER OF ATOMS
50
ITEM: BOX BOUNDS ff ff ff
0.0000000000000000e+00 1.0000000000000000e-04
0.0000000000000000e+00 1.0000000000000000e-04
0.0000000000000000e+00 5.0000000000000002e-05
ITEM: ATOMS id type diameter x y z 
5 1 1.47811e-06 3.05e-05 3.02e-05 3.89e-06 
26 1 1.48817e-06 3.27e-05 3.3e-05 5.07e-06 
35 1 1.38762e-06 2.46e-05 2.11e-05 7.67e-06 
25 1 1.60883e-06 4.25e-05 7.13e-06 8.46e-06 
12 1 1.8401e-06 3.41e-05 9.28e-06 8.37e-06 
18 1 1.9306e-06 3.99e-05 3.11e-05 9.29e-06 
1 1 1.87027e-06 4.68e-05 2.27e-05 2.08e-05 
27 1 1.40773e-06 2.47e-06 3.01e-05 2.18e-05 
17 1 1.83005e-06 4.52e-05 1.04e-05 2.75e-05 
7 1 1.68927e-06 5.35e-06 2.22e-05 3.01e-05 
40 1 1.40773e-06 2.89e-05 3.89e-05 3.76e-05 
43 1 1.65911e-06 3.76e-05 8.73e-06 3.83e-05 
19 1 1.51833e-06 3.28e-05 4.93e-06 4.65e-05 
14 1 1.77977e-06 3.01e-06 6.84e-05 7.8e-06 
29 1 1.42784e-06 6.97e-06 5.49e-05 1.12e-05 
28 1 1.9306e-06 4.9e-05 7.59e-05 1.23e-05 
47 1 1.60883e-06 4.49e-05 5.48e-05 2.13e-05 
23 1 1.72949e-06 3.04e-05 7.7e-05 2.12e-05 
3 1 1.71944e-06 7.49e-06 5.97e-05 2.39e-05 
16 1 1.46806e-06 7.42e-06 7.28e-05 2.71e-05 
39 1 1.72949e-06 8.88e-06 6.07e-05 3.65e-05 
6 1 1.5485e-06 1.8e-05 5.1e-05 4e-05 
38 1 1.69933e-06 1.29e-05 7.49e-05 4.09e-05 
49 1 1.70938e-06 1.54e-05 5.56e-05 4.12e-05 
42 1 1.85016e-06 4.47e-05 9.6e-05 4.24e-05 
9 1 1.39767e-06 1.15e-05 9.51e-05 4.33e-05 
10 1 1.55856e-06 2.59e-05 8.55e-05 4.44e-05 
30 1 1.42784e-06 2.34e-05 9.46e-05 4.7e-05 
46 1 1.7496e-06 6.04e-05 3.63e-05 2.65e-06 
48 1 1.9306e-06 6.64e-05 1.89e-05 1.03e-05 
32 1 1.64905e-06 8.92e-05 3e-05 1.46e-05 
20 1 1.57867e-06 5.45e-05 7.88e-06 1.78e-05 
34 1 1.67922e-06 5.26e-05 1.29e-05 1.86e-05 
2 1 1.72949e-06 8.56e-05 9.84e-06 2.91e-05 
44 1 1.66916e-06 6.48e-05 1.18e-05 2.99e-05 
50 1 1.38762e-06 6.01e-05 1.7e-05 3.07e-05 
11 1 1.47811e-06 9.83e-05 2.64e-05 3.23e-05 
15 1 1.8401e-06 6.99e-05 2.73e-05 3.51e-05 
37 1 1.87027e-06 7.1e-05 7.15e-06 3.59e-05 
24 1 1.71944e-06 5.8e-05 2.24e-05 3.94e-05 
13 1 1.62894e-06 7.17e-05 7.67e-06 4.45e-05 
21 1 1.78982e-06 9.15e-05 3.99e-05 4.77e-05 
36 1 1.71944e-06 7.07e-05 9.34e-05 1.34e-05 
4 1 1.92054e-06 7.43e-05 9.2e-05 1.8e-05 
31 1 1.53844e-06 8.22e-05 5.95e-05 2.09e-05 
33 1 1.60883e-06 5.13e-05 9.44e-05 2.87e-05 
45 1 1.41778e-06 7.98e-05 6.28e-05 3.36e-05 
8 1 1.50828e-06 6.58e-05 7.86e-05 4.07e-05 
22 1 1.39767e-06 6.41e-05 7.31e-05 4.43e-05 
41 1 1.57867e-06 9.71e-05 7.85e-05 4.47e-05 
ITEM: TIMESTEP
200
ITEM: NUMBER OF ATOMS
50
ITEM: BOX BOUNDS ff ff ff
0.0000000000000000e+00 1.0000000000000000e-04
0.0000000000000000e+00 1.0000000000000000e-04
0.0000000000000000e+00 5.0000000000000002e-05
ITEM: ATOMS id type diameter x y z 
5 1 1.48627e-06 3.05e-05 3.02e-05 3.89e-06 
26 1 1.49638e-06 3.27e-05 3.3e-05 5.07e-06 
35 1 1.39528e-06 2.46e-05 2.11e-05 7.67e-06 
25 1 1.61771e-06 4.25e-05 7.13e-06 8.46e-06 
12 1 1.85026e-06 3.41e-05 9.28e-06 8.37e-06 
18 1 1.94125e-06 3.99e-05 3.11e-05 9.29e-06 
1 1 1.88059e-06 4.68e-05 2.27e-05 2.08e-05 
27 1 1.4155e-06 2.47e-06 3.01e-05 2.18e-05 
17 1 1.84015e-06 4.52e-05 1.04e-05 2.75e-05 
7 1 1.6986e-06 5.35e-06 2.22e-05 3.01e-05 
40 1 1.4155e-06 2.89e-05 3.89e-05 3.76e-05 
43 1 1.66826e-06 3.76e-05 8.73e-06 3.83e-05 
19 1 1.52671e-06 3.28e-05 4.93e-06 4.65e-05 
14 1 1.78959e-06 3.01e-06 6.84e-05 7.8e-06 
29 1 1.43572e-06 6.97e-06 5.49e-05 1.12e-05 
28 1 1.94125e-06 4.9e-05 7.59e-05 1.23e-05 
47 1 1.61771e-06 4.49e-05 5.48e-05 2.13e-05 
23 1 1.73904e-06 3.04e-05 7.7e-05 2.12e-05 
3 1 1.72893e-06 7.49e-06 5.97e-05 2.39e-05 
16 1 1.47616e-06 7.42e-06 7.28e-05 2.71e-05 
39 1 1.73904e-06 8.88e-06 6.07e-05 3.65e-05 
6 1 1.55705e-06 1.8e-05 5.1e-05 4e-05 
38 1 1.70871e-06 1.29e-05 7.49e-05 4.09e-05 
49 1 1.71882e-06 1.54e-05 5.56e-05 4.12e-05 
42 1 1.86037e-06 4.47e-05 9.6e-05 4.24e-05 
9 1 1.40539e-06 1.15e-05 9.51e-05 4.33e-05 
10 1 1.56716e-06 2.59e-05 8.55e-05 4.44e-05 
30 1 1.43572e-06 2.34e-05 9.46e-05 4.7e-05 
46 1 1.75926e-06 6.04e-05 3.63e-05 2.65e-06 
48 1 1.94125e-06 6.64e-05 1.89e-05 1.03e-05 
32 1 1.65815e-06 8.92e-05 3e-05 1.46e-05 
20 1 1.58738e-06 5.45e-05 7.88e-06 1.78e-05 
34 1 1.68849e-06 5.26e-05 1.29e-05 1.86e-05 
2 1 1.73904e-06 8.56e-05 9.84e-06 2.91e-05 
44 1 1.67838e-06 6.48e-05 1.18e-05 2.99e-05 
50 1 1.39528e-06 6.01e-05 1.7e-05 3.07e-05 
11 1 1.48627e-06 9.83e-05 2.64e-05 3.23e-05 
15 1 1.85026e-06 6.99e-05 2.73e-05 3.51e-05 
37 1 1.88059e-06 7.1e-05 7.15e-06 3.59e-05 
24 1 1.72893e-06 5.8e-05 2.24e-05 3.94e-05 
13 1 1.63793e-06 7.17e-05 7.67e-06 4.45e-05 
21 1 1.7997e-06 9.15e-05 3.99e-05 4.77e-05 
36 1 1.72893e-06 7.07e-05 9.34e-05 1.34e-05 
4 1 1.93114e-06 7.43e-05 9.2e-05 1.8e-05 
31 1 1.54694e-06 8.22e-05 5.95e-05 2.09e-05 
33 1 1.61771e-06 5.13e-05 9.44e-05 2.87e-05 
45 1 1.42561e-06 7.98e-05 6.28e-05 3.36e-05 
8 1 1.5166e-06 6.58e-05 7.86e-05 4.07e-05 
22 1 1.40539e-06 6.41e-05 7.31e-05 4.43e-05 
41 1 1.58738e-06 9.71e-05 7.85e-05 4.47e-05 
ITEM: TIMESTEP
300
ITEM: NUMBER OF ATOMS
50
ITEM: BOX BOUNDS ff ff ff
0.0000000000000000e+00 1.0000000000000000e-04
0.0000000000000000e+00 1.0000000000000000e-04
0.0000000000000000e+00 5.0000000000000002e-05
ITEM: ATOMS id type diameter x y z 
5 1 1.49448e-06 3.05e-05 3.02e-05 3.89e-06 
26 1 1.50464e-06 3.27e-05 3.3e-05 5.07e-06 
35 1 1.40298e-06 2.46e-05 2.11e-05 7.67e-06 
25 1 1.62664e-06 4.25e-05 7.13e-06 8.46e-06 
12 1 1.86047e-06 3.41e-05 9.28e-06 8.37e-06 
18 1 1.95197e-06 3.99e-05 3.11e-05 9.29e-06 
1 1 1.89097e-06 4.68e-05 2.27e-05 2.08e-05 
27 1 1.42331e-06 2.47e-06 3.01e-05 2.18e-05 
17 1 1.8503e-06 4.52e-05 1.04e-05 2.75e-05 
7 1 1.70797e-06 5.35e-06 2.22e-05 3.01e-05 
40 1 1.42331e-06 2.89e-05 3.89e-05 3.76e-05 
43 1 1.67747e-06 3.76e-05 8.73e-06 3.83e-05 
19 1 1.53514e-06 3.28e-05 4.93e-06 4.65e-05 
14 1 1.79947e-06 3.01e-06 6.84e-05 7.8e-06 
29 1 1.44364e-06 6.97e-06 5.49e-05 1.12e-05 
28 1 1.95197e-06 4.9e-05 7.59e-05 1.23e-05 
47 1 1.62664e-06 4.49e-05 5.48e-05 2.13e-05 
23 1 1.74864e-06 3.04e-05 7.7e-05 2.12e-05 
3 1 1.73847e-06 7.49e-06 5.97e-05 2.39e-05 
16 1 1.48431e-06 7.42e-06 7.28e-05 2.71e-05 
39 1 1.74864e-06 8.88e-06 6.07e-05 3.65e-05 
6 1 1.56564e-06 1.8e-05 5.1e-05 4e-05 
38 1 1.71814e-06 1.29e-05 7.49e-05 4.09e-05 
49 1 1.7283e-06 1.54e-05 5.56e-05 4.12e-05 
42 1 1.87064e-06 4.47e-05 9.6e-05 4.24e-05 
9 1 1.41314e-06 1.15e-05 9.51e-05 4.33e-05 
10 1 1.57581e-06 2.59e-05 8.55e-05 4.44e-05 
30 1 1.44364e-06 2.34e-05 9.46e-05 4.7e-05 
46 1 1.76897e-06 6.04e-05 3.63e-05 2.65e-06 
48 1 1.95197e-06 6.64e-05 1.89e-05 1.03e-05 
32 1 1.66731e-06 8.92e-05 3e-05 1.46e-05 
20 1 1.59614e-06 5.45e-05 7.88e-06 1.78e-05 
34 1 1.69781e-06 5.26e-05 1.29e-05 1.86e-05 
2 1 1.74864e-06 8.56e-05 9.84e-06 2.91e-05 
44 1 1.68764e-06 6.48e-05 1.18e-05 2.99e-05 
50 1 1.40298e-06 6.01e-05 1.7e-05 3.07e-05 
11 1 1.49448e-06 9.83e-05 2.64e-05 3.23e-05 
15 1 1.86047e-06 6.99e-05 2.73e-05 3.51e-05 
37 1 1.89097e-06 7.1e-05 7.15e-06 3.59e-05 
24 1 1.73847e-06 5.8e-05 2.24e-05 3.94e-05 
13 1 1.64697e-06 7.17e-05 7.67e-06 4.45e-05 
21 1 1.80964e-06 9.15e-05 3.99e-05 4.77e-05 
36 1 1.73847e-06 7.07e-05 9.34e-05 1.34e-05 
4 1 1.9418e-06 7.43e-05 9.2e-05 1.8e-05 
31 1 1.55547e-06 8.22e-05 5.95e-05 2.09e-05 
33 1 1.62664e-06 5.13e-05 9.44e-05 2.87e-05 
45 1 1.43348e-06 7.98e-05 6.28e-05 3.36e-05 
8 1 1.52498e-06 6.58e-05 7.86e-05 4.07e-05 
22 1 1.41314e-06 6.41e-05 7.31e-05 4.43e-05 
41 1 1.59614e-06 9.71e-05 7.85e-05 4.47e-05 
ITEM: TIMESTEP
400
ITEM: NUMBER OF ATOMS
50
ITEM: BOX BOUNDS ff ff ff
0.0000000000000000e+00 1.0000000000000000e-04
0.0000000000000000e+00 1.0000000000000000e-04
0.0000000000000000e+00 5.0000000000000002e-05
ITEM: ATOMS id type diameter x y z 
5 1 1.50272e-06 3.05e-05 3.02e-05 3.89e-06 
26 1 1.51295e-06 3.27e-05 3.3e-05 5.07e-06 
35 1 1.41072e-06 2.46e-05 2.11e-05 7.67e-06 
25 1 1.63562e-06 4.25e-05 7.13e-06 8.46e-06 
12 1 1.87074e-06 3.41e-05 9.28e-06 8.37e-06 
18 1 1.96274e-06 3.99e-05 3.11e-05 9.29e-06 
1 1 1.90141e-06 4.68e-05 2.27e-05 2.08e-05 
27 1 1.43117e-06 2.47e-06 3.01e-05 2.18e-05 
17 1 1.86052e-06 4.52e-05 1.04e-05 2.75e-05 
7 1 1.7174e-06 5.35e-06 2.22e-05 3.01e-05 
40 1 1.43117e-06 2.89e-05 3.89e-05 3.76e-05 
43 1 1.68673e-06 3.76e-05 8.73e-06 3.83e-05 
19 1 1.54361e-06 3.28e-05 4.93e-06 4.65e-05 
14 1 1.8094e-06 3.01e-06 6.84e-05 7.8e-06 
29 1 1.45161e-06 6.97e-06 5.49e-05 1.12e-05 
28 1 1.96274e-06 4.9e-05 7.59e-05 1.23e-05 
47 1 1.63562e-06 4.49e-05 5.48e-05 2.13e-05 
23 1 1.75829e-06 3.04e-05 7.7e-05 2.12e-05 
3 1 1.74807e-06 7.49e-06 5.97e-05 2.39e-05 
16 1 1.4925e-06 7.42e-06 7.28e-05 2.71e-05 
39 1 1.75829e-06 8.88e-06 6.07e-05 3.65e-05 
6 1 1.57428e-06 1.8e-05 5.1e-05 4e-05 
38 1 1.72762e-06 1.29e-05 7.49e-05 4.09e-05 
49 1 1.73784e-06 1.54e-05 5.56e-05 4.12e-05 
42 1 1.88096e-06 4.47e-05 9.6e-05 4.24e-05 
9 1 1.42094e-06 1.15e-05 9.51e-05 4.33e-05 
10 1 1.58451e-06 2.59e-05 8.55e-05 4.44e-05 
30 1 1.45161e-06 2.34e-05 9.46e-05 4.7e-05 
46 1 1.77873e-06 6.04e-05 3.63e-05 2.65e-06 
48 1 1.96274e-06 6.64e-05 1.89e-05 1.03e-05 
32 1 1.67651e-06 8.92e-05 3e-05 1.46e-05 
20 1 1.60495e-06 5.45e-05 7.88e-06 1.78e-05 
34 1 1.70718e-06 5.26e-05 1.29e-05 1.86e-05 
2 1 1.75829e-06 8.56e-05 9.84e-06 2.91e-05 
44 1 1.69695e-06 6.48e-05 1.18e-05 2.99e-05 
50 1 1.41072e-06 6.01e-05 1.7e-05 3.07e-05 
11 1 1.50272e-06 9.83e-05 2.64e-05 3.23e-05 
15 1 1.87074e-06 6.99e-05 2.73e-05 3.51e-05 
37 1 1.90141e-06 7.1e-05 7.15e-06 3.59e-05 
24 1 1.74807e-06 5.8e-05 2.24e-05 3.94e-05 
13 1 1.65606e-06 7.17e-05 7.67e-06 4.45e-05 
21 1 1.81963e-06 9.15e-05 3.99e-05 4.77e-05 
36 1 1.74807e-06 7.07e-05 9.34e-05 1.34e-05 
4 1 1.95252e-06 7.43e-05 9.2e-05 1.8e-05 
31 1 1.56406e-06 8.22e-05 5.95e-05 2.09e-05 
33 1 1.63562e-06 5.13e-05 9.44e-05 2.87e-05 
45 1 1.44139e-06 7.98e-05 6.28e-05 3.36e-05 
8 1 1.53339e-06 6.58e-05 7.86e-05 4.07e-05 
22 1 1.42094e-06 6.41e-05 7.31e-05 4.43e-05 
41 1 1.60495e-06 9.71e-05 7.85e-05 4.47e-05 
ITEM: TIMESTEP
500
ITEM: NUMBER OF ATOMS
53
ITEM: BOX BOUNDS ff ff ff
0.0000000000000000e+00 1.0000000000000000e-04
0.0000000000000000e+00 1.0000000000000000e-04
0.0000000000000000e+00 5.0000000000000002e-05
ITEM: ATOMS id type diameter x y z 
5 1 1.51102e-06 3.05e-05 3.02e-05 3.89e-06 
26 1 1.5213e-06 3.27e-05 3.3e-05 5.07e-06 
35 1 1.41851e-06 2.46e-05 2.11e-05 7.67e-06 
25 1 1.64465e-06 4.25e-05 7.13e-06 8.46e-06 
12 1 1.88106e-06 3.41e-05 9.28e-06 8.37e-06 
18 1 1.58835e-06 4.05024e-05 3.14021e-05 9.70944e-06 
51 1 1.54388e-06 3.93145e-05 3.08064e-05 8.8823e-06 
1 1 1.9119e-06 4.68e-05 2.27e-05 2.08e-05 
27 1 1.43907e-06 2.47e-06 3.01e-05 2.18e-05 
17 1 1.87078e-06 4.52e-05 1.04e-05 2.75e-05 
7 1 1.72688e-06 5.35e-06 2.22e-05 3.01e-05 
40 1 1.43907e-06 2.89e-05 3.89e-05 3.76e-05 
43 1 1.69604e-06 3.76e-05 8.73e-06 3.83e-05 
19 1 1.55213e-06 3.28e-05 4.93e-06 4.65e-05 
14 1 1.81939e-06 3.01e-06 6.84e-05 7.8e-06 
29 1 1.45962e-06 6.97e-06 5.49e-05 1.12e-05 
28 1 1.58835e-06 4.96024e-05 7.62021e-05 1.27194e-05 
52 1 1.54388e-06 4.84145e-05 7.56064e-05 1.18923e-05 
47 1 1.64465e-06 4.49e-05 5.48e-05 2.13e-05 
23 1 1.76799e-06 3.04e-05 7.7e-05 2.12e-05 
3 1 1.75772e-06 7.49e-06 5.97e-05 2.39e-05 
16 1 1.50074e-06 7.42e-06 7.28e-05 2.71e-05 
39 1 1.76799e-06 8.88e-06 6.07e-05 3.65e-05 
6 1 1.58297e-06 1.8e-05 5.1e-05 4e-05 
38 1 1.73716e-06 1.29e-05 7.49e-05 4.09e-05 
49 1 1.74744e-06 1.54e-05 5.56e-05 4.12e-05 
42 1 1.89134e-06 4.47e-05 9.6e-05 4.24e-05 
9 1 1.42879e-06 1.15e-05 9.51e-05 4.33e-05 
10 1 1.59325e-06 2.59e-05 8.55e-05 4.44e-05 
30 1 1.45962e-06 2.34e-05 9.46e-05 4.7e-05 
46 1 1.78855e-06 6.04e-05 3.63e-05 2.65e-06 
48 1 1.58835e-06 6.70024e-05 1.92021e-05 1.07194e-05 
32 1 1.68576e-06 8.92e-05 3e-05 1.46e-05 
20 1 1.61381e-06 5.45e-05 7.88e-06 1.78e-05 
34 1 1.7166e-06 5.26e-05 1.29e-05 1.86e-05 
53 1 1.54388e-06 6.58145e-05 1.86064e-05 9.8923e-06 
2 1 1.76799e-06 8.56e-05 9.84e-06 2.91e-05 
44 1 1.70632e-06 6.48e-05 1.18e-05 2.99e-05 
50 1 1.41851e-06 6.01e-05 1.7e-05 3.07e-05 
11 1 1.51102e-06 9.83e-05 2.64e-05 3.23e-05 
15 1 1.88106e-06 6.99e-05 2.73e-05 3.51e-05 
37 1 1.9119e-06 7.1e-05 7.15e-06 3.59e-05 
24 1 1.75772e-06 5.8e-05 2.24e-05 3.94e-05 
13 1 1.6652e-06 7.17e-05 7.67e-06 4.45e-05 
21 1 1.82967e-06 9.15e-05 3.99e-05 4.77e-05 
36 1 1.75772e-06 7.07e-05 9.34e-05 1.34e-05 
4 1 1.9633e-06 7.43e-05 9.2e-05 1.8e-05 
31 1 1.57269e-06 8.22e-05 5.95e-05 2.09e-05 
33 1 1.64465e-06 5.13e-05 9.44e-05 2.87e-05 
45 1 1.44934e-06 7.98e-05 6.28e-05 3.36e-05 
8 1 1.54186e-06 6.58e-05 7.86e-05 4.07e-05 
22 1 1.42879e-06 6.41e-05 7.31e-05 4.43e-05 
41 1 1.61381e-06 9.71e-05 7.85e-05 4.47e-05 
ITEM: TIMESTEP
600
ITEM: NUMBER OF ATOMS
54
ITEM: BOX BOUNDS ff ff ff
0.0000000000000000e+00 1.0000000000000000e-04
0.0000000000000000e+00 1.0000000000000000e-04
0.0000000000000000e+00 5.0000000000000002e-05
ITEM: ATOMS id type diameter x y z 
5 1 1.51936e-06 3.05e-05 3.02e-05 3.89e-06 
26 1 1.52969e-06 3.27e-05 3.3e-05 5.07e-06 
35 1 1.42634e-06 2.46e-05 2.11e-05 7.67e-06 
25 1 1.65372e-06 4.25e-05 7.13e-06 8.46e-06 
12 1 1.89145e-06 3.41e-05 9.28e-06 8.37e-06 
18 1 1.59711e-06 4.05024e-05 3.14021e-05 9.70944e-06 
51 1 1.5524e-06 3.93145e-05 3.08064e-05 8.8823e-06 
1 1 1.92245e-06 4.68e-05 2.27e-05 2.08e-05 
27 1 1.44701e-06 2.47e-06 3.01e-05 2.18e-05 
17 1 1.88111e-06 4.52e-05 1.04e-05 2.75e-05 
7 1 1.73641e-06 5.35e-06 2.22e-05 3.01e-05 
40 1 1.44701e-06 2.89e-05 3.89e-05 3.76e-05 
43 1 1.7054e-06 3.76e-05 8.73e-06 3.83e-05 
19 1 1.5607e-06 3.28e-05 4.93e-06 4.65e-05 
14 1 1.82943e-06 3.01e-06 6.84e-05 7.8e-06 
29 1 1.46768e-06 6.97e-06 5.49e-05 1.12e-05 
28 1 1.59711e-06 4.96024e-05 7.62021e-05 1.27194e-05 
52 1 1.5524e-06 4.84145e-05 7.56064e-05 1.18923e-05 
47 1 1.65372e-06 4.49e-05 5.48e-05 2.13e-05 
23 1 1.77775e-06 3.04e-05 7.7e-05 2.12e-05 
3 1 1.76742e-06 7.49e-06 5.97e-05 2.39e-05 
16 1 1.50902e-06 7.42e-06 7.28e-05 2.71e-05 
39 1 1.77775e-06 8.88e-06 6.07e-05 3.65e-05 
6 1 1.59171e-06 1.8e-05 5.1e-05 4e-05 
38 1 1.74675e-06 1.29e-05 7.49e-05 4.09e-05 
49 1 1.75708e-06 1.54e-05 5.56e-05 4.12e-05 
42 1 1.90178e-06 4.47e-05 9.6e-05 4.24e-05 
9 1 1.43667e-06 1.15e-05 9.51e-05 4.33e-05 
10 1 1.60204e-06 2.59e-05 8.55e-05 4.44e-05 
30 1 1.46768e-06 2.34e-05 9.46e-05 4.7e-05 
46 1 1.79842e-06 6.04e-05 3.63e-05 2.65e-06 
48 1 1.59711e-06 6.70024e-05 1.92021e-05 1.07194e-05 
32 1 1.69507e-06 8.92e-05 3e-05 1.46e-05 
20 1 1.62272e-06 5.45e-05 7.88e-06 1.78e-05 
34 1 1.72607e-06 5.26e-05 1.29e-05 1.86e-05 
53 1 1.5524e-06 6.58145e-05 1.86064e-05 9.8923e-06 
2 1 1.77775e-06 8.56e-05 9.84e-06 2.91e-05 
44 1 1.71574e-06 6.48e-05 1.18e-05 2.99e-05 
50 1 1.42634e-06 6.01e-05 1.7e-05 3.07e-05 
11 1 1.51936e-06 9.83e-05 2.64e-05 3.23e-05 
15 1 1.89145e-06 6.99e-05 2.73e-05 3.51e-05 
37 1 1.92245e-06 7.1e-05 7.15e-06 3.59e-05 
24 1 1.76742e-06 5.8e-05 2.24e-05 3.94e-05 
13 1 1.6744e-06 7.17e-05 7.67e-06 4.45e-05 
21 1 1.83977e-06 9.15e-05 3.99e-05 4.77e-05 
36 1 1.76742e-06 7.07e-05 9.34e-05 1.34e-05 
4 1 1.58879e-06 7.49026e-05 9.23022e-05 1.84196e-05 
54 1 1.54431e-06 7.37143e-05 9.17063e-05 1.75922e-05 
31 1 1.58137e-06 8.22e-05 5.95e-05 2.09e-05 
33 1 1.65372e-06 5.13e-05 9.44e-05 2.87e-05 
45 1 1.45734e-06 7.98e-05 6.28e-05 3.36e-05 
8 1 1.55037e-06 6.58e-05 7.86e-05 4.07e-05 
22 1 1.43667e-06 6.41e-05 7.31e-05 4.43e-05 
41 1 1.62272e-06 9.71e-05 7.85e-05 4.47e-05 
ITEM: TIMESTEP
700
ITEM: NUMBER OF ATOMS
54
ITEM: BOX BOUNDS ff ff ff
0.0000000000000000e+00 1.0000000000000000e-04
0.0000000000000000e+00 1.0000000000000000e-04
0.0000000000000000e+00 5.0000000000000002e-05
ITEM: ATOMS id type diameter x y z 
5 1 1.52774e-06 3.05e-05 3.02e-05 3.89e-06 
26 1 1.53814e-06 3.27e-05 3.3e-05 5.07e-06 
35 1 1.43421e-06 2.46e-05 2.11e-05 7.67e-06 
25 1 1.66285e-06 4.25e-05 7.13e-06 8.46e-06 
12 1 1.90189e-06 3.41e-05 9.28e-06 8.37e-06 
18 1 1.60593e-06 4.05024e-05 3.14021e-05 9.70944e-06 
51 1 1.56097e-06 3.93145e-05 3.08064e-05 8.8823e-06 
1 1 1.93306e-06 4.68e-05 2.27e-05 2.08e-05 
27 1 1.45499e-06 2.47e-06 3.01e-05 2.18e-05 
17 1 1.89149e-06 4.52e-05 1.04e-05 2.75e-05 
7 1 1.74599e-06 5.35e-06 2.22e-05 3.01e-05 
40 1 1.45499e-06 2.89e-05 3.89e-05 3.76e-05 
43 1 1.71482e-06 3.76e-05 8.73e-06 3.83e-05 
19 1 1.56932e-06 3.28e-05 4.93e-06 4.65e-05 
14 1 1.83953e-06 3.01e-06 6.84e-05 7.8e-06 
29 1 1.47578e-06 6.97e-06 5.49e-05 1.12e-05 
28 1 1.60593e-06 4.96024e-05 7.62021e-05 1.27194e-05 
52 1 1.56097e-06 4.84145e-05 7.56064e-05 1.18923e-05 
47 1 1.66285e-06 4.49e-05 5.48e-05 2.13e-05 
23 1 1.78757e-06 3.04e-05 7.7e-05 2.12e-05 
3 1 1.77717e-06 7.49e-06 5.97e-05 2.39e-05 
16 1 1.51735e-06 7.42e-06 7.28e-05 2.71e-05 
39 1 1.78757e-06 8.88e-06 6.07e-05 3.65e-05 
6 1 1.60049e-06 1.8e-05 5.1e-05 4e-05 
38 1 1.75639e-06 1.29e-05 7.49e-05 4.09e-05 
49 1 1.76678e-06 1.54e-05 5.56e-05 4.12e-05 
42 1 1.91228e-06 4.47e-05 9.6e-05 4.24e-05 
9 1 1.4446e-06 1.15e-05 9.51e-05 4.33e-05 
10 1 1.61089e-06 2.59e-05 8.55e-05 4.44e-05 
30 1 1.47578e-06 2.34e-05 9.46e-05 4.7e-05 
46 1 1.80835e-06 6.04e-05 3.63e-05 2.65e-06 
48 1 1.60593e-06 6.70024e-05 1.92021e-05 1.07194e-05 
32 1 1.70442e-06 8.92e-05 3e-05 1.46e-05 
20 1 1.63167e-06 5.45e-05 7.88e-06 1.78e-05 
34 1 1.7356e-06 5.26e-05 1.29e-05 1.86e-05 
53 1 1.56097e-06 6.58145e-05 1.86064e-05 9.8923e-06 
2 1 1.78757e-06 8.56e-05 9.84e-06 2.91e-05 
44 1 1.72521e-06 6.48e-05 1.18e-05 2.99e-05 
50 1 1.43421e-06 6.01e-05 1.7e-05 3.07e-05 
11 1 1.52774e-06 9.83e-05 2.64e-05 3.23e-05 
15 1 1.90189e-06 6.99e-05 2.73e-05 3.51e-05 
37 1 1.93306e-06 7.1e-05 7.15e-06 3.59e-05 
24 1 1.77717e-06 5.8e-05 2.24e-05 3.94e-05 
13 1 1.68364e-06 7.17e-05 7.67e-06 4.45e-05 
21 1 1.84992e-06 9.15e-05 3.99e-05 4.77e-05 
36 1 1.77717e-06 7.07e-05 9.34e-05 1.34e-05 
4 1 1.59756e-06 7.49026e-05 9.23022e-05 1.84196e-05 
54 1 1.55284e-06 7.37143e-05 9.17063e-05 1.75922e-05 
31 1 1.5901e-06 8.22e-05 5.95e-05 2.09e-05 
33 1 1.66285e-06 5.13e-05 9.44e-05 2.87e-05 
45 1 1.46539e-06 7.98e-05 6.28e-05 3.36e-05 
8 1 1.55892e-06 6.58e-05 7.86e-05 4.07e-05 
22 1 1.4446e-06 6.41e-05 7.31e-05 4.43e-05 
41 1 1.63167e-06 9.71e-05 7.85e-05 4.47e-05 
ITEM: TIMESTEP
800
ITEM: NUMBER OF ATOMS
54
ITEM: BOX BOUNDS ff ff ff
0.0000000000000000e+00 1.0000000000000000e-04
0.0000000000000000e+00 1.0000000000000000e-04
0.0000000000000000e+00 5.0000000000000002e-05
ITEM: ATOMS id type diameter x y z 
5 1 1.53618e-06 3.05e-05 3.02e-05 3.89e-06 
26 1 1.54663e-06 3.27e-05 3.3e-05 5.07e-06 
35 1 1.44213e-06 2.46e-05 2.11e-05 7.67e-06 
25 1 1.67203e-06 4.25e-05 7.13e-06 8.46e-06 
12 1 1.91238e-06 3.41e-05 9.28e-06 8.37e-06 
18 1 1.61479e-06 4.05024e-05 3.14021e-05 9.70944e-06 
51 1 1.56958e-06 3.93145e-05 3.08064e-05 8.8823e-06 
1 1 1.94373e-06 4.68e-05 2.27e-05 2.08e-05 
27 1 1.46303e-06 2.47e-06 3.01e-05 2.18e-05 
17 1 1.90193e-06 4.52e-05 1.04e-05 2.75e-05 
7 1 1.75563e-06 5.35e-06 2.22e-05 3.01e-05 
40 1 1.46303e-06 2.89e-05 3.89e-05 3.76e-05 
43 1 1.72428e-06 3.76e-05 8.73e-06 3.83e-05 
19 1 1.57798e-06 3.28e-05 4.93e-06 4.65e-05 
14 1 1.84968e-06 3.01e-06 6.84e-05 7.8e-06 
29 1 1.48393e-06 6.97e-06 5.49e-05 1.12e-05 
28 1 1.61479e-06 4.96024e-05 7.62021e-05 1.27194e-05 
52 1 1.56958e-06 4.84145e-05 7.56064e-05 1.18923e-05 
47 1 1.67203e-06 4.49e-05 5.48e-05 2.13e-05 
23 1 1.79743e-06 3.04e-05 7.7e-05 2.12e-05 
3 1 1.78698e-06 7.49e-06 5.97e-05 2.39e-05 
16 1 1.52573e-06 7.42e-06 7.28e-05 2.71e-05 
39 1 1.79743e-06 8.88e-06 6.07e-05 3.65e-05 
6 1 1.60933e-06 1.8e-05 5.1e-05 4e-05 
38 1 1.76608e-06 1.29e-05 7.49e-05 4.09e-05 
49 1 1.77653e-06 1.54e-05 5.56e-05 4.12e-05 
42 1 1.92283e-06 4.47e-05 9.6e-05 4.24e-05 
9 1 1.45258e-06 1.15e-05 9.51e-05 4.33e-05 
10 1 1.61978e-06 2.59e-05 8.55e-05 4.44e-05 
30 1 1.48393e-06 2.34e-05 9.46e-05 4.7e-05 
46 1 1.81833e-06 6.04e-05 3.63e-05 2.65e-06 
48 1 1.61479e-06 6.70024e-05 1.92021e-05 1.07194e-05 
32 1 1.71383e-06 8.92e-05 3e-05 1.46e-05 
20 1 1.64068e-06 5.45e-05 7.88e-06 1.78e-05 
34 1 1.74518e-06 5.26e-05 1.29e-05 1.86e-05 
53 1 1.56958e-06 6.58145e-05 1.86064e-05 9.8923e-06 
2 1 1.79743e-06 8.56e-05 9.84e-06 2.91e-05 
44 1 1.73473e-06 6.48e-05 1.18e-05 2.99e-05 
50 1 1.44213e-06 6.01e-05 1.7e-05 3.07e-05 
11 1 1.53618e-06 9.83e-05 2.64e-05 3.23e-05 
15 1 1.91238e-06 6.99e-05 2.73e-05 3.51e-05 
37 1 1.94373e-06 7.1e-05 7.15e-06 3.59e-05 
24 1 1.78698e-06 5.8e-05 2.24e-05 3.94e-05 
13 1 1.69293e-06 7.17e-05 7.67e-06 4.45e-05 
21 1 1.86013e-06 9.15e-05 3.99e-05 4.77e-05 
36 1 1.78698e-06 7.07e-05 9.34e-05 1.34e-05 
4 1 1.60638e-06 7.49026e-05 9.23022e-05 1.84196e-05 
54 1 1.56141e-06 7.37143e-05 9.17063e-05 1.75922e-05 
31 1 1.59888e-06 8.22e-05 5.95e-05 2.09e-05 
33 1 1.67203e-06 5.13e-05 9.44e-05 2.87e-05 
45 1 1.47348e-06 7.98e-05 6.28e-05 3.36e-05 
8 1 1.56753e-06 6.58e-05 7.86e-05 4.07e-05 
22 1 1.45258e-06 6.41e-05 7.31e-05 4.43e-05 
41 1 1.64068e-06 9.71e-05 7.85e-05 4.47e-05 
ITEM: TIMESTEP
900
ITEM: NUMBER OF ATOMS
54
ITEM: BOX BOUNDS ff ff ff
0.0000000000000000e+00 1.0000000000000000e-04
0.0000000000000000e+00 1.0000000000000000e-04
0.0000000000000000e+00 5.0000000000000002e-05
ITEM: ATOMS id type diameter x y z 
5 1 1.54466e-06 3.05e-05 3.02e-05 3.89e-06 
26 1 1.55516e-06 3.27e-05 3.3e-05 5.07e-06 
35 1 1.45008e-06 2.46e-05 2.11e-05 7.67e-06 
25 1 1.68126e-06 4.25e-05 7.13e-06 8.46e-06 
12 1 1.92294e-06 3.41e-05 9.28e-06 8.37e-06 
18 1 1.6237e-06 4.05176e-05 3.14097e-05 9.72001e-06 
51 1 1.57825e-06 3.92993e-05 3.07988e-05 8.87173e-06 
1 1 1.95446e-06 4.68e-05 2.27e-05 2.08e-05 
27 1 1.4711e-06 2.47e-06 3.01e-05 2.18e-05 
17 1 1.91243e-06 4.52e-05 1.04e-05 2.75e-05 
7 1 1.76532e-06 5.35e-06 2.22e-05 3.01e-05 
40 1 1.4711e-06 2.89e-05 3.89e-05 3.76e-05 
43 1 1.7338e-06 3.76e-05 8.73e-06 3.83e-05 
19 1 1.58669e-06 3.28e-05 4.93e-06 4.65e-05 
14 1 1.85989e-06 3.01e-06 6.84e-05 7.8e-06 
29 1 1.49212e-06 6.97e-06 5.49e-05 1.12e-05 
28 1 1.6237e-06 4.96176e-05 7.62097e-05 1.273e-05 
52 1 1.57825e-06 4.83993e-05 7.55988e-05 1.18817e-05 
47 1 1.68126e-06 4.49e-05 5.48e-05 2.13e-05 
23 1 1.80735e-06 3.04e-05 7.7e-05 2.12e-05 
3 1 1.79684e-06 7.49e-06 5.97e-05 2.39e-05 
16 1 1.53415e-06 7.42e-06 7.28e-05 2.71e-05 
39 1 1.80735e-06 8.88e-06 6.07e-05 3.65e-05 
6 1 1.61821e-06 1.8e-05 5.1e-05 4e-05 
38 1 1.77583e-06 1.29e-05 7.49e-05 4.09e-05 
49 1 1.78634e-06 1.54e-05 5.56e-05 4.12e-05 
42 1 1.93345e-06 4.47e-05 9.6e-05 4.24e-05 
9 1 1.46059e-06 1.15e-05 9.51e-05 4.33e-05 
10 1 1.62872e-06 2.59e-05 8.55e-05 4.44e-05 
30 1 1.49212e-06 2.34e-05 9.46e-05 4.7e-05 
46 1 1.82837e-06 6.04e-05 3.63e-05 2.65e-06 
48 1 1.6237e-06 6.70176e-05 1.92097e-05 1.073e-05 
32 1 1.72329e-06 8.92e-05 3e-05 1.46e-05 
20 1 1.64973e-06 5.45e-05 7.88e-06 1.78e-05 
34 1 1.75481e-06 5.26e-05 1.29e-05 1.86e-05 
53 1 1.57825e-06 6.57993e-05 1.85988e-05 9.88173e-06 
2 1 1.80735e-06 8.56e-05 9.84e-06 2.91e-05 
44 1 1.74431e-06 6.48e-05 1.18e-05 2.99e-05 
50 1 1.45009e-06 6.01e-05 1.7e-05 3.07e-05 
11 1 1.54466e-06 9.83e-05 2.64e-05 3.23e-05 
15 1 1.92294e-06 6.99e-05 2.73e-05 3.51e-05 
37 1 1.95446e-06 7.1e-05 7.15e-06 3.59e-05 
24 1 1.79684e-06 5.8e-05 2.24e-05 3.94e-05 
13 1 1.70227e-06 7.17e-05 7.67e-06 4.45e-05 
21 1 1.8704e-06 9.15e-05 3.99e-05 4.77e-05 
36 1 1.79684e-06 7.07e-05 9.34e-05 1.34e-05 
4 1 1.61525e-06 7.49026e-05 9.23022e-05 1.84196e-05 
54 1 1.57003e-06 7.37143e-05 9.17063e-05 1.75922e-05 
31 1 1.6077e-06 8.22e-05 5.95e-05 2.09e-05 
33 1 1.68126e-06 5.13e-05 9.44e-05 2.87e-05 
45 1 1.48161e-06 7.98e-05 6.28e-05 3.36e-05 
8 1 1.57618e-06 6.58e-05 7.86e-05 4.07e-05 
22 1 1.46059e-06 6.41e-05 7.31e-05 4.43e-05 
41 1 1.64973e-06 9.71e-05 7.85e-05 4.47e-05 
ITEM: TIMESTEP
1000
ITEM: NUMBER OF ATOMS
54
ITEM: BOX BOUNDS ff ff ff
0.0000000000000000e+00 1.0000000000000000e-04
0.0000000000000000e+00 1.0000000000000000e-04
0.0000000000000000e+00 5.0000000000000002e-05
ITEM: ATOMS id type diameter x y z 
5 1 1.55318e-06 3.05e-05 3.02e-05 3.89e-06 
26 1 1.56375e-06 3.27e-05 3.3e-05 5.07e-06 
35 1 1.45809e-06 2.46e-05 2.11e-05 7.67e-06 
25 1 1.69054e-06 4.25e-05 7.13e-06 8.46e-06 
12 1 1.93355e-06 3.41e-05 9.28e-06 8.37e-06 
51 1 1.58696e-06 3.92993e-05 3.07988e-05 8.87173e-06 
18 1 1.63267e-06 4.05176e-05 3.14097e-05 9.72001e-06 
1 1 1.96525e-06 4.68e-05 2.27e-05 2.08e-05 
27 1 1.47922e-06 2.47e-06 3.01e-05 2.18e-05 
17 1 1.92299e-06 4.52e-05 1.04e-05 2.75e-05 
7 1 1.77506e-06 5.35e-06 2.22e-05 3.01e-05 
40 1 1.47922e-06 2.89e-05 3.89e-05 3.76e-05 
43 1 1.74337e-06 3.76e-05 8.73e-06 3.83e-05 
19 1 1.59544e-06 3.28e-05 4.93e-06 4.65e-05 
14 1 1.87016e-06 3.01e-06 6.84e-05 7.8e-06 
29 1 1.50035e-06 6.97e-06 5.49e-05 1.12e-05 
52 1 1.58696e-06 4.83993e-05 7.55988e-05 1.18817e-05 
28 1 1.63267e-06 4.96176e-05 7.62097e-05 1.273e-05 
47 1 1.69054e-06 4.49e-05 5.48e-05 2.13e-05 
23 1 1.81733e-06 3.04e-05 7.7e-05 2.12e-05 
3 1 1.80676e-06 7.49e-06 5.97e-05 2.39e-05 
16 1 1.54262e-06 7.42e-06 7.28e-05 2.71e-05 
39 1 1.81733e-06 8.88e-06 6.07e-05 3.65e-05 
6 1 1.62714e-06 1.8e-05 5.1e-05 4e-05 
38 1 1.78563e-06 1.29e-05 7.49e-05 4.09e-05 
49 1 1.7962e-06 1.54e-05 5.56e-05 4.12e-05 
42 1 1.94412e-06 4.47e-05 9.6e-05 4.24e-05 
9 1 1.46865e-06 1.15e-05 9.51e-05 4.33e-05 
10 1 1.63771e-06 2.59e-05 8.55e-05 4.44e-05 
30 1 1.50035e-06 2.34e-05 9.46e-05 4.7e-05 
46 1 1.83846e-06 6.04e-05 3.63e-05 2.65e-06 
53 1 1.58696e-06 6.57993e-05 1.85988e-05 9.88173e-06 
48 1 1.63267e-06 6.70176e-05 1.92097e-05 1.073e-05 
32 1 1.7328e-06 8.92e-05 3e-05 1.46e-05 
20 1 1.65884e-06 5.45e-05 7.88e-06 1.78e-05 
34 1 1.7645e-06 5.26e-05 1.29e-05 1.86e-05 
2 1 1.81733e-06 8.56e-05 9.84e-06 2.91e-05 
44 1 1.75393e-06 6.48e-05 1.18e-05 2.99e-05 
50 1 1.45809e-06 6.01e-05 1.7e-05 3.07e-05 
11 1 1.55318e-06 9.83e-05 2.64e-05 3.23e-05 
15 1 1.93355e-06 6.99e-05 2.73e-05 3.51e-05 
37 1 1.96525e-06 7.1e-05 7.15e-06 3.59e-05 
24 1 1.80676e-06 5.8e-05 2.24e-05 3.94e-05 
13 1 1.71167e-06 7.17e-05 7.67e-06 4.45e-05 
21 1 1.88072e-06 9.15e-05 3.99e-05 4.77e-05 
36 1 1.80676e-06 7.07e-05 9.34e-05 1.34e-05 
54 1 1.57869e-06 7.36991e-05 9.16987e-05 1.75816e-05 
4 1 1.62416e-06 7.49177e-05 9.23098e-05 1.84301e-05 
31 1 1.61658e-06 8.22e-05 5.95e-05 2.09e-05 
33 1 1.69054e-06 5.13e-05 9.44e-05 2.87e-05 
45 1 1.48979e-06 7.98e-05 6.28e-05 3.36e-05 
8 1 1.58488e-06 6.58e-05 7.86e-05 4.07e-05 
22 1 1.46865e-06 6.41e-05 7.31e-05 4.43e-05 
41 1 1.65884e-06 9.71e-05 7.85e-05 4.47e-05 
ITEM: TIMESTEP
1100
ITEM: NUMBER OF ATOMS
56
ITEM: BOX BOUNDS ff ff ff
0.0000000000000000e+00 1.0000000000000000e-04
0.0000000000000000e+00 1.0000000000000000e-04
0.0000000000000000e+00 5.0000000000000002e-05
ITEM: ATOMS id type diameter x y z 
5 1 1.56175e-06 3.05e-05 3.02e-05 3.89e-06 
26 1 1.57238e-06 3.27e-05 3.3e-05 5.07e-06 
35 1 1.46614e-06 2.46e-05 2.11e-05 7.67e-06 
25 1 1.69987e-06 4.25e-05 7.13e-06 8.46e-06 
12 1 1.94422e-06 3.41e-05 9.28e-06 8.37e-06 
51 1 1.59572e-06 3.92993e-05 3.07988e-05 8.87173e-06 
18 1 1.64168e-06 4.05176e-05 3.14097e-05 9.72001e-06 
1 1 1.59038e-06 4.74032e-05 2.30025e-05 2.122e-05 
27 1 1.48738e-06 2.47e-06 3.01e-05 2.18e-05 
17 1 1.9336e-06 4.52e-05 1.04e-05 2.75e-05 
7 1 1.78486e-06 5.35e-06 2.22e-05 3.01e-05 
40 1 1.48739e-06 2.89e-05 3.89e-05 3.76e-05 
43 1 1.75299e-06 3.76e-05 8.73e-06 3.83e-05 
19 1 1.60425e-06 3.28e-05 4.93e-06 4.65e-05 
55 1 1.54585e-06 4.62137e-05 2.2406e-05 2.03918e-05 
14 1 1.88048e-06 3.01e-06 6.84e-05 7.8e-06 
29 1 1.50863e-06 6.97e-06 5.49e-05 1.12e-05 
52 1 1.59572e-06 4.83993e-05 7.55988e-05 1.18817e-05 
28 1 1.64168e-06 4.96176e-05 7.62097e-05 1.273e-05 
47 1 1.69987e-06 4.49e-05 5.48e-05 2.13e-05 
23 1 1.82736e-06 3.04e-05 7.7e-05 2.12e-05 
3 1 1.81673e-06 7.49e-06 5.97e-05 2.39e-05 
16 1 1.55113e-06 7.42e-06 7.28e-05 2.71e-05 
39 1 1.82736e-06 8.88e-06 6.07e-05 3.65e-05 
6 1 1.63612e-06 1.8e-05 5.1e-05 4e-05 
38 1 1.79549e-06 1.29e-05 7.49e-05 4.09e-05 
49 1 1.80611e-06 1.54e-05 5.56e-05 4.12e-05 
42 1 1.95485e-06 4.47e-05 9.6e-05 4.24e-05 
9 1 1.47676e-06 1.15e-05 9.51e-05 4.33e-05 
10 1 1.64675e-06 2.59e-05 8.55e-05 4.44e-05 