LAMMPS (20 Nov 2019)
Reading data file ...
  orthogonal box = (0 0 0) to (0.0001 0.0001 5e-05)
  2 by 2 by 2 MPI processor grid
  reading atoms ...
  50 atoms
  4 nutrients
Lattice spacing in x,y,z = 100 100 100
50 atoms in group CYANO
0 atoms in group ECW
Model is defined as a closed system. 
Neighbor list info ...
  update every 1 steps, delay 0 steps, check yes
  max neighbors/atom: 5000, page size: 100000
  master list distance cutoff = 2.44e-06
  ghost atom cutoff = 2.44e-06
  binsize = 1.22e-06, bins = 82 82 41
  1 neighbor lists, perpetual/occasional/extra = 1 0 0
  (1) pair gran/hooke/history, perpetual
      attributes: half, newton off, size, history
      pair build: half/size/bin/newtoff
      stencil: half/bin/3d/newtoff
      bin: standard
Setting up Verlet run ...
  Unit style    : lj
  Current step  : 0
  Time step     : 10
Per MPI rank memory allocation (min/avg/max) = 6.964 | 10.79 | 12.34 Mbytes
Step CPU Atoms c_myNtypes[1] c_myNtypes[2] c_myMass[1] c_myMass[2] c_myCon[1] c_myCon[2] c_myCon[3] c_myCon[4] 
       0            0       50           50            0 4.6616697e-14            0          0.1        0.009     3.42e-20       0.0299 
number of iterations: 325581 
     100    6.9204435       50           50            0 4.7487519e-14            0          0.1  0.009002633 0.0036946751  0.029895616 
number of iterations: 23558 
     200    7.6170097       50           50            0 4.8374609e-14            0          0.1 0.0090026822 0.0073419654  0.029895534 
number of iterations: 23656 
     300    8.3023865       51           51            0 4.927827e-14            0          0.1 0.0090027323  0.011056834  0.029895451 
number of iterations: 23754 
     400    9.0472212       52           52            0 5.0198812e-14            0          0.1 0.0090027834  0.014840834  0.029895366 
number of iterations: 23852 
     500    9.8687331       53           53            0 5.113655e-14            0          0.1 0.0090028354  0.018695355  0.029895279 
number of iterations: 23950 
     600    10.558419       55           55            0 5.2091805e-14            0          0.1 0.0090028884  0.022621763  0.029895191 
number of iterations: 24048 
     700    11.223158       55           55            0 5.3064905e-14            0          0.1 0.0090029423  0.026621427  0.029895101 
number of iterations: 24146 
     800    11.921909       56           56            0 5.4056183e-14            0          0.1 0.0090029973  0.030695734   0.02989501 
number of iterations: 24244 
     900    12.660327       56           56            0 5.5065978e-14            0          0.1 0.0090030533   0.03484609  0.029894917 
number of iterations: 24342 
    1000    13.363489       56           56            0 5.6094637e-14            0          0.1 0.0090031103  0.039073926  0.029894822 
number of iterations: 23203 
    1100    14.031131       59           59            0 5.7142511e-14            0          0.1 0.0090031581  0.043380703  0.029894742 
number of iterations: 25565 
    1200    14.749495       62           62            0 5.8209961e-14            0          0.1 0.0090032286  0.047767894  0.029894625 
number of iterations: 24637 
    1300    15.442544       63           63            0 5.929735e-14            0          0.1 0.0090032889  0.052237006  0.029894524 
number of iterations: 23201 
    1400    16.175444       65           65            0 6.0405053e-14            0          0.1 0.0090033338  0.056789574  0.029894449 
number of iterations: 24808 
    1500    16.856569       65           65            0 6.1533448e-14            0          0.1 0.0090033961  0.061427156  0.029894346 
number of iterations: 24907 
    1600    17.507654       66           66            0 6.2682922e-14            0          0.1 0.0090034596  0.066151345   0.02989424 
number of iterations: 25001 
    1700    18.155339       67           67            0 6.3853869e-14            0          0.1 0.0090035242  0.070963762  0.029894132 
number of iterations: 25103 
    1800    18.834036       68           68            0 6.504669e-14            0          0.1   0.00900359  0.075866055  0.029894023 
number of iterations: 25201 
    1900    19.574786       68           68            0 6.6261793e-14            0          0.1 0.0090036571  0.080859903  0.029893911 
number of iterations: 25300 
    2000    20.251767       69           69            0 6.7499595e-14            0          0.1 0.0090037254  0.085947019  0.029893797 
number of iterations: 25398 
    2100    20.933791       69           69            0 6.8760519e-14            0          0.1  0.009003795  0.091129147  0.029893682 
number of iterations: 25496 
    2200    21.618352       69           69            0 7.0044998e-14            0          0.1 0.0090038659  0.096408061  0.029893563 
number of iterations: 25595 
    2300    22.303084       70           70            0 7.1353472e-14            0          0.1 0.0090039381   0.10178557  0.029893443 
number of iterations: 25693 
    2400    22.967491       73           73            0 7.2686388e-14            0          0.1 0.0090040117   0.10726352  0.029893321 
number of iterations: 25792 
    2500    23.644079       73           73            0 7.4044204e-14            0          0.1 0.0090040867   0.11284378  0.029893196 
number of iterations: 25890 
    2600    24.426152       73           73            0 7.5427385e-14            0          0.1  0.009004163   0.11852828  0.029893069 
number of iterations: 25989 
    2700    25.183848       74           74            0 7.6836404e-14            0          0.1 0.0090042408   0.12431894  0.029892939 
number of iterations: 26087 
    2800    25.977494       75           75            0 7.8271744e-14            0          0.1   0.00900432   0.13021777  0.029892807 
number of iterations: 26186 
    2900    26.698093       78           78            0 7.9733897e-14            0          0.1 0.0090044007   0.13622678  0.029892673 
number of iterations: 26285 
    3000    27.471123       79           79            0 8.1223364e-14            0          0.1 0.0090044829   0.14234802  0.029892536 
number of iterations: 26383 
    3100     28.19456       79           79            0 8.2740654e-14            0          0.1 0.0090045667    0.1485836  0.029892397 
number of iterations: 26482 
    3200    28.930503       80           80            0 8.4286288e-14            0          0.1  0.009004652   0.15493566  0.029892255 
number of iterations: 26588 
    3300    29.694237       81           81            0 8.5860795e-14            0          0.1 0.0090047389   0.16140636   0.02989211 
number of iterations: 26679 
    3400    30.380179       83           83            0 8.7464715e-14            0          0.1 0.0090048274   0.16799792  0.029891963 
number of iterations: 26770 
    3500    31.106195       85           85            0 8.9098597e-14            0          0.1 0.0090049176   0.17471261  0.029891812 
number of iterations: 25775 
    3600    31.802853       88           88            0   9.0763e-14            0          0.1 0.0090049941   0.18155272  0.029891685 
number of iterations: 27790 
    3700     32.53521       90           90            0 9.2458495e-14            0          0.1 0.0090051035    0.1885206  0.029891503 
number of iterations: 27072 
    3800    33.261708       90           90            0 9.4185663e-14            0          0.1 0.0090051989   0.19561864  0.029891344 
number of iterations: 27171 
    3900     34.11363       91           91            0 9.5945095e-14            0          0.1  0.009005296   0.20284926  0.029891182 
number of iterations: 27270 
    4000    35.062708       93           93            0 9.7737393e-14            0          0.1 0.0090053949   0.21021494  0.029891018 
number of iterations: 27368 
    4100    35.781129       96           96            0 9.9563173e-14            0          0.1 0.0090054957   0.21771821   0.02989085 
number of iterations: 27463 
    4200    36.515165       98           98            0 1.0142306e-13            0          0.1 0.0090055984   0.22536163  0.029890679 
number of iterations: 27559 
    4300    37.275844       99           99            0 1.0331769e-13            0          0.1  0.009005703   0.23314783  0.029890505 
number of iterations: 27672 
    4400    38.037382      102          102            0 1.0524771e-13            0          0.1 0.0090058095   0.24107937  0.029890327 
number of iterations: 27761 
    4500    38.806527      106          106            0 1.0721379e-13            0          0.1  0.009005918   0.24915906  0.029890147 
number of iterations: 27860 
    4600     39.56038      108          108            0 1.0921659e-13            0          0.1 0.0090060286   0.25738967  0.029889962 
number of iterations: 27961 
    4700    40.339172      111          111            0 1.112568e-13            0          0.1 0.0090061412   0.26577403  0.029889775 
number of iterations: 28060 
    4800    41.095302      112          112            0 1.1333513e-13            0          0.1 0.0090062559   0.27431501  0.029889584 
number of iterations: 28158 
    4900    41.814071      114          114            0 1.1545229e-13            0          0.1 0.0090063728   0.28301552  0.029889389 
number of iterations: 28257 
    5000    42.534844      115          115            0 1.1760899e-13            0          0.1 0.0090064919   0.29187856  0.029889191 
number of iterations: 29040 
    5100    43.309642      119          119            0 1.1980598e-13            0          0.1 0.0090066266   0.30090716  0.029888967 
number of iterations: 28471 
    5200    44.202194      121          121            0 1.2204401e-13            0          0.1 0.0090067504    0.3101044  0.029888761 
number of iterations: 28568 
    5300    44.975356      123          123            0 1.2432384e-13            0          0.1 0.0090068765   0.31947344  0.029888551 
number of iterations: 28671 
    5400    45.718077      124          124            0 1.2664627e-13            0          0.1 0.0090070049   0.32901747  0.029888337 
number of iterations: 28766 
    5500    46.416596      125          125            0 1.2901208e-13            0          0.1 0.0090071358   0.33873978  0.029888119 
number of iterations: 27627 
    5600    47.105364      126          126            0 1.3142208e-13            0          0.1 0.0090072441   0.34864369  0.029887938 
number of iterations: 28149 
    5700    47.795469      131          131            0 1.3387711e-13            0          0.1   0.00900736   0.35873259  0.029887745 
number of iterations: 28312 
    5800    48.488838      135          135            0 1.3637799e-13            0          0.1  0.009007482   0.36900992  0.029887542 
number of iterations: 29748 
    5900    49.281983      138          138            0 1.3892559e-13            0          0.1 0.0090076376   0.37947923  0.029887283 
number of iterations: 29794 
    6000    50.021725      143          143            0 1.4152079e-13            0          0.1 0.0090077947   0.39014413  0.029887022 
number of iterations: 29335 
    6100    50.778928      149          149            0 1.4416446e-13            0          0.1 0.0090079403   0.40100826  0.029886779 
number of iterations: 28650 
    6200    51.500755      149          149            0 1.4685751e-13            0          0.1 0.0090080675   0.41207532  0.029886567 
number of iterations: 28808 
    6300    52.258582      149          149            0 1.4960088e-13            0          0.1 0.0090082012    0.4233491  0.029886345 
number of iterations: 29609 
    6400    53.008702      151          151            0 1.5239549e-13            0          0.1 0.0090083544   0.43483347   0.02988609 
number of iterations: 29706 
    6500    53.858633      156          156            0 1.552423e-13            0          0.1 0.0090085105   0.44653239   0.02988583 
number of iterations: 30901 
    6600    54.733995      160          160            0 1.581423e-13            0          0.1 0.0090087019   0.45844985  0.029885511 
number of iterations: 29928 
    6700    55.659146      161          161            0 1.6109647e-13            0          0.1 0.0090088644   0.47058992   0.02988524 
number of iterations: 30027 
    6800    56.482823      161          161            0 1.6410582e-13            0          0.1   0.00900903   0.48295678  0.029884965 
number of iterations: 30127 
    6900     57.90166      163          163            0 1.6717139e-13            0          0.1 0.0090091987   0.49555464  0.029884684 
number of iterations: 30229 
    7000    58.666811      167          167            0 1.7029422e-13            0          0.1 0.0090093705   0.50838784  0.029884398 
number of iterations: 30325 
    7100    59.486133      169          169            0 1.7347539e-13            0          0.1 0.0090095456   0.52146075  0.029884106 
number of iterations: 30424 
    7200    60.261657      171          171            0 1.7671599e-13            0          0.1 0.0090097239   0.53477787  0.029883809 
number of iterations: 30250 
    7300    61.181969      175          175            0 1.8001712e-13            0          0.1 0.0090098941   0.54834373  0.029883526 
number of iterations: 30616 
    7400    61.938953      177          177            0 1.8337992e-13            0          0.1 0.0090100789     0.562163  0.029883218 
number of iterations: 30717 
    7500    62.689574      177          177            0 1.8680553e-13            0          0.1 0.0090102672   0.57624042  0.029882905 
number of iterations: 30820 
    7600    63.425052      181          181            0 1.9029514e-13            0          0.1  0.009010459   0.59058089  0.029882585 
number of iterations: 30913 
    7700    64.196554      185          185            0 1.9384994e-13            0          0.1 0.0090106544   0.60518915   0.02988226 
number of iterations: 31017 
    7800    64.990679      191          191            0 1.9747114e-13            0          0.1 0.0090108534   0.62007033  0.029881929 
number of iterations: 30959 
    7900    65.710916      195          195            0 2.0115998e-13            0          0.1 0.0090110517   0.63522951  0.029881598 
number of iterations: 30644 
    8000    66.449138      199          199            0 2.0491774e-13            0          0.1  0.009011237   0.65067186   0.02988129 
number of iterations: 31159 
    8100    67.196657      203          203            0 2.0874569e-13            0          0.1 0.0090114426   0.66640268  0.029880948 
number of iterations: 31398 
    8200    67.928339      206          206            0 2.1264515e-13            0          0.1 0.0090116563   0.68242737  0.029880592 
number of iterations: 31108 
    8300    68.675574      211          211            0 2.1661745e-13            0          0.1 0.0090118605    0.6987514  0.029880252 
number of iterations: 31588 
    8400    69.492418      214          214            0 2.2066395e-13            0          0.1  0.009012082   0.71538036  0.029879883 
number of iterations: 32107 
    8500    70.254894      222          222            0 2.2478605e-13            0          0.1 0.0090123266   0.73231996  0.029879476 
number of iterations: 31795 
    8600    71.056308      225          225            0 2.2898514e-13            0          0.1 0.0090125569     0.749576  0.029879092 
number of iterations: 31686 
    8700    71.828742      231          231            0 2.3326268e-13            0          0.1 0.0090127841   0.76715434  0.029878714 
number of iterations: 31590 
    8800    72.616657      237          237            0 2.3762013e-13            0          0.1 0.0090130074    0.7850611  0.029878342 
number of iterations: 31681 
    8900    73.414153      241          241            0 2.4205897e-13            0          0.1 0.0090132346   0.80330235  0.029877964 
number of iterations: 32487 
    9000    74.218236      243          243            0 2.4658073e-13            0          0.1  0.009013497   0.82188436  0.029877527 
number of iterations: 32675 
    9100    75.018078      251          251            0 2.5118696e-13            0          0.1 0.0090137689   0.84081351  0.029877074 
number of iterations: 32509 
    9200    75.905097      253          253            0 2.5587923e-13            0          0.1 0.0090140307   0.86009623  0.029876638 
number of iterations: 32611 
    9300    76.749436      260          260            0 2.6065916e-13            0          0.1 0.0090142975   0.87973914  0.029876194 
number of iterations: 32590 
    9400    77.553157      267          267            0 2.6552838e-13            0          0.1 0.0090145646   0.89974899  0.029875749 
number of iterations: 32690 
    9500     78.43678      272          272            0 2.7048856e-13            0          0.1 0.0090148367   0.92013262  0.029875296 
number of iterations: 33093 
    9600    79.757842      275          275            0 2.7554139e-13            0          0.1 0.0090151284   0.94089702   0.02987481 
number of iterations: 32392 
    9700    80.534994      279          279            0 2.8068862e-13            0          0.1  0.009015389   0.96204928  0.029874376 
number of iterations: 32985 
    9800    81.328245      282          282            0 2.8593199e-13            0          0.1 0.0090156764   0.98359666  0.029873898 
number of iterations: 32813 
    9900     82.14556      286          286            0 2.9127332e-13            0          0.1 0.0090159563    1.0055465  0.029873432 
number of iterations: 33552 
   10000    82.985562      293          293            0 2.9671442e-13            0          0.1 0.0090162728    1.0279065  0.029872905 
Loop time of 82.9856 on 8 procs for 10000 steps with 293 atoms

Performance: 104114426.142 tau/day, 120.503 timesteps/s
88.1% CPU use with 8 MPI tasks x no OpenMP threads

MPI task timing breakdown:
Section |  min time  |  avg time  |  max time  |%varavg| %total
---------------------------------------------------------------
Pair    | 0.01194    | 0.012651   | 0.013666   |   0.5 |  0.02
Neigh   | 0.0079202  | 0.0095708  | 0.011894   |   1.4 |  0.01
Comm    | 0.033903   | 0.068188   | 0.083031   |   6.1 |  0.08
Output  | 14.282     | 14.282     | 14.285     |   0.0 | 17.21
Modify  | 68.512     | 68.514     | 68.517     |   0.0 | 82.56
Other   |            | 0.09861    |            |       |  0.12

Nlocal:    36.625 ave 49 max 26 min
Histogram: 1 0 2 1 1 0 1 0 1 1
Nghost:    12.5 ave 23 max 0 min
Histogram: 1 0 1 1 0 0 3 0 1 1
Neighs:    45 ave 61 max 29 min
Histogram: 1 1 0 0 3 0 1 0 1 1

Total # of neighbors = 360
Ave neighs/atom = 1.22867
Neighbor list builds = 120
Dangerous builds = 0
Total wall time: 0:01:23
