ITEM: TIMESTEP
0
ITEM: NUMBER OF ATOMS
50
ITEM: BOX BOUNDS ff ff ff
0.0000000000000000e+00 1.0000000000000000e-04
0.0000000000000000e+00 1.0000000000000000e-04
0.0000000000000000e+00 5.0000000000000002e-05
ITEM: ATOMS id type diameter x y z 
21 1 1.37e-06 1.26e-05 6.89e-06 1.69e-06 
22 1 1.91e-06 2.75e-05 4.74e-05 2.14e-06 
18 1 1.59e-06 3.37e-05 1.94e-05 4.44e-06 
10 1 1.71e-06 2.64e-05 3.83e-05 5.15e-06 
31 1 1.85e-06 2.97e-05 3.14e-05 1.25e-05 
20 1 1.62e-06 3.63e-05 4.02e-05 2.5e-05 
7 1 1.84e-06 4.03e-05 8.54e-06 3.26e-05 
3 1 1.82e-06 8.45e-06 1.83e-05 3.98e-05 
41 1 1.39e-06 4.22e-06 3.9e-05 3.99e-05 
16 1 1.84e-06 1.3e-05 5.38e-05 4.73e-06 
8 1 1.81e-06 1.57e-05 9.01e-05 8.57e-06 
25 1 1.51e-06 4.52e-05 8.1e-05 1.78e-05 
38 1 1.85e-06 4.3e-05 6.7e-05 1.99e-05 
43 1 1.77e-06 1.56e-05 8.89e-05 2.06e-05 
14 1 1.84e-06 1.88e-05 8.23e-05 3.03e-05 
29 1 1.55e-06 4.58e-05 7.15e-05 3.31e-05 
27 1 1.67e-06 2.67e-05 8.52e-05 3.58e-05 
39 1 1.5e-06 3.76e-05 6.8e-05 4.72e-05 
26 1 1.91e-06 7.2e-05 2.14e-05 4.85e-06 
45 1 1.78e-06 7.07e-05 3.43e-05 8.44e-06 
42 1 1.92e-06 9.04e-05 1.7e-05 1.09e-05 
30 1 1.88e-06 9.8e-05 3.67e-05 1.19e-05 
28 1 1.66e-06 8.95e-05 2.84e-05 1.3e-05 
40 1 1.43e-06 6.74e-05 4.75e-05 1.36e-05 
9 1 1.72e-06 7.83e-05 2.16e-05 2.93e-05 
46 1 1.94e-06 5.95e-05 4.67e-05 3.21e-05 
19 1 1.64e-06 9.17e-05 3.32e-05 4.16e-05 
48 1 1.93e-06 5.08e-05 3.18e-05 4.42e-05 
37 1 1.45e-06 7.49e-05 2.17e-05 4.59e-05 
32 1 1.6e-06 5.37e-05 1.9e-05 4.81e-05 
44 1 1.58e-06 5.57e-05 9.47e-05 2.22e-06 
17 1 1.65e-06 5.08e-05 9.39e-05 3.84e-06 
49 1 1.44e-06 6.22e-05 7.98e-05 4.71e-06 
1 1 1.85e-06 7.68e-05 6.53e-05 6.74e-06 
6 1 1.48e-06 9.29e-05 7.3e-05 1.09e-05 
15 1 1.41e-06 9.53e-05 6.42e-05 1.2e-05 
33 1 1.5e-06 5e-05 8.26e-05 1.37e-05 
13 1 1.6e-06 7.86e-05 5.12e-05 1.79e-05 
12 1 1.75e-06 5.07e-05 9.7e-05 1.77e-05 
11 1 1.79e-06 5.72e-05 8.4e-05 1.83e-05 
2 1 1.71e-06 5.73e-05 8.4e-05 2.46e-05 
34 1 1.71e-06 9.18e-05 9.03e-05 2.62e-05 
4 1 1.83e-06 5.07e-05 6.77e-05 2.7e-05 
5 1 1.65e-06 9.56e-05 5.57e-05 2.84e-05 
36 1 1.58e-06 7.15e-05 5.33e-05 3e-05 
47 1 1.51e-06 7.53e-05 7.65e-05 3.6e-05 
23 1 1.65e-06 5.08e-05 5.06e-05 3.73e-05 
50 1 1.55e-06 8.44e-05 8.17e-05 3.84e-05 
35 1 1.57e-06 5.8e-05 5.03e-05 4.01e-05 
24 1 1.54e-06 7.4e-05 6.64e-05 4.73e-05 
ITEM: TIMESTEP
100
ITEM: NUMBER OF ATOMS
50
ITEM: BOX BOUNDS ff ff ff
0.0000000000000000e+00 1.0000000000000000e-04
0.0000000000000000e+00 1.0000000000000000e-04
0.0000000000000000e+00 5.0000000000000002e-05
ITEM: ATOMS id type diameter x y z 
21 1 1.37848e-06 1.26e-05 6.89e-06 1.69e-06 
22 1 1.92182e-06 2.75e-05 4.74e-05 2.14e-06 
18 1 1.59984e-06 3.37e-05 1.94e-05 4.44e-06 
10 1 1.72058e-06 2.64e-05 3.83e-05 5.15e-06 
31 1 1.86145e-06 2.97e-05 3.14e-05 1.25e-05 
20 1 1.63003e-06 3.63e-05 4.02e-05 2.5e-05 
7 1 1.85139e-06 4.03e-05 8.54e-06 3.26e-05 
3 1 1.83126e-06 8.45e-06 1.83e-05 3.98e-05 
41 1 1.3986e-06 4.22e-06 3.9e-05 3.99e-05 
16 1 1.85139e-06 1.3e-05 5.38e-05 4.73e-06 
8 1 1.8212e-06 1.57e-05 9.01e-05 8.57e-06 
25 1 1.51934e-06 4.52e-05 8.1e-05 1.78e-05 
38 1 1.86145e-06 4.3e-05 6.7e-05 1.99e-05 
43 1 1.78095e-06 1.56e-05 8.89e-05 2.06e-05 
14 1 1.85139e-06 1.88e-05 8.23e-05 3.03e-05 
29 1 1.55959e-06 4.58e-05 7.15e-05 3.31e-05 
27 1 1.68033e-06 2.67e-05 8.52e-05 3.58e-05 
39 1 1.50928e-06 3.76e-05 6.8e-05 4.72e-05 
26 1 1.92182e-06 7.2e-05 2.14e-05 4.85e-06 
45 1 1.79102e-06 7.07e-05 3.43e-05 8.44e-06 
42 1 1.93188e-06 9.04e-05 1.7e-05 1.09e-05 
30 1 1.89163e-06 9.8e-05 3.67e-05 1.19e-05 
28 1 1.67027e-06 8.95e-05 2.84e-05 1.3e-05 
40 1 1.43885e-06 6.74e-05 4.75e-05 1.36e-05 
9 1 1.73064e-06 7.83e-05 2.16e-05 2.93e-05 
46 1 1.95201e-06 5.95e-05 4.67e-05 3.21e-05 
19 1 1.65015e-06 9.17e-05 3.32e-05 4.16e-05 
48 1 1.94194e-06 5.08e-05 3.18e-05 4.42e-05 
37 1 1.45897e-06 7.49e-05 2.17e-05 4.59e-05 
32 1 1.6099e-06 5.37e-05 1.9e-05 4.81e-05 
44 1 1.58978e-06 5.57e-05 9.47e-05 2.22e-06 
17 1 1.66021e-06 5.08e-05 9.39e-05 3.84e-06 
49 1 1.44891e-06 6.22e-05 7.98e-05 4.71e-06 
1 1 1.86145e-06 7.68e-05 6.53e-05 6.74e-06 
6 1 1.48916e-06 9.29e-05 7.3e-05 1.09e-05 
15 1 1.41873e-06 9.53e-05 6.42e-05 1.2e-05 
33 1 1.50928e-06 5e-05 8.26e-05 1.37e-05 
13 1 1.6099e-06 7.86e-05 5.12e-05 1.79e-05 
12 1 1.76083e-06 5.07e-05 9.7e-05 1.77e-05 
11 1 1.80108e-06 5.72e-05 8.4e-05 1.83e-05 
2 1 1.72058e-06 5.73e-05 8.4e-05 2.46e-05 
34 1 1.72058e-06 9.18e-05 9.03e-05 2.62e-05 
4 1 1.84132e-06 5.07e-05 6.77e-05 2.7e-05 
5 1 1.66021e-06 9.56e-05 5.57e-05 2.84e-05 
36 1 1.58978e-06 7.15e-05 5.33e-05 3e-05 
47 1 1.51934e-06 7.53e-05 7.65e-05 3.6e-05 
23 1 1.66021e-06 5.08e-05 5.06e-05 3.73e-05 
50 1 1.55959e-06 8.44e-05 8.17e-05 3.84e-05 
35 1 1.57972e-06 5.8e-05 5.03e-05 4.01e-05 
24 1 1.54953e-06 7.4e-05 6.64e-05 4.73e-05 
ITEM: TIMESTEP
200
ITEM: NUMBER OF ATOMS
50
ITEM: BOX BOUNDS ff ff ff
0.0000000000000000e+00 1.0000000000000000e-04
0.0000000000000000e+00 1.0000000000000000e-04
0.0000000000000000e+00 5.0000000000000002e-05
ITEM: ATOMS id type diameter x y z 
21 1 1.38701e-06 1.26e-05 6.89e-06 1.69e-06 
22 1 1.93371e-06 2.75e-05 4.74e-05 2.14e-06 
18 1 1.60974e-06 3.37e-05 1.94e-05 4.44e-06 
10 1 1.73123e-06 2.64e-05 3.83e-05 5.15e-06 
31 1 1.87297e-06 2.97e-05 3.14e-05 1.25e-05 
20 1 1.64011e-06 3.63e-05 4.02e-05 2.5e-05 
7 1 1.86284e-06 4.03e-05 8.54e-06 3.26e-05 
3 1 1.8426e-06 8.45e-06 1.83e-05 3.98e-05 
41 1 1.40726e-06 4.22e-06 3.9e-05 3.99e-05 
16 1 1.86284e-06 1.3e-05 5.38e-05 4.73e-06 
8 1 1.83247e-06 1.57e-05 9.01e-05 8.57e-06 
25 1 1.52875e-06 4.52e-05 8.1e-05 1.78e-05 
38 1 1.87297e-06 4.3e-05 6.7e-05 1.99e-05 
43 1 1.79197e-06 1.56e-05 8.89e-05 2.06e-05 
14 1 1.86284e-06 1.88e-05 8.23e-05 3.03e-05 
29 1 1.56924e-06 4.58e-05 7.15e-05 3.31e-05 
27 1 1.69073e-06 2.67e-05 8.52e-05 3.58e-05 
39 1 1.51862e-06 3.76e-05 6.8e-05 4.72e-05 
26 1 1.93371e-06 7.2e-05 2.14e-05 4.85e-06 
45 1 1.8021e-06 7.07e-05 3.43e-05 8.44e-06 
42 1 1.94384e-06 9.04e-05 1.7e-05 1.09e-05 
30 1 1.90334e-06 9.8e-05 3.67e-05 1.19e-05 
28 1 1.68061e-06 8.95e-05 2.84e-05 1.3e-05 
40 1 1.44775e-06 6.74e-05 4.75e-05 1.36e-05 
9 1 1.74135e-06 7.83e-05 2.16e-05 2.93e-05 
46 1 1.96409e-06 5.95e-05 4.67e-05 3.21e-05 
19 1 1.66036e-06 9.17e-05 3.32e-05 4.16e-05 
48 1 1.95396e-06 5.08e-05 3.18e-05 4.42e-05 
37 1 1.468e-06 7.49e-05 2.17e-05 4.59e-05 
32 1 1.61986e-06 5.37e-05 1.9e-05 4.81e-05 
44 1 1.59962e-06 5.57e-05 9.47e-05 2.22e-06 
17 1 1.67049e-06 5.08e-05 9.39e-05 3.84e-06 
49 1 1.45788e-06 6.22e-05 7.98e-05 4.71e-06 
1 1 1.87297e-06 7.68e-05 6.53e-05 6.74e-06 
6 1 1.49837e-06 9.29e-05 7.3e-05 1.09e-05 
15 1 1.42751e-06 9.53e-05 6.42e-05 1.2e-05 
33 1 1.51862e-06 5e-05 8.26e-05 1.37e-05 
13 1 1.61986e-06 7.86e-05 5.12e-05 1.79e-05 
12 1 1.77173e-06 5.07e-05 9.7e-05 1.77e-05 
11 1 1.81222e-06 5.72e-05 8.4e-05 1.83e-05 
2 1 1.73123e-06 5.73e-05 8.4e-05 2.46e-05 
34 1 1.73123e-06 9.18e-05 9.03e-05 2.62e-05 
4 1 1.85272e-06 5.07e-05 6.77e-05 2.7e-05 
5 1 1.67049e-06 9.56e-05 5.57e-05 2.84e-05 
36 1 1.59962e-06 7.15e-05 5.33e-05 3e-05 
47 1 1.52875e-06 7.53e-05 7.65e-05 3.6e-05 
23 1 1.67049e-06 5.08e-05 5.06e-05 3.73e-05 
50 1 1.56924e-06 8.44e-05 8.17e-05 3.84e-05 
35 1 1.58949e-06 5.8e-05 5.03e-05 4.01e-05 
24 1 1.55912e-06 7.4e-05 6.64e-05 4.73e-05 
ITEM: TIMESTEP
300
ITEM: NUMBER OF ATOMS
51
ITEM: BOX BOUNDS ff ff ff
0.0000000000000000e+00 1.0000000000000000e-04
0.0000000000000000e+00 1.0000000000000000e-04
0.0000000000000000e+00 5.0000000000000002e-05
ITEM: ATOMS id type diameter x y z 
21 1 1.39559e-06 1.26e-05 6.89e-06 1.69e-06 
22 1 1.94568e-06 2.75e-05 4.74e-05 2.14e-06 
18 1 1.6197e-06 3.37e-05 1.94e-05 4.44e-06 
10 1 1.74194e-06 2.64e-05 3.83e-05 5.15e-06 
31 1 1.88456e-06 2.97e-05 3.14e-05 1.25e-05 
20 1 1.65026e-06 3.63e-05 4.02e-05 2.5e-05 
7 1 1.87437e-06 4.03e-05 8.54e-06 3.26e-05 
3 1 1.854e-06 8.45e-06 1.83e-05 3.98e-05 
41 1 1.41597e-06 4.22e-06 3.9e-05 3.99e-05 
16 1 1.87437e-06 1.3e-05 5.38e-05 4.73e-06 
8 1 1.84381e-06 1.57e-05 9.01e-05 8.57e-06 
25 1 1.53821e-06 4.52e-05 8.1e-05 1.78e-05 
38 1 1.88456e-06 4.3e-05 6.7e-05 1.99e-05 
43 1 1.80306e-06 1.56e-05 8.89e-05 2.06e-05 
14 1 1.87437e-06 1.88e-05 8.23e-05 3.03e-05 
29 1 1.57895e-06 4.58e-05 7.15e-05 3.31e-05 
27 1 1.7012e-06 2.67e-05 8.52e-05 3.58e-05 
39 1 1.52802e-06 3.76e-05 6.8e-05 4.72e-05 
26 1 1.94568e-06 7.2e-05 2.14e-05 4.85e-06 
45 1 1.81325e-06 7.07e-05 3.43e-05 8.44e-06 
42 1 1.95587e-06 9.04e-05 1.7e-05 1.09e-05 
30 1 1.91512e-06 9.8e-05 3.67e-05 1.19e-05 
28 1 1.69101e-06 8.95e-05 2.84e-05 1.3e-05 
40 1 1.45671e-06 6.74e-05 4.75e-05 1.36e-05 
9 1 1.75213e-06 7.83e-05 2.16e-05 2.93e-05 
46 1 1.4866e-06 5.92386e-05 4.68737e-05 3.14272e-05 
19 1 1.67064e-06 9.17e-05 3.32e-05 4.16e-05 
48 1 1.96605e-06 5.08e-05 3.18e-05 4.42e-05 
37 1 1.47709e-06 7.49e-05 2.17e-05 4.59e-05 
32 1 1.62989e-06 5.37e-05 1.9e-05 4.81e-05 
51 1 1.64272e-06 5.97888e-05 4.65081e-05 3.28435e-05 
44 1 1.60952e-06 5.57e-05 9.47e-05 2.22e-06 
17 1 1.68082e-06 5.08e-05 9.39e-05 3.84e-06 
49 1 1.4669e-06 6.22e-05 7.98e-05 4.71e-06 
1 1 1.88456e-06 7.68e-05 6.53e-05 6.74e-06 
6 1 1.50765e-06 9.29e-05 7.3e-05 1.09e-05 
15 1 1.43634e-06 9.53e-05 6.42e-05 1.2e-05 
33 1 1.52802e-06 5e-05 8.26e-05 1.37e-05 
13 1 1.62989e-06 7.86e-05 5.12e-05 1.79e-05 
12 1 1.78269e-06 5.07e-05 9.7e-05 1.77e-05 
11 1 1.82344e-06 5.72e-05 8.4e-05 1.83e-05 
2 1 1.74194e-06 5.73e-05 8.4e-05 2.46e-05 
34 1 1.74194e-06 9.18e-05 9.03e-05 2.62e-05 
4 1 1.86419e-06 5.07e-05 6.77e-05 2.7e-05 
5 1 1.68082e-06 9.56e-05 5.57e-05 2.84e-05 
36 1 1.60952e-06 7.15e-05 5.33e-05 3e-05 
47 1 1.53821e-06 7.53e-05 7.65e-05 3.6e-05 
23 1 1.68082e-06 5.08e-05 5.06e-05 3.73e-05 
50 1 1.57895e-06 8.44e-05 8.17e-05 3.84e-05 
35 1 1.59933e-06 5.8e-05 5.03e-05 4.01e-05 
24 1 1.56877e-06 7.4e-05 6.64e-05 4.73e-05 
ITEM: TIMESTEP
400
ITEM: NUMBER OF ATOMS
52
ITEM: BOX BOUNDS ff ff ff
0.0000000000000000e+00 1.0000000000000000e-04
0.0000000000000000e+00 1.0000000000000000e-04
0.0000000000000000e+00 5.0000000000000002e-05
ITEM: ATOMS id type diameter x y z 
21 1 1.40423e-06 1.26e-05 6.89e-06 1.69e-06 
22 1 1.95772e-06 2.75e-05 4.74e-05 2.14e-06 
18 1 1.62973e-06 3.37e-05 1.94e-05 4.44e-06 
10 1 1.75272e-06 2.64e-05 3.83e-05 5.15e-06 
31 1 1.89622e-06 2.97e-05 3.14e-05 1.25e-05 
20 1 1.66047e-06 3.63e-05 4.02e-05 2.5e-05 
7 1 1.88597e-06 4.03e-05 8.54e-06 3.26e-05 
3 1 1.86547e-06 8.45e-06 1.83e-05 3.98e-05 
41 1 1.42473e-06 4.22e-06 3.9e-05 3.99e-05 
16 1 1.88597e-06 1.3e-05 5.38e-05 4.73e-06 
8 1 1.85522e-06 1.57e-05 9.01e-05 8.57e-06 
25 1 1.54773e-06 4.52e-05 8.1e-05 1.78e-05 
38 1 1.89622e-06 4.3e-05 6.7e-05 1.99e-05 
43 1 1.81422e-06 1.56e-05 8.89e-05 2.06e-05 
14 1 1.88597e-06 1.88e-05 8.23e-05 3.03e-05 
29 1 1.58873e-06 4.58e-05 7.15e-05 3.31e-05 
27 1 1.71172e-06 2.67e-05 8.52e-05 3.58e-05 
39 1 1.53748e-06 3.76e-05 6.8e-05 4.72e-05 
26 1 1.95772e-06 7.2e-05 2.14e-05 4.85e-06 
45 1 1.82447e-06 7.07e-05 3.43e-05 8.44e-06 
42 1 1.96797e-06 9.04e-05 1.7e-05 1.09e-05 
30 1 1.92697e-06 9.8e-05 3.67e-05 1.19e-05 
28 1 1.70147e-06 8.95e-05 2.84e-05 1.3e-05 
40 1 1.46573e-06 6.74e-05 4.75e-05 1.36e-05 
9 1 1.76297e-06 7.83e-05 2.16e-05 2.93e-05 
46 1 1.4958e-06 5.92386e-05 4.68737e-05 3.14272e-05 
19 1 1.68097e-06 9.17e-05 3.32e-05 4.16e-05 
48 1 1.52532e-06 5.02507e-05 3.14194e-05 4.45656e-05 
37 1 1.48623e-06 7.49e-05 2.17e-05 4.59e-05 
32 1 1.63998e-06 5.37e-05 1.9e-05 4.81e-05 
51 1 1.65288e-06 5.97888e-05 4.65081e-05 3.28435e-05 
52 1 1.61249e-06 5.13807e-05 3.22024e-05 4.38135e-05 
44 1 1.61948e-06 5.57e-05 9.47e-05 2.22e-06 
17 1 1.69122e-06 5.08e-05 9.39e-05 3.84e-06 
49 1 1.47598e-06 6.22e-05 7.98e-05 4.71e-06 
1 1 1.89622e-06 7.68e-05 6.53e-05 6.74e-06 
6 1 1.51698e-06 9.29e-05 7.3e-05 1.09e-05 
15 1 1.44523e-06 9.53e-05 6.42e-05 1.2e-05 
33 1 1.53748e-06 5e-05 8.26e-05 1.37e-05 
13 1 1.63998e-06 7.86e-05 5.12e-05 1.79e-05 
12 1 1.79372e-06 5.07e-05 9.7e-05 1.77e-05 
11 1 1.83472e-06 5.72e-05 8.4e-05 1.83e-05 
2 1 1.75272e-06 5.73e-05 8.4e-05 2.46e-05 
34 1 1.75272e-06 9.18e-05 9.03e-05 2.62e-05 
4 1 1.87572e-06 5.07e-05 6.77e-05 2.7e-05 
5 1 1.69122e-06 9.56e-05 5.57e-05 2.84e-05 
36 1 1.61948e-06 7.15e-05 5.33e-05 3e-05 
47 1 1.54773e-06 7.53e-05 7.65e-05 3.6e-05 
23 1 1.69122e-06 5.08e-05 5.06e-05 3.73e-05 
50 1 1.58873e-06 8.44e-05 8.17e-05 3.84e-05 
35 1 1.60923e-06 5.8e-05 5.03e-05 4.01e-05 
24 1 1.57848e-06 7.4e-05 6.64e-05 4.73e-05 
ITEM: TIMESTEP
500
ITEM: NUMBER OF ATOMS
53
ITEM: BOX BOUNDS ff ff ff
0.0000000000000000e+00 1.0000000000000000e-04
0.0000000000000000e+00 1.0000000000000000e-04
0.0000000000000000e+00 5.0000000000000002e-05
ITEM: ATOMS id type diameter x y z 
21 1 1.41292e-06 1.26e-05 6.89e-06 1.69e-06 
22 1 1.96984e-06 2.75e-05 4.74e-05 2.14e-06 
18 1 1.63981e-06 3.37e-05 1.94e-05 4.44e-06 
10 1 1.76357e-06 2.64e-05 3.83e-05 5.15e-06 
31 1 1.90796e-06 2.97e-05 3.14e-05 1.25e-05 
20 1 1.67075e-06 3.63e-05 4.02e-05 2.5e-05 
7 1 1.89764e-06 4.03e-05 8.54e-06 3.26e-05 
3 1 1.87702e-06 8.45e-06 1.83e-05 3.98e-05 
41 1 1.43355e-06 4.22e-06 3.9e-05 3.99e-05 
16 1 1.89764e-06 1.3e-05 5.38e-05 4.73e-06 
8 1 1.8667e-06 1.57e-05 9.01e-05 8.57e-06 
25 1 1.5573e-06 4.52e-05 8.1e-05 1.78e-05 
38 1 1.90796e-06 4.3e-05 6.7e-05 1.99e-05 
43 1 1.82545e-06 1.56e-05 8.89e-05 2.06e-05 
14 1 1.89764e-06 1.88e-05 8.23e-05 3.03e-05 
29 1 1.59856e-06 4.58e-05 7.15e-05 3.31e-05 
27 1 1.72232e-06 2.67e-05 8.52e-05 3.58e-05 
39 1 1.54699e-06 3.76e-05 6.8e-05 4.72e-05 
26 1 1.96984e-06 7.2e-05 2.14e-05 4.85e-06 
45 1 1.83576e-06 7.07e-05 3.43e-05 8.44e-06 
42 1 1.48954e-06 9.01381e-05 1.7174e-05 1.02258e-05 
30 1 1.9389e-06 9.8e-05 3.67e-05 1.19e-05 
28 1 1.712e-06 8.95e-05 2.84e-05 1.3e-05 
40 1 1.4748e-06 6.74e-05 4.75e-05 1.36e-05 
53 1 1.64597e-06 9.06894e-05 1.68077e-05 1.1645e-05 
9 1 1.77388e-06 7.83e-05 2.16e-05 2.93e-05 
46 1 1.50506e-06 5.92386e-05 4.68737e-05 3.14272e-05 
19 1 1.69138e-06 9.17e-05 3.32e-05 4.16e-05 
48 1 1.53476e-06 5.02507e-05 3.14194e-05 4.45656e-05 
37 1 1.49543e-06 7.49e-05 2.17e-05 4.59e-05 
32 1 1.65012e-06 5.37e-05 1.9e-05 4.81e-05 
51 1 1.66311e-06 5.97888e-05 4.65081e-05 3.28435e-05 
52 1 1.62247e-06 5.13807e-05 3.22024e-05 4.38135e-05 
44 1 1.6295e-06 5.57e-05 9.47e-05 2.22e-06 
17 1 1.70169e-06 5.08e-05 9.39e-05 3.84e-06 
49 1 1.48511e-06 6.22e-05 7.98e-05 4.71e-06 
1 1 1.90796e-06 7.68e-05 6.53e-05 6.74e-06 
6 1 1.52636e-06 9.29e-05 7.3e-05 1.09e-05 
15 1 1.45417e-06 9.53e-05 6.42e-05 1.2e-05 
33 1 1.54699e-06 5e-05 8.26e-05 1.37e-05 
13 1 1.65012e-06 7.86e-05 5.12e-05 1.79e-05 
12 1 1.80482e-06 5.07e-05 9.7e-05 1.77e-05 
11 1 1.84608e-06 5.72e-05 8.4e-05 1.83e-05 
2 1 1.76357e-06 5.73e-05 8.4e-05 2.46e-05 
34 1 1.76357e-06 9.18e-05 9.03e-05 2.62e-05 
4 1 1.88733e-06 5.07e-05 6.77e-05 2.7e-05 
5 1 1.70169e-06 9.56e-05 5.57e-05 2.84e-05 
36 1 1.6295e-06 7.15e-05 5.33e-05 3e-05 
47 1 1.5573e-06 7.53e-05 7.65e-05 3.6e-05 
23 1 1.70169e-06 5.08e-05 5.06e-05 3.73e-05 
50 1 1.59856e-06 8.44e-05 8.17e-05 3.84e-05 
35 1 1.61918e-06 5.8e-05 5.03e-05 4.01e-05 
24 1 1.58824e-06 7.4e-05 6.64e-05 4.73e-05 
ITEM: TIMESTEP
600
ITEM: NUMBER OF ATOMS
55
ITEM: BOX BOUNDS ff ff ff
0.0000000000000000e+00 1.0000000000000000e-04
0.0000000000000000e+00 1.0000000000000000e-04
0.0000000000000000e+00 5.0000000000000002e-05
ITEM: ATOMS id type diameter x y z 
21 1 1.42166e-06 1.26e-05 6.89e-06 1.69e-06 
22 1 1.49095e-06 2.72379e-05 4.75742e-05 1.46519e-06 
18 1 1.64996e-06 3.37e-05 1.94e-05 4.44e-06 
10 1 1.77448e-06 2.64e-05 3.83e-05 5.15e-06 
31 1 1.91976e-06 2.97e-05 3.14e-05 1.25e-05 
54 1 1.64753e-06 2.77897e-05 4.72075e-05 2.88567e-06 
20 1 1.68109e-06 3.63e-05 4.02e-05 2.5e-05 
7 1 1.90939e-06 4.03e-05 8.54e-06 3.26e-05 
3 1 1.88863e-06 8.45e-06 1.83e-05 3.98e-05 
41 1 1.44242e-06 4.22e-06 3.9e-05 3.99e-05 
16 1 1.90939e-06 1.3e-05 5.38e-05 4.73e-06 
8 1 1.87825e-06 1.57e-05 9.01e-05 8.57e-06 
25 1 1.56694e-06 4.52e-05 8.1e-05 1.78e-05 
38 1 1.91976e-06 4.3e-05 6.7e-05 1.99e-05 
43 1 1.83675e-06 1.56e-05 8.89e-05 2.06e-05 
14 1 1.90939e-06 1.88e-05 8.23e-05 3.03e-05 
29 1 1.60845e-06 4.58e-05 7.15e-05 3.31e-05 
27 1 1.73298e-06 2.67e-05 8.52e-05 3.58e-05 
39 1 1.55656e-06 3.76e-05 6.8e-05 4.72e-05 
26 1 1.52825e-06 7.14496e-05 2.10186e-05 5.21629e-06 
45 1 1.84712e-06 7.07e-05 3.43e-05 8.44e-06 
42 1 1.49876e-06 9.01381e-05 1.7174e-05 1.02258e-05 
30 1 1.95089e-06 9.8e-05 3.67e-05 1.19e-05 
28 1 1.7226e-06 8.95e-05 2.84e-05 1.3e-05 
40 1 1.48393e-06 6.74e-05 4.75e-05 1.36e-05 
53 1 1.65615e-06 9.06894e-05 1.68077e-05 1.1645e-05 
55 1 1.6156e-06 7.25818e-05 2.18031e-05 4.46277e-06 
9 1 1.78486e-06 7.83e-05 2.16e-05 2.93e-05 
46 1 1.51437e-06 5.92316e-05 4.68783e-05 3.1409e-05 
19 1 1.70184e-06 9.17e-05 3.32e-05 4.16e-05 
48 1 1.54425e-06 5.02507e-05 3.14194e-05 4.45656e-05 
37 1 1.50468e-06 7.49e-05 2.17e-05 4.59e-05 
32 1 1.66034e-06 5.37e-05 1.9e-05 4.81e-05 
51 1 1.6734e-06 5.97959e-05 4.65034e-05 3.28616e-05 
52 1 1.63251e-06 5.13807e-05 3.22024e-05 4.38135e-05 
44 1 1.63958e-06 5.57e-05 9.47e-05 2.22e-06 
17 1 1.71222e-06 5.08e-05 9.39e-05 3.84e-06 
49 1 1.4943e-06 6.22e-05 7.98e-05 4.71e-06 
1 1 1.91976e-06 7.68e-05 6.53e-05 6.74e-06 
6 1 1.53581e-06 9.29e-05 7.3e-05 1.09e-05 
15 1 1.46317e-06 9.53e-05 6.42e-05 1.2e-05 
33 1 1.55656e-06 5e-05 8.26e-05 1.37e-05 
13 1 1.66034e-06 7.86e-05 5.12e-05 1.79e-05 
12 1 1.81599e-06 5.07e-05 9.7e-05 1.77e-05 
11 1 1.8575e-06 5.72e-05 8.4e-05 1.83e-05 
2 1 1.77448e-06 5.73e-05 8.4e-05 2.46e-05 
34 1 1.77448e-06 9.18e-05 9.03e-05 2.62e-05 
4 1 1.89901e-06 5.07e-05 6.77e-05 2.7e-05 
5 1 1.71222e-06 9.56e-05 5.57e-05 2.84e-05 
36 1 1.63958e-06 7.15e-05 5.33e-05 3e-05 
47 1 1.56694e-06 7.53e-05 7.65e-05 3.6e-05 
23 1 1.71222e-06 5.08e-05 5.06e-05 3.73e-05 
50 1 1.60845e-06 8.44e-05 8.17e-05 3.84e-05 
35 1 1.6292e-06 5.8e-05 5.03e-05 4.01e-05 
24 1 1.59807e-06 7.4e-05 6.64e-05 4.73e-05 
ITEM: TIMESTEP
700
ITEM: NUMBER OF ATOMS
55
ITEM: BOX BOUNDS ff ff ff
0.0000000000000000e+00 1.0000000000000000e-04
0.0000000000000000e+00 1.0000000000000000e-04
0.0000000000000000e+00 5.0000000000000002e-05
ITEM: ATOMS id type diameter x y z 
21 1 1.43046e-06 1.26e-05 6.89e-06 1.69e-06 
22 1 1.50018e-06 2.72379e-05 4.75742e-05 1.46519e-06 
18 1 1.66017e-06 3.37e-05 1.94e-05 4.44e-06 
10 1 1.78547e-06 2.64e-05 3.83e-05 5.15e-06 
31 1 1.93164e-06 2.97e-05 3.14e-05 1.25e-05 
54 1 1.65772e-06 2.77897e-05 4.72075e-05 2.88567e-06 
20 1 1.69149e-06 3.63e-05 4.02e-05 2.5e-05 
7 1 1.9212e-06 4.03e-05 8.54e-06 3.26e-05 
3 1 1.90032e-06 8.45e-06 1.83e-05 3.98e-05 
41 1 1.45134e-06 4.22e-06 3.9e-05 3.99e-05 
16 1 1.9212e-06 1.3e-05 5.38e-05 4.73e-06 
8 1 1.88988e-06 1.57e-05 9.01e-05 8.57e-06 
25 1 1.57664e-06 4.52e-05 8.1e-05 1.78e-05 
38 1 1.93164e-06 4.3e-05 6.7e-05 1.99e-05 
43 1 1.84811e-06 1.56e-05 8.89e-05 2.06e-05 
14 1 1.9212e-06 1.88e-05 8.23e-05 3.03e-05 
29 1 1.6184e-06 4.58e-05 7.15e-05 3.31e-05 
27 1 1.7437e-06 2.67e-05 8.52e-05 3.58e-05 
39 1 1.5662e-06 3.76e-05 6.8e-05 4.72e-05 
26 1 1.53771e-06 7.14496e-05 2.10186e-05 5.21629e-06 
45 1 1.85855e-06 7.07e-05 3.43e-05 8.44e-06 
42 1 1.50803e-06 9.01381e-05 1.7174e-05 1.02258e-05 
30 1 1.96297e-06 9.8e-05 3.67e-05 1.19e-05 
28 1 1.73326e-06 8.95e-05 2.84e-05 1.3e-05 
40 1 1.49311e-06 6.74e-05 4.75e-05 1.36e-05 
53 1 1.6664e-06 9.06894e-05 1.68077e-05 1.1645e-05 
55 1 1.62559e-06 7.25818e-05 2.18031e-05 4.46277e-06 
9 1 1.79591e-06 7.83e-05 2.16e-05 2.93e-05 
46 1 1.52374e-06 5.92316e-05 4.68783e-05 3.1409e-05 
19 1 1.71238e-06 9.17e-05 3.32e-05 4.16e-05 
48 1 1.55381e-06 5.02363e-05 3.14094e-05 4.45752e-05 
37 1 1.51399e-06 7.49e-05 2.17e-05 4.59e-05 
32 1 1.67061e-06 5.37e-05 1.9e-05 4.81e-05 
51 1 1.68376e-06 5.97959e-05 4.65034e-05 3.28616e-05 
52 1 1.64262e-06 5.13951e-05 3.22124e-05 4.38039e-05 
44 1 1.64973e-06 5.57e-05 9.47e-05 2.22e-06 
17 1 1.72282e-06 5.08e-05 9.39e-05 3.84e-06 
49 1 1.50355e-06 6.22e-05 7.98e-05 4.71e-06 
1 1 1.93164e-06 7.68e-05 6.53e-05 6.74e-06 
6 1 1.54531e-06 9.29e-05 7.3e-05 1.09e-05 
15 1 1.47223e-06 9.53e-05 6.42e-05 1.2e-05 
33 1 1.5662e-06 5e-05 8.26e-05 1.37e-05 
13 1 1.67061e-06 7.86e-05 5.12e-05 1.79e-05 
12 1 1.82723e-06 5.07e-05 9.7e-05 1.77e-05 
11 1 1.869e-06 5.72e-05 8.4e-05 1.83e-05 
2 1 1.78547e-06 5.73e-05 8.4e-05 2.46e-05 
34 1 1.78547e-06 9.18e-05 9.03e-05 2.62e-05 
4 1 1.91076e-06 5.07e-05 6.77e-05 2.7e-05 
5 1 1.72282e-06 9.56e-05 5.57e-05 2.84e-05 
36 1 1.64973e-06 7.15e-05 5.33e-05 3e-05 
47 1 1.57664e-06 7.53e-05 7.65e-05 3.6e-05 
23 1 1.72282e-06 5.08e-05 5.06e-05 3.73e-05 
50 1 1.6184e-06 8.44e-05 8.17e-05 3.84e-05 
35 1 1.63929e-06 5.8e-05 5.03e-05 4.01e-05 
24 1 1.60796e-06 7.4e-05 6.64e-05 4.73e-05 
ITEM: TIMESTEP
800
ITEM: NUMBER OF ATOMS
56
ITEM: BOX BOUNDS ff ff ff
0.0000000000000000e+00 1.0000000000000000e-04
0.0000000000000000e+00 1.0000000000000000e-04
0.0000000000000000e+00 5.0000000000000002e-05
ITEM: ATOMS id type diameter x y z 
21 1 1.43931e-06 1.26e-05 6.89e-06 1.69e-06 
22 1 1.50946e-06 2.72379e-05 4.75742e-05 1.46519e-06 
18 1 1.67044e-06 3.37e-05 1.94e-05 4.44e-06 
10 1 1.79651e-06 2.64e-05 3.83e-05 5.15e-06 
31 1 1.9436e-06 2.97e-05 3.14e-05 1.25e-05 
54 1 1.66798e-06 2.77897e-05 4.72075e-05 2.88567e-06 
20 1 1.70196e-06 3.63e-05 4.02e-05 2.5e-05 
7 1 1.93309e-06 4.03e-05 8.54e-06 3.26e-05 
3 1 1.91208e-06 8.45e-06 1.83e-05 3.98e-05 
41 1 1.46032e-06 4.22e-06 3.9e-05 3.99e-05 
16 1 1.93309e-06 1.3e-05 5.38e-05 4.73e-06 
8 1 1.90157e-06 1.57e-05 9.01e-05 8.57e-06 
25 1 1.5864e-06 4.52e-05 8.1e-05 1.78e-05 
38 1 1.9436e-06 4.3e-05 6.7e-05 1.99e-05 
43 1 1.85955e-06 1.56e-05 8.89e-05 2.06e-05 
14 1 1.93309e-06 1.88e-05 8.23e-05 3.03e-05 
29 1 1.62842e-06 4.58e-05 7.15e-05 3.31e-05 
27 1 1.75449e-06 2.67e-05 8.52e-05 3.58e-05 
39 1 1.57589e-06 3.76e-05 6.8e-05 4.72e-05 
26 1 1.54722e-06 7.14496e-05 2.10186e-05 5.21629e-06 
45 1 1.87006e-06 7.07e-05 3.43e-05 8.44e-06 
42 1 1.51737e-06 9.01311e-05 1.71787e-05 1.02077e-05 
30 1 1.57155e-06 9.85065e-05 3.68907e-05 1.24684e-05 
28 1 1.74398e-06 8.95e-05 2.84e-05 1.3e-05 
40 1 1.50235e-06 6.74e-05 4.75e-05 1.36e-05 
53 1 1.67671e-06 9.06964e-05 1.6803e-05 1.16631e-05 
55 1 1.63565e-06 7.25818e-05 2.18031e-05 4.46277e-06 
56 1 1.56373e-06 9.7496e-05 3.65102e-05 1.13345e-05 
9 1 1.80702e-06 7.83e-05 2.16e-05 2.93e-05 
46 1 1.53317e-06 5.92316e-05 4.68783e-05 3.1409e-05 
19 1 1.72297e-06 9.17e-05 3.32e-05 4.16e-05 
48 1 1.56343e-06 5.02363e-05 3.14094e-05 4.45752e-05 
37 1 1.52336e-06 7.49e-05 2.17e-05 4.59e-05 
32 1 1.68095e-06 5.37e-05 1.9e-05 4.81e-05 
51 1 1.69418e-06 5.97959e-05 4.65034e-05 3.28616e-05 
52 1 1.65278e-06 5.13951e-05 3.22124e-05 4.38039e-05 
44 1 1.65994e-06 5.57e-05 9.47e-05 2.22e-06 
17 1 1.73348e-06 5.08e-05 9.39e-05 3.84e-06 
49 1 1.51285e-06 6.22e-05 7.98e-05 4.71e-06 
1 1 1.9436e-06 7.68e-05 6.53e-05 6.74e-06 
6 1 1.55488e-06 9.29e-05 7.3e-05 1.09e-05 
15 1 1.48134e-06 9.53e-05 6.42e-05 1.2e-05 
33 1 1.57589e-06 5e-05 8.26e-05 1.37e-05 
13 1 1.68095e-06 7.86e-05 5.12e-05 1.79e-05 
12 1 1.83854e-06 5.07e-05 9.7e-05 1.77e-05 
11 1 1.88056e-06 5.72e-05 8.4e-05 1.83e-05 
2 1 1.79651e-06 5.73e-05 8.4e-05 2.46e-05 
34 1 1.79651e-06 9.18e-05 9.03e-05 2.62e-05 
4 1 1.92259e-06 5.07e-05 6.77e-05 2.7e-05 
5 1 1.73348e-06 9.56e-05 5.57e-05 2.84e-05 
36 1 1.65994e-06 7.15e-05 5.33e-05 3e-05 
47 1 1.5864e-06 7.53e-05 7.65e-05 3.6e-05 
23 1 1.73348e-06 5.08e-05 5.06e-05 3.73e-05 
50 1 1.62842e-06 8.44e-05 8.17e-05 3.84e-05 
35 1 1.64943e-06 5.8e-05 5.03e-05 4.01e-05 
24 1 1.61791e-06 7.4e-05 6.64e-05 4.73e-05 
ITEM: TIMESTEP
900
ITEM: NUMBER OF ATOMS
56
ITEM: BOX BOUNDS ff ff ff
0.0000000000000000e+00 1.0000000000000000e-04
0.0000000000000000e+00 1.0000000000000000e-04
0.0000000000000000e+00 5.0000000000000002e-05
ITEM: ATOMS id type diameter x y z 
21 1 1.44822e-06 1.26e-05 6.89e-06 1.69e-06 
22 1 1.5188e-06 2.72308e-05 4.75788e-05 1.44707e-06 
18 1 1.68078e-06 3.37e-05 1.94e-05 4.44e-06 
10 1 1.80763e-06 2.64e-05 3.83e-05 5.15e-06 
31 1 1.95563e-06 2.97e-05 3.14e-05 1.25e-05 
54 1 1.6783e-06 2.77967e-05 4.72029e-05 2.9038e-06 
20 1 1.71249e-06 3.63e-05 4.02e-05 2.5e-05 
7 1 1.94505e-06 4.03e-05 8.54e-06 3.26e-05 
3 1 1.92391e-06 8.45e-06 1.83e-05 3.98e-05 
41 1 1.46936e-06 4.22e-06 3.9e-05 3.99e-05 
16 1 1.94505e-06 1.3e-05 5.38e-05 4.73e-06 
8 1 1.91334e-06 1.57e-05 9.01e-05 8.57e-06 
25 1 1.59621e-06 4.52e-05 8.1e-05 1.78e-05 
38 1 1.95563e-06 4.3e-05 6.7e-05 1.99e-05 
43 1 1.87106e-06 1.56e-05 8.89e-05 2.06e-05 
14 1 1.94505e-06 1.88e-05 8.23e-05 3.03e-05 
29 1 1.6385e-06 4.58e-05 7.15e-05 3.31e-05 
27 1 1.76535e-06 2.67e-05 8.52e-05 3.58e-05 
39 1 1.58564e-06 3.76e-05 6.8e-05 4.72e-05 
26 1 1.5568e-06 7.14352e-05 2.10087e-05 5.22589e-06 
45 1 1.88163e-06 7.07e-05 3.43e-05 8.44e-06 
42 1 1.52676e-06 9.01311e-05 1.71787e-05 1.02077e-05 
30 1 1.58128e-06 9.85065e-05 3.68907e-05 1.24684e-05 
28 1 1.75478e-06 8.95e-05 2.84e-05 1.3e-05 
40 1 1.51165e-06 6.74e-05 4.75e-05 1.36e-05 
53 1 1.68709e-06 9.06964e-05 1.6803e-05 1.16631e-05 
55 1 1.64578e-06 7.25963e-05 2.18131e-05 4.45317e-06 
56 1 1.57341e-06 9.7496e-05 3.65102e-05 1.13345e-05 
9 1 1.8182e-06 7.83e-05 2.16e-05 2.93e-05 
46 1 1.54266e-06 5.92316e-05 4.68783e-05 3.1409e-05 
19 1 1.73364e-06 9.17e-05 3.32e-05 4.16e-05 
48 1 1.5731e-06 5.02363e-05 3.14094e-05 4.45752e-05 
37 1 1.53279e-06 7.49e-05 2.17e-05 4.59e-05 
32 1 1.69135e-06 5.37e-05 1.9e-05 4.81e-05 
51 1 1.70466e-06 5.97959e-05 4.65034e-05 3.28616e-05 
52 1 1.66301e-06 5.13951e-05 3.22124e-05 4.38039e-05 
44 1 1.67021e-06 5.57e-05 9.47e-05 2.22e-06 
17 1 1.74421e-06 5.08e-05 9.39e-05 3.84e-06 
49 1 1.52222e-06 6.22e-05 7.98e-05 4.71e-06 
1 1 1.95563e-06 7.68e-05 6.53e-05 6.74e-06 
6 1 1.5645e-06 9.29e-05 7.3e-05 1.09e-05 
15 1 1.4905e-06 9.53e-05 6.42e-05 1.2e-05 
33 1 1.58564e-06 5e-05 8.26e-05 1.37e-05 
13 1 1.69135e-06 7.86e-05 5.12e-05 1.79e-05 
12 1 1.84992e-06 5.07e-05 9.7e-05 1.77e-05 
11 1 1.8922e-06 5.72e-05 8.4e-05 1.83e-05 
2 1 1.80763e-06 5.73e-05 8.4e-05 2.46e-05 
34 1 1.80763e-06 9.18e-05 9.03e-05 2.62e-05 
4 1 1.93448e-06 5.07e-05 6.77e-05 2.7e-05 
5 1 1.74421e-06 9.56e-05 5.57e-05 2.84e-05 
36 1 1.67021e-06 7.15e-05 5.33e-05 3e-05 
47 1 1.59621e-06 7.53e-05 7.65e-05 3.6e-05 
23 1 1.74421e-06 5.08e-05 5.06e-05 3.73e-05 
50 1 1.6385e-06 8.44e-05 8.17e-05 3.84e-05 
35 1 1.65964e-06 5.8e-05 5.03e-05 4.01e-05 
24 1 1.62793e-06 7.4e-05 6.64e-05 4.73e-05 
ITEM: TIMESTEP
1000
ITEM: NUMBER OF ATOMS
56
ITEM: BOX BOUNDS ff ff ff
0.0000000000000000e+00 1.0000000000000000e-04
0.0000000000000000e+00 1.0000000000000000e-04
0.0000000000000000e+00 5.0000000000000002e-05
ITEM: ATOMS id type diameter x y z 
22 1 1.5282e-06 2.72308e-05 4.75788e-05 1.44707e-06 
21 1 1.45718e-06 1.26e-05 6.89e-06 1.69e-06 
54 1 1.68869e-06 2.77967e-05 4.72029e-05 2.9038e-06 
18 1 1.69118e-06 3.37e-05 1.94e-05 4.44e-06 
10 1 1.81882e-06 2.64e-05 3.83e-05 5.15e-06 
31 1 1.96773e-06 2.97e-05 3.14e-05 1.25e-05 
20 1 1.72309e-06 3.63e-05 4.02e-05 2.5e-05 
7 1 1.95709e-06 4.03e-05 8.54e-06 3.26e-05 
3 1 1.93582e-06 8.45e-06 1.83e-05 3.98e-05 
41 1 1.47845e-06 4.22e-06 3.9e-05 3.99e-05 
16 1 1.95709e-06 1.3e-05 5.38e-05 4.73e-06 
8 1 1.92518e-06 1.57e-05 9.01e-05 8.57e-06 
25 1 1.60609e-06 4.52e-05 8.1e-05 1.78e-05 
38 1 1.96773e-06 4.3e-05 6.7e-05 1.99e-05 
43 1 1.88264e-06 1.56e-05 8.89e-05 2.06e-05 
14 1 1.95709e-06 1.88e-05 8.23e-05 3.03e-05 
29 1 1.64864e-06 4.58e-05 7.15e-05 3.31e-05 
27 1 1.77627e-06 2.67e-05 8.52e-05 3.58e-05 
39 1 1.59546e-06 3.76e-05 6.8e-05 4.72e-05 
55 1 1.65596e-06 7.25963e-05 2.18131e-05 4.45317e-06 
26 1 1.56643e-06 7.14352e-05 2.10087e-05 5.22589e-06 
45 1 1.89327e-06 7.07e-05 3.43e-05 8.44e-06 
42 1 1.5362e-06 9.01311e-05 1.71787e-05 1.02077e-05 
56 1 1.58314e-06 9.7496e-05 3.65102e-05 1.13345e-05 
53 1 1.69753e-06 9.06964e-05 1.6803e-05 1.16631e-05 
30 1 1.59106e-06 9.85065e-05 3.68907e-05 1.24684e-05 
28 1 1.76564e-06 8.95e-05 2.84e-05 1.3e-05 
40 1 1.521e-06 6.74e-05 4.75e-05 1.36e-05 
9 1 1.82945e-06 7.83e-05 2.16e-05 2.93e-05 
46 1 1.55221e-06 5.92245e-05 4.6883e-05 3.13909e-05 
51 1 1.71521e-06 5.98029e-05 4.64987e-05 3.28797e-05 
19 1 1.74436e-06 9.17e-05 3.32e-05 4.16e-05 
52 1 1.6733e-06 5.13951e-05 3.22124e-05 4.38039e-05 
48 1 1.58284e-06 5.02363e-05 3.14094e-05 4.45752e-05 
37 1 1.54227e-06 7.49e-05 2.17e-05 4.59e-05 
32 1 1.70182e-06 5.37e-05 1.9e-05 4.81e-05 
44 1 1.68055e-06 5.57e-05 9.47e-05 2.22e-06 
17 1 1.755e-06 5.08e-05 9.39e-05 3.84e-06 
49 1 1.53164e-06 6.22e-05 7.98e-05 4.71e-06 
1 1 1.96773e-06 7.68e-05 6.53e-05 6.74e-06 
6 1 1.57418e-06 9.29e-05 7.3e-05 1.09e-05 
15 1 1.49973e-06 9.53e-05 6.42e-05 1.2e-05 
33 1 1.59545e-06 5e-05 8.26e-05 1.37e-05 
13 1 1.70182e-06 7.86e-05 5.12e-05 1.79e-05 
12 1 1.86136e-06 5.07e-05 9.7e-05 1.77e-05 
11 1 1.90391e-06 5.72e-05 8.4e-05 1.83e-05 
2 1 1.81882e-06 5.73e-05 8.4e-05 2.46e-05 
34 1 1.81882e-06 9.18e-05 9.03e-05 2.62e-05 
4 1 1.94646e-06 5.07e-05 6.77e-05 2.7e-05 
5 1 1.755e-06 9.56e-05 5.57e-05 2.84e-05 
36 1 1.68055e-06 7.15e-05 5.33e-05 3e-05 
47 1 1.60609e-06 7.53e-05 7.65e-05 3.6e-05 
23 1 1.755e-06 5.08e-05 5.06e-05 3.73e-05 
50 1 1.64864e-06 8.44e-05 8.17e-05 3.84e-05 
35 1 1.66991e-06 5.8e-05 5.03e-05 4.01e-05 
24 1 1.638e-06 7.4e-05 6.64e-05 4.73e-05 
ITEM: TIMESTEP
1100
ITEM: NUMBER OF ATOMS
59
ITEM: BOX BOUNDS ff ff ff
0.0000000000000000e+00 1.0000000000000000e-04
0.0000000000000000e+00 1.0000000000000000e-04
0.0000000000000000e+00 5.0000000000000002e-05
ITEM: ATOMS id type diameter x y z 
22 1 1.53766e-06 2.72308e-05 4.75788e-05 1.44707e-06 
21 1 1.4662e-06 1.26e-05 6.89e-06 1.69e-06 
54 1 1.69914e-06 2.77967e-05 4.72029e-05 2.9038e-06 
18 1 1.70165e-06 3.37e-05 1.94e-05 4.44e-06 
10 1 1.83007e-06 2.64e-05 3.83e-05 5.15e-06 
31 1 1.52661e-06 2.91502e-05 3.10191e-05 1.28659e-05 
57 1 1.61387e-06 3.02812e-05 3.18027e-05 1.21132e-05 
20 1 1.73375e-06 3.63e-05 4.02e-05 2.5e-05 
7 1 1.9692e-06 4.03e-05 8.54e-06 3.26e-05 
3 1 1.9478e-06 8.45e-06 1.83e-05 3.98e-05 
41 1 1.4876e-06 4.22e-06 3.9e-05 3.99e-05 
16 1 1.9692e-06 1.3e-05 5.38e-05 4.73e-06 
8 1 1.9371e-06 1.57e-05 9.01e-05 8.57e-06 
25 1 1.61603e-06 4.52e-05 8.1e-05 1.78e-05 
38 1 1.48936e-06 4.27381e-05 6.7174e-05 1.92259e-05 
43 1 1.89429e-06 1.56e-05 8.89e-05 2.06e-05 
14 1 1.9692e-06 1.88e-05 8.23e-05 3.03e-05 