 NUFEB Simulation

     100 atoms 
     2 atom types 
     4 nutrients 

  0.0e-4   1.00e-04  xlo xhi 
  0.0e-4   1.00e-04  ylo yhi 
  0.0e-4   1.00e-05  zlo zhi 

 Atoms 

     1 1 1.61e-06  370 3.35e-05 7.20e-05 4.40e-06 1.61e-06 
     2 1 1.42e-06  370 5.41e-05 7.52e-05 3.80e-06 1.42e-06 
     3 1 1.83e-06  370 7.10e-05 1.31e-05 7.28e-06 1.83e-06 
     4 1 1.39e-06  370 8.20e-05 1.68e-05 5.79e-06 1.39e-06 
     5 1 1.42e-06  370 3.55e-05 9.69e-05 7.38e-06 1.42e-06 
     6 1 1.70e-06  370 5.96e-05 8.25e-05 2.77e-06 1.70e-06 
     7 1 1.60e-06  370 9.05e-05 1.70e-05 6.56e-06 1.60e-06 
     8 1 1.90e-06  370 1.31e-05 3.90e-05 8.06e-06 1.90e-06 
     9 1 1.89e-06  370 8.84e-05 4.84e-05 6.38e-06 1.89e-06 
     10 1 1.85e-06  370 9.00e-05 5.86e-06 7.44e-06 1.85e-06 
     11 1 1.92e-06  370 6.30e-05 2.47e-05 2.16e-06 1.92e-06 
     12 1 1.62e-06  370 9.06e-05 5.34e-05 7.82e-06 1.62e-06 
     13 1 1.49e-06  370 6.29e-05 7.84e-05 4.41e-06 1.49e-06 
     14 1 1.54e-06  370 6.63e-05 7.21e-06 3.37e-06 1.54e-06 
     15 1 1.66e-06  370 5.97e-05 3.45e-05 8.27e-06 1.66e-06 
     16 1 1.57e-06  370 7.58e-05 7.05e-05 2.75e-06 1.57e-06 
     17 1 1.73e-06  370 3.42e-05 3.18e-05 2.62e-06 1.73e-06 
     18 1 1.92e-06  370 7.09e-05 5.74e-05 3.32e-06 1.92e-06 
     19 1 1.40e-06  370 5.41e-05 9.51e-05 2.90e-06 1.40e-06 
     20 1 1.63e-06  370 8.87e-05 2.54e-05 5.85e-06 1.63e-06 
     21 1 1.41e-06  370 4.90e-05 3.46e-05 3.98e-06 1.41e-06 
     22 1 1.66e-06  370 7.41e-05 2.18e-05 3.12e-06 1.66e-06 
     23 1 1.78e-06  370 9.20e-05 7.47e-05 2.65e-06 1.78e-06 
     24 1 1.93e-06  370 4.67e-05 8.10e-05 5.59e-06 1.93e-06 
     25 1 1.80e-06  370 9.25e-05 3.99e-05 4.97e-06 1.80e-06 
     26 1 1.87e-06  370 2.58e-05 8.41e-05 4.62e-06 1.87e-06 
     27 1 1.57e-06  370 4.86e-05 5.35e-05 4.11e-06 1.57e-06 
     28 1 1.40e-06  370 1.35e-05 2.19e-05 4.07e-06 1.40e-06 
     29 1 1.46e-06  370 5.68e-05 5.64e-05 2.18e-06 1.46e-06 
     30 1 1.38e-06  370 6.90e-05 9.79e-05 7.49e-06 1.38e-06 
     31 1 1.50e-06  370 3.68e-06 9.18e-05 4.76e-06 1.50e-06 
     32 1 1.69e-06  370 4.91e-05 9.01e-05 3.66e-06 1.69e-06 
     33 1 1.53e-06  370 3.40e-05 3.94e-05 3.89e-06 1.53e-06 
     34 1 1.82e-06  370 4.88e-05 3.65e-06 5.08e-06 1.82e-06 
     35 1 1.59e-06  370 4.68e-05 7.17e-05 5.82e-06 1.59e-06 
     36 1 1.89e-06  370 7.32e-05 4.48e-05 6.71e-06 1.89e-06 
     37 1 1.92e-06  370 7.91e-05 3.14e-06 4.95e-06 1.92e-06 
     38 1 1.42e-06  370 4.48e-06 8.65e-05 8.20e-06 1.42e-06 
     39 1 1.85e-06  370 5.83e-05 5.51e-05 4.73e-06 1.85e-06 
     40 1 1.88e-06  370 2.93e-05 4.24e-05 5.27e-06 1.88e-06 
     41 1 1.64e-06  370 2.97e-06 9.40e-05 7.65e-06 1.64e-06 
     42 1 1.48e-06  370 2.08e-05 2.97e-05 3.96e-06 1.48e-06 
     43 1 1.38e-06  370 1.54e-06 6.48e-06 5.09e-06 1.38e-06 
     44 1 1.85e-06  370 7.38e-05 4.50e-05 7.04e-06 1.85e-06 
     45 1 1.82e-06  370 7.68e-05 6.61e-05 1.88e-06 1.82e-06 
     46 1 1.59e-06  370 7.86e-05 6.30e-05 7.69e-06 1.59e-06 
     47 1 1.40e-06  370 2.54e-05 7.37e-05 5.34e-06 1.40e-06 
     48 1 1.54e-06  370 7.22e-05 5.86e-05 1.99e-06 1.54e-06 
     49 1 1.46e-06  370 7.33e-06 5.04e-06 2.86e-06 1.46e-06 
     50 1 1.60e-06  370 9.69e-05 8.14e-05 6.72e-06 1.60e-06 
     51 2 1.17e-06  230 6.83e-05 5.80e-05 5.96e-06 1.17e-06 
     52 2 1.01e-06  230 2.41e-06 6.06e-05 3.42e-06 1.01e-06 
     53 2 1.30e-06  230 8.72e-06 6.62e-06 6.72e-06 1.30e-06 
     54 2 1.34e-06  230 3.42e-05 3.30e-06 4.73e-06 1.34e-06 
     55 2 9.27e-07  230 3.16e-05 1.35e-05 3.42e-06 9.27e-07 
     56 2 1.05e-06  230 9.84e-05 4.85e-05 6.53e-06 1.05e-06 
     57 2 1.18e-06  230 1.12e-05 4.49e-06 5.84e-06 1.18e-06 
     58 2 1.31e-06  230 9.41e-05 3.83e-05 1.55e-06 1.31e-06 
     59 2 9.57e-07  230 5.79e-05 7.71e-05 3.92e-06 9.57e-07 
     60 2 1.04e-06  230 2.91e-06 2.74e-06 5.32e-06 1.04e-06 
     61 2 8.88e-07  230 7.05e-05 8.38e-05 4.82e-06 8.88e-07 
     62 2 1.33e-06  230 7.11e-05 2.59e-05 2.04e-06 1.33e-06 
     63 2 1.18e-06  230 7.07e-05 7.28e-05 2.40e-06 1.18e-06 
     64 2 1.33e-06  230 7.74e-05 9.43e-05 8.63e-06 1.33e-06 
     65 2 1.36e-06  230 7.55e-05 3.90e-05 7.75e-06 1.36e-06 
     66 2 1.04e-06  230 1.46e-06 8.10e-05 8.15e-06 1.04e-06 
     67 2 9.83e-07  230 1.09e-05 7.69e-05 8.74e-06 9.83e-07 
     68 2 8.95e-07  230 7.46e-05 5.50e-05 5.12e-06 8.95e-07 
     69 2 1.25e-06  230 8.28e-05 7.49e-05 5.78e-06 1.25e-06 
     70 2 9.40e-07  230 8.48e-05 8.67e-05 8.69e-06 9.40e-07 
     71 2 1.26e-06  230 4.87e-05 3.51e-05 6.46e-06 1.26e-06 
     72 2 1.18e-06  230 1.03e-05 1.35e-05 5.74e-06 1.18e-06 
     73 2 1.33e-06  230 9.28e-05 2.10e-05 4.49e-06 1.33e-06 
     74 2 1.35e-06  230 9.32e-05 1.75e-05 6.51e-06 1.35e-06 
     75 2 1.06e-06  230 7.12e-05 4.15e-05 1.76e-06 1.06e-06 
     76 2 1.39e-06  230 7.94e-06 7.39e-05 8.01e-06 1.39e-06 
     77 2 9.85e-07  230 9.40e-05 5.20e-05 8.80e-06 9.85e-07 
     78 2 9.71e-07  230 4.86e-05 9.48e-05 5.73e-06 9.71e-07 
     79 2 9.55e-07  230 6.05e-05 9.13e-05 2.38e-06 9.55e-07 
     80 2 1.12e-06  230 9.34e-05 3.01e-05 4.52e-06 1.12e-06 
     81 2 1.31e-06  230 3.24e-05 1.82e-05 7.80e-06 1.31e-06 
     82 2 1.36e-06  230 3.72e-05 7.37e-05 6.82e-06 1.36e-06 
     83 2 1.19e-06  230 9.07e-05 7.96e-05 1.88e-06 1.19e-06 
     84 2 1.11e-06  230 8.76e-05 4.39e-05 8.39e-06 1.11e-06 
     85 2 9.37e-07  230 4.61e-05 7.37e-05 6.47e-06 9.37e-07 
     86 2 1.24e-06  230 6.76e-05 7.32e-06 4.72e-06 1.24e-06 
     87 2 1.38e-06  230 5.19e-05 2.39e-06 7.02e-06 1.38e-06 
     88 2 1.37e-06  230 8.85e-05 7.56e-05 8.31e-06 1.37e-06 
     89 2 1.04e-06  230 9.72e-05 1.92e-05 3.21e-06 1.04e-06 
     90 2 9.63e-07  230 1.02e-05 6.53e-05 7.07e-06 9.63e-07 
     91 2 1.36e-06  230 5.76e-05 5.92e-05 3.79e-06 1.36e-06 
     92 2 8.98e-07  230 3.52e-05 6.03e-05 8.45e-06 8.98e-07 
     93 2 1.00e-06  230 8.77e-06 5.03e-05 4.05e-06 1.00e-06 
     94 2 1.09e-06  230 9.76e-05 6.57e-05 5.03e-06 1.09e-06 
     95 2 1.16e-06  230 7.60e-05 1.60e-05 2.86e-06 1.16e-06 
     96 2 1.11e-06  230 6.49e-05 6.40e-05 7.42e-06 1.11e-06 
     97 2 1.01e-06  230 1.23e-05 3.37e-05 4.86e-06 1.01e-06 
     98 2 8.81e-07  230 8.70e-05 7.50e-05 2.85e-06 8.81e-07 
     99 2 9.30e-07  230 4.02e-05 5.89e-05 6.61e-06 9.30e-07 
     100 2 1.28e-06  230 2.19e-06 9.09e-05 4.74e-06 1.28e-06 

 Nutrients 

     1 sub g nn nn nn 1.00e-01 1.00e-01 
     2 o2 l nn nn nd 9.00e-03 9.00e-03 
     3 suc l nn nn nn 3.42e-20 3.42e-20 
     4 co2 l nn nn nd 2.99e-02 2.99e-02 

 Type Name 

     1 cyano  
     2 ecw  

 Diffusion Coeffs 

     sub 0 
     o2 2.3e-09 
     suc 5.2e-10 
     co2 1.9e-09 

 Growth Rate 

     cyano 1.67e-05 
     ecw 7e-05 

 Ks 

     cyano 0.00035 0.0002 0.01 0.000138 
     ecw 0 0.001 3.6 0.05 

 Yield 

     cyano 0.55 
     ecw 0.43 

 Maintenance 

     cyano 0 
     ecw 9.5e-07 

 Decay 

     cyano 0 
     ecw 0 



