LAMMPS (20 Nov 2019)
Reading data file ...
  orthogonal box = (0 0 0) to (0.0001 0.0001 1e-05)
  8 by 4 by 1 MPI processor grid
  reading atoms ...
  100 atoms
  4 nutrients
Lattice spacing in x,y,z = 100 100 100
50 atoms in group CYANO
50 atoms in group ECW
Model is defined as a closed system. 
Neighbor list info ...
  update every 1 steps, delay 0 steps, check yes
  max neighbors/atom: 5000, page size: 100000
  master list distance cutoff = 2.43e-06
  ghost atom cutoff = 2.43e-06
  binsize = 1.215e-06, bins = 83 83 9
  1 neighbor lists, perpetual/occasional/extra = 1 0 0
  (1) pair gran/hooke/history, perpetual
      attributes: half, newton off, size, history
      pair build: half/size/bin/newtoff
      stencil: half/bin/3d/newtoff
      bin: standard
Setting up Verlet run ...
  Unit style    : lj
  Current step  : 0
  Time step     : 10
Per MPI rank memory allocation (min/avg/max) = 5.794 | 11.04 | 12.11 Mbytes
Step CPU Atoms c_myNtypes[1] c_myNtypes[2] c_myMass[1] c_myMass[2] c_myCon[1] c_myCon[2] c_myCon[3] c_myCon[4] 
       0            0      100           50           50 4.4640807e-14 9.3383155e-15          0.1        0.009     3.42e-20       0.0299 
number of iterations: 325868 
     100    15.692839      133           50           83 4.5232397e-14 9.3361358e-15          0.1 0.0090007663  0.035868519  0.029898724 
number of iterations: 4159 
     200    16.027903      152           50          102 4.5831826e-14 9.3397836e-15          0.1 0.0090007761  0.070951747  0.029898707 
number of iterations: 2523 
     300    16.289311      152           50          102  4.64392e-14 9.3489415e-15          0.1 0.0090007861   0.10636781   0.02989869 
number of iterations: 2051 
     400    16.534309      152           50          102 4.7054622e-14 9.3635669e-15          0.1 0.0090007962   0.14212744  0.029898673 
number of iterations: 1753 
     500    16.758176      154           51          103  4.76782e-14 9.3836319e-15          0.1 0.0090008027   0.17823809  0.029898662 
number of iterations: 1544 
     600    16.961368      157           54          103 4.8310042e-14 9.4091189e-15          0.1 0.0090008145   0.21470677  0.029898642 
number of iterations: 1393 
     700    17.165138      158           54          104 4.8950257e-14 9.4400198e-15          0.1  0.009000825   0.25154027  0.029898624 
number of iterations: 1396 
     800    17.358329      158           54          104 4.9598956e-14 9.4763361e-15          0.1 0.0090008357   0.28874514  0.029898606 
number of iterations: 1584 
     900    17.561668      159           55          104 5.0256252e-14 9.5180784e-15          0.1 0.0090008527   0.32632782  0.029898577 
number of iterations: 1677 
    1000    17.845655      161           57          104 5.0922259e-14 9.5652721e-15          0.1 0.0090008728   0.36429459  0.029898543 
number of iterations: 1408 
    1100    18.101434      162           58          104 5.1597092e-14 9.6179406e-15          0.1 0.0090008841   0.40265158  0.029898524 
number of iterations: 1505 
    1200    18.332811      164           59          105 5.2280867e-14 9.6761252e-15          0.1 0.0090008986   0.44140492    0.0298985 
number of iterations: 1413 
    1300    18.543409      164           59          105 5.2973705e-14 9.739868e-15          0.1 0.0090009102   0.48056034   0.02989848 
number of iterations: 1416 
    1400     18.72825      164           59          105 5.3675724e-14 9.8092246e-15          0.1  0.009000922   0.52012358   0.02989846 
number of iterations: 1567 
    1500    18.933419      170           62          108 5.4387046e-14 9.8842724e-15          0.1 0.0090009288   0.56010024  0.029898448 
number of iterations: 1417 
    1600    19.133147      170           62          108 5.5107795e-14 9.9650717e-15          0.1 0.0090009409   0.60049585  0.029898428 
number of iterations: 1420 
    1700    19.302348      171           63          108 5.5838095e-14 1.0051705e-14          0.1 0.0090009531   0.64131582  0.029898407 
number of iterations: 1434 
    1800    19.484637      175           65          110 5.6578073e-14 1.0144252e-14          0.1 0.0090009642   0.68256552  0.029898388 
number of iterations: 1426 
    1900    19.669767      176           65          111 5.7327858e-14 1.0242826e-14          0.1 0.0090009767   0.72425001  0.029898367 
number of iterations: 1429 
    2000    19.871233      177           65          112 5.8087579e-14 1.0347534e-14          0.1 0.0090009893   0.76637435  0.029898346 
number of iterations: 1471 
    2100    20.062466      180           66          114 5.8857368e-14 1.0458493e-14          0.1 0.0090010021   0.80894345  0.029898324 
number of iterations: 1435 
    2200     20.24287      180           66          114 5.9637358e-14 1.0575835e-14          0.1 0.0090010151   0.85196212  0.029898302 
number of iterations: 1463 
    2300    20.426767      182           67          115 6.0427685e-14 1.069969e-14          0.1 0.0090010283   0.89543483   0.02989828 
number of iterations: 1441 
    2400    20.598211      183           67          116 6.1228486e-14 1.0830212e-14          0.1 0.0090010416   0.93936634  0.029898257 
number of iterations: 1443 
    2500    20.776568      183           67          116 6.2039899e-14 1.0967561e-14          0.1 0.0090010552   0.98376106  0.029898234 
number of iterations: 1446 
    2600    20.980365      186           67          119 6.2862065e-14 1.1111897e-14          0.1 0.0090010688    1.0286233  0.029898211 
number of iterations: 1449 
    2700    21.167814      186           67          119 6.3695126e-14 1.1263407e-14          0.1 0.0090010827    1.0739572  0.029898187 
number of iterations: 1452 
    2800    21.383112      188           67          121 6.4539228e-14 1.1422278e-14          0.1 0.0090010967    1.1197668  0.029898163 
number of iterations: 1455 
    2900    21.572068      188           67          121 6.5394515e-14 1.1588713e-14          0.1  0.009001111    1.1660559  0.029898139 
number of iterations: 1464 
    3000     21.77009      190           68          122 6.6261137e-14 1.1762917e-14          0.1 0.0090011269    1.2128282  0.029898112 
number of iterations: 1461 
    3100    21.970072      194           68          126 6.7139243e-14 1.1945125e-14          0.1 0.0090011415    1.2600872  0.029898087 
number of iterations: 1463 
    3200    22.150461      197           68          129 6.8028987e-14 1.213557e-14          0.1 0.0090011563    1.3078364  0.029898062 
number of iterations: 1559 
    3300    22.333854      198           68          130 6.8930521e-14 1.2334501e-14          0.1  0.009001173    1.3560789  0.029898034 
number of iterations: 1470 
    3400    22.543549      200           69          131 6.9844003e-14 1.2542179e-14          0.1 0.0090011882    1.4048177  0.029898008 
number of iterations: 1471 
    3500    22.738348      202           70          132 7.076959e-14 1.275888e-14          0.1  0.009001201    1.4540558  0.029897986 
number of iterations: 1475 
    3600    22.953415      206           70          136 7.1707444e-14 1.2984899e-14          0.1 0.0090012165    1.5037955   0.02989796 
number of iterations: 1478 
    3700    23.164318      209           70          139 7.2657726e-14 1.3220535e-14          0.1 0.0090012323    1.5540394  0.029897933 
number of iterations: 1461 
    3800    23.352143      214           70          144 7.3620601e-14 1.3466112e-14          0.1 0.0090012444    1.6047895  0.029897912 
number of iterations: 1597 
    3900    23.560471      217           72          145 7.4596237e-14 1.372196e-14          0.1 0.0090012666    1.6560477  0.029897875 
number of iterations: 1486 
    4000    23.762437      219           72          147 7.5584802e-14 1.3988432e-14          0.1  0.009001283    1.7078157  0.029897847 
number of iterations: 1489 
    4100    23.965898      219           72          147 7.6586467e-14 1.4265897e-14          0.1 0.0090012996    1.7600949  0.029897818 
number of iterations: 1616 
    4200    24.182342      221           73          148 7.7601407e-14 1.455473e-14          0.1 0.0090013113    1.8128862  0.029897798 
number of iterations: 1494 
    4300    24.351984      225           73          152 7.8629797e-14 1.4855344e-14          0.1 0.0090013282    1.8661905  0.029897769 
number of iterations: 1478 
    4400    24.562784      230           74          156 7.9671815e-14 1.5168167e-14          0.1 0.0090013409    1.9200086  0.029897748 
number of iterations: 1454 
    4500    24.758639      237           75          162 8.0727643e-14 1.5493638e-14          0.1 0.0090013531    1.9743404  0.029897726 
number of iterations: 1558 
    4600    25.004428      243           76          167 8.1797462e-14 1.5832213e-14          0.1 0.0090013736    2.0291858  0.029897692 
number of iterations: 1447 
    4700    25.178685      250           76          174 8.2881459e-14 1.6184385e-14          0.1 0.0090013836    2.0845444  0.029897674 
number of iterations: 1715 
    4800    25.371552      254           78          176 8.3979821e-14 1.6550654e-14          0.1 0.0090014058    2.1404151  0.029897636 
number of iterations: 1504 
    4900    25.549444      262           80          182 8.5092739e-14 1.693155e-14          0.1 0.0090014149    2.1967966   0.02989762 
number of iterations: 1507 
    5000    25.769466      266           80          186 8.6220406e-14 1.732763e-14          0.1 0.0090014331    2.2536873  0.029897589 
number of iterations: 1510 
    5100    25.937588      269           81          188 8.7363016e-14 1.7739477e-14          0.1 0.0090014515     2.311085  0.029897557 
number of iterations: 1668 
    5200     26.13631      278           86          192 8.8520769e-14 1.8167691e-14          0.1 0.0090014807    2.3689869  0.029897508 
number of iterations: 1709 
    5300    26.345292      281           86          195 8.9693865e-14 1.8612911e-14          0.1 0.0090015045    2.4273899  0.029897467 
number of iterations: 1521 
    5400    26.520453      287           87          200 9.0882506e-14 1.9075796e-14          0.1 0.0090015237    2.4862905  0.029897434 
number of iterations: 1524 
    5500     26.72519      293           87          206  9.20869e-14 1.955703e-14          0.1 0.0090015431    2.5456843    0.0298974 
number of iterations: 1475 
    5600    26.902175      304           90          214 9.3307255e-14 2.0057336e-14          0.1 0.0090015588    2.6055668  0.029897373 
number of iterations: 1559 
    5700    27.089187      312           92          220 9.4543782e-14 2.0577465e-14          0.1 0.0090015757    2.6659324  0.029897344 
number of iterations: 1531 
    5800    27.279901      317           94          223 9.5796695e-14 2.1118224e-14          0.1 0.0090015903    2.7267752  0.029897318 
number of iterations: 1534 
    5900    27.463614      324           94          230 9.7066213e-14 2.1680415e-14          0.1 0.0090016107    2.7880884  0.029897283 
number of iterations: 1736 
    6000    27.688543      334           97          237 9.8352554e-14 2.2264902e-14          0.1 0.0090016325    2.8498646  0.029897245 
number of iterations: 1545 
    6100    27.888815      339           97          242 9.9655942e-14 2.2872592e-14          0.1 0.0090016532    2.9120957  0.029897209 
number of iterations: 1546 
    6200    28.178809      343           98          245 1.009766e-13 2.3504376e-14          0.1 0.0090016742    2.9747727  0.029897173 
number of iterations: 1524 
    6300    28.368655      348           99          249 1.0231477e-13 2.4161283e-14          0.1   0.00900169     3.037886  0.029897145 
number of iterations: 1627 
    6400     28.56284      353          102          251 1.0367066e-13 2.4844339e-14          0.1 0.0090017175    3.1014251  0.029897098 
number of iterations: 1553 
    6500    28.750154      365          103          262 1.0504453e-13 2.5554617e-14          0.1 0.0090017392    3.1653785   0.02989706 
number of iterations: 1599 
    6600    28.959575      374          107          267 1.064366e-13 2.6293257e-14          0.1 0.0090017608    3.2297337  0.029897022 
number of iterations: 1549 
    6700    29.158826      386          107          279 1.0784712e-13 2.7061401e-14          0.1  0.009001783    3.2944775  0.029896983 
number of iterations: 1655 
    6800     29.36416      397          109          288 1.0927633e-13 2.7860295e-14          0.1 0.0090018079    3.3595954   0.02989694 
number of iterations: 1575 
    6900    29.544832      410          113          297 1.1072448e-13 2.8691184e-14          0.1 0.0090018304    3.4250718  0.029896901 
number of iterations: 1568 
    7000    29.756162      428          114          314 1.1219183e-13 2.9555396e-14          0.1 0.0090018533    3.4908902   0.02989686 
number of iterations: 1591 
    7100    29.959176      433          115          318 1.1367861e-13 3.0454318e-14          0.1 0.0090018803    3.5570327  0.029896813 
number of iterations: 1572 
    7200     30.16547      445          116          329 1.1518511e-13 3.1389405e-14          0.1 0.0090018927    3.6234802   0.02989679 
number of iterations: 1575 
    7300    30.367128      457          116          341 1.1671156e-13 3.2362159e-14          0.1 0.0090019164    3.6902122  0.029896748 
number of iterations: 1639 
    7400    30.580485      468          116          352 1.1825825e-13 3.3374144e-14          0.1 0.0090019438    3.7572072    0.0298967 
number of iterations: 1711 
    7500    30.777872      485          122          363 1.1982543e-13 3.4427019e-14          0.1 0.0090019757    3.8244416  0.029896645 
number of iterations: 1582 
    7600    30.982652      496          122          374 1.2141338e-13 3.5522515e-14          0.1 0.0090020002     3.891891  0.029896601 
number of iterations: 1699 
    7700    31.182571      514          124          390 1.2302238e-13 3.6662431e-14          0.1  0.009002028    3.9595292  0.029896552 
number of iterations: 1600 
    7800    31.382463      533          128          405 1.2465269e-13 3.7848619e-14          0.1 0.0090020509    4.0273282  0.029896511 
number of iterations: 1551 
    7900    31.563136      546          131          415 1.2630462e-13 3.9083033e-14          0.1 0.0090020675    4.0952588  0.029896481 
number of iterations: 1670 
    8000    31.793265      559          133          426 1.2797843e-13 4.0367737e-14          0.1 0.0090020952    4.1632893  0.029896431 
number of iterations: 1545 
    8100    32.003361      566          135          431 1.2967443e-13 4.1704823e-14          0.1 0.0090021099    4.2313862  0.029896404 
number of iterations: 1597 
    8200    32.201833      582          135          447 1.313929e-13 4.3096519e-14          0.1 0.0090021356    4.2995146  0.029896357 
number of iterations: 1695 
    8300    32.385779      599          136          463 1.3313414e-13 4.4545112e-14          0.1 0.0090021678    4.3676374    0.0298963 
number of iterations: 1608 
    8400    32.573829      617          137          480 1.3489846e-13 4.6053017e-14          0.1 0.0090021941    4.4357147  0.029896253 
number of iterations: 1787 
    8500    32.782051      636          138          498 1.3668616e-13 4.7622753e-14          0.1 0.0090022219    4.5037054  0.029896203 
number of iterations: 1612 
    8600    32.977562      647          138          509 1.3849756e-13 4.9256914e-14          0.1  0.009002249    4.5715656  0.029896154 
number of iterations: 1681 
    8700     33.18083      663          139          524 1.4033295e-13 5.0958261e-14          0.1 0.0090022776    4.6392491  0.029896102 
number of iterations: 1621 
    8800    33.372875      680          141          539 1.4219267e-13 5.2729643e-14          0.1  0.009002305    4.7067071  0.029896052 
number of iterations: 1621 
    8900    33.572218      701          141          560 1.4407704e-13 5.4573986e-14          0.1 0.0090023327    4.7738882  0.029896001 
number of iterations: 1625 
    9000    33.804105      726          141          585 1.4598638e-13 5.6494378e-14          0.1 0.0090023606    4.8407383   0.02989595 
number of iterations: 1625 
    9100    33.997124      744          143          601 1.4792102e-13 5.8494019e-14          0.1 0.0090023886    4.9072009  0.029895899 
number of iterations: 1629 
    9200     34.22908      773          144          629 1.498813e-13 6.057625e-14          0.1  0.009002414    4.9732161  0.029895851 
number of iterations: 1616 
    9300    34.443036      799          145          654 1.5186755e-13 6.2744568e-14          0.1 0.0090024423    5.0387209  0.029895798 
number of iterations: 1633 
    9400    34.631467      823          146          677 1.5388013e-13 6.5002544e-14          0.1 0.0090024712    5.1036498  0.029895745 
number of iterations: 1573 
    9500    34.841719      847          149          698 1.5591938e-13 6.7353941e-14          0.1 0.0090024909    5.1679338  0.029895706 
number of iterations: 1778 
    9600    35.053374      881          149          732 1.5798565e-13 6.9802685e-14          0.1 0.0090025294    5.2315004  0.029895636 
number of iterations: 1615 
    9700    35.246596      905          151          754 1.6007931e-13 7.2352828e-14          0.1 0.0090025556    5.2942739  0.029895586 
number of iterations: 1642 
    9800    35.441111      933          152          781 1.6220071e-13 7.500865e-14          0.1  0.009002581    5.3561749  0.029895537 
number of iterations: 1644 
    9900    35.653822      965          152          813 1.6435023e-13 7.7774506e-14          0.1 0.0090026108    5.4171203   0.02989548 
number of iterations: 1690 
   10000    35.863029      999          158          841 1.6652823e-13 8.0654899e-14          0.1 0.0090026381    5.4770232  0.029895428 
number of iterations: 1699 
   10100    36.057445     1029          158          871 1.6873509e-13 8.365458e-14          0.1 0.0090026752    5.5357931  0.029895359 
number of iterations: 1644 
   10200    36.272806     1063          161          902 1.709712e-13 8.6778371e-14          0.1 0.0090027056    5.5933353    0.0298953 
number of iterations: 1654 
   10300    36.482124     1099          161          938 1.7323694e-13 9.0031465e-14          0.1 0.0090027362    5.6495509  0.029895241 
number of iterations: 1643 
   10400    36.669012     1134          164          970 1.7553271e-13 9.3419109e-14          0.1 0.0090027634    5.7043369  0.029895188 
number of iterations: 1744 
   10500    36.863093     1167          165         1002 1.7785891e-13 9.6946685e-14          0.1 0.0090027996     5.757586  0.029895119 
number of iterations: 1608 
   10600    37.060121     1199          169         1030 1.8021593e-13 1.0061985e-13          0.1 0.0090028167    5.8091863  0.029895081 
number of iterations: 1747 
   10700    37.268761     1248          171         1077 1.8260418e-13 1.0444458e-13          0.1 0.0090028591    5.8590223  0.029895001 
number of iterations: 1657 
   10800    37.476187     1290          176         1114 1.8502409e-13 1.0842692e-13          0.1 0.0090028886    5.9069731  0.029894942 
number of iterations: 1765 
   10900     37.70496     1339          178         1161 1.8747606e-13 1.1257289e-13          0.1 0.0090029229    5.9529134  0.029894875 
number of iterations: 1716 
   11000    37.905137     1394          185         1209 1.8996053e-13 1.1688922e-13          0.1 0.0090029537    5.9967137  0.029894813 
number of iterations: 1659 
   11100    38.200827     1446          187         1259 1.9247792e-13 1.213822e-13          0.1 0.0090029792    6.0382399   0.02989476 
number of iterations: 1709 
   11200    38.454414     1489          191         1298 1.9502868e-13 1.2605879e-13          0.1 0.0090030171    6.0773528  0.029894685 
number of iterations: 1647 
   11300    38.660018     1541          193         1348 1.9761323e-13 1.3092594e-13          0.1 0.0090030388    6.1139084  0.029894637 
number of iterations: 1647 
   11400    38.881566     1596          196         1400 2.0023204e-13 1.3599082e-13          0.1 0.0090030701    6.1477595  0.029894572 
number of iterations: 1709 
   11500    39.100684     1657          199         1458 2.0288555e-13 1.412604e-13          0.1 0.0090030878    6.1787537   0.02989453 
number of iterations: 1673 
   11600    39.311856     1722          203         1519 2.0557423e-13 1.4674239e-13          0.1 0.0090031196    6.2067341  0.029894463 
number of iterations: 1746 
   11700    39.528417     1789          207         1582 2.0829854e-13 1.5231114e-13          0.1 0.0090031607     6.231659  0.029894382 
number of iterations: 1725 
   11800      39.7469     1846          209         1637 2.1105895e-13 1.5823673e-13          0.1  0.009003193    6.2532484  0.029894313 
number of iterations: 1699 
   11900    39.958034     1915          213         1702 2.1385594e-13 1.6439835e-13          0.1 0.0090032258     6.271334  0.029894244 
number of iterations: 1761 
   12000    40.188564     1981          215         1766   2.1669e-13 1.7080411e-13          0.1 0.0090032702    6.2857439  0.029894154 
number of iterations: 1759 
   12100    40.427095     2053          219         1834 2.1956162e-13 1.7746274e-13          0.1 0.0090033074    6.2963031  0.029894076 
number of iterations: 1690 
   12200     40.62466     2133          222         1911 2.2247129e-13 1.8438271e-13          0.1 0.0090033406    6.3028335  0.029894004 
number of iterations: 1818 
   12300     40.87985     2203          224         1979 2.2541952e-13 1.915725e-13          0.1 0.0090033856    6.3051547  0.029893912 
number of iterations: 1787 
   12400     41.09594     2289          229         2060 2.2840682e-13 1.9904067e-13          0.1 0.0090034203    6.3030851  0.029893836 
number of iterations: 1794 
   12500    41.310178     2377          234         2143 2.3143371e-13 2.0679585e-13          0.1 0.0090034527    6.2964417  0.029893764 
number of iterations: 1808 
   12600    41.551619     2467          238         2229 2.3450072e-13 2.1484702e-13          0.1 0.0090034914    6.2850416  0.029893681 
number of iterations: 1716 
   12700    41.788979     2563          241         2322 2.3760836e-13 2.232021e-13          0.1 0.0090035253     6.268703  0.029893605 
number of iterations: 1728 
   12800    42.003278     2639          244         2395 2.4075719e-13 2.3186949e-13          0.1 0.0090035599    6.2472451  0.029893527 
number of iterations: 1708 
   12900    42.222569     2733          248         2485 2.4394775e-13 2.407311e-13          0.1 0.0090035946    6.2206033  0.029893449 
number of iterations: 1704 
   13000    42.449132     2832          254         2578 2.4718059e-13 2.4993082e-13          0.1 0.0090036141    6.1885946  0.029893395 
number of iterations: 1706 
   13100    42.663966     2924          254         2670 2.5045627e-13 2.5944381e-13          0.1 0.0090036491    6.1510705  0.029893316 
number of iterations: 1689 
   13200     42.91724     3039          256         2783 2.5377536e-13 2.6942619e-13          0.1 0.0090036715     6.107758  0.029893257 
number of iterations: 1707 
   13300    43.134494     3161          260         2901 2.5713844e-13 2.796863e-13          0.1 0.0090037064    6.0585718  0.029893176 
number of iterations: 1751 
   13400    43.373916     3280          262         3018 2.6054609e-13 2.9037257e-13          0.1 0.0090037441    6.0033094   0.02989309 
number of iterations: 1682 
   13500    43.621924     3391          265         3126 2.6399889e-13 3.0134332e-13          0.1 0.0090037753    5.9419142  0.029893016 
number of iterations: 1730 
   13600    43.863575     3505          267         3238 2.6749745e-13 3.1265873e-13          0.1 0.0090038128     5.874296  0.029892929 
number of iterations: 1703 
   13700    44.077262     3622          269         3353 2.7104237e-13 3.2443679e-13          0.1  0.009003843    5.8002836  0.029892855 
number of iterations: 1805 
   13800     44.33081     3748          273         3475 2.7463428e-13 3.3658737e-13          0.1 0.0090038877    5.7198111  0.029892757 
number of iterations: 1821 
   13900     44.59743     3869          276         3593 2.7827378e-13 3.4899045e-13          0.1 0.0090039323    5.6329437  0.029892658 
number of iterations: 1793 
   14000    44.898897     4028          281         3747 2.8196151e-13 3.6188554e-13          0.1 0.0090039846    5.5395674  0.029892546 
number of iterations: 1735 
   14100    45.121936     4189          284         3905 2.8569812e-13 3.7504773e-13          0.1 0.0090040195    5.4397962  0.029892463 
number of iterations: 1751 
   14200    45.360229     4327          284         4043 2.8948424e-13 3.8868292e-13          0.1 0.0090040625    5.3336012  0.029892366 
number of iterations: 1787 
   14300    45.637499     4479          290         4189 2.9332053e-13 4.025942e-13          0.1 0.0090041054    5.2211597  0.029892268 
number of iterations: 1746 
   14400    45.891262     4624          291         4333 2.9720767e-13 4.169488e-13          0.1  0.009004148     5.102547  0.029892173 
number of iterations: 1783 
   14500    46.134811     4778          294         4484 3.0114632e-13 4.3165169e-13          0.1 0.0090041938    4.9779653  0.029892073 
number of iterations: 1758 
   14600    46.361632     4924          294         4630 3.0513716e-13 4.4649898e-13          0.1  0.009004232    4.8478293  0.029891986 
number of iterations: 1803 
   14700    46.625383     5083          295         4788 3.0918089e-13 4.6185389e-13          0.1 0.0090042842    4.7122998  0.029891876 
number of iterations: 1758 
   14800    46.879242     5263          298         4965 3.1327821e-13 4.7743004e-13          0.1 0.0090043357    4.5718264  0.029891768 
number of iterations: 1786 
   14900    47.220948     5431          300         5131 3.1742983e-13 4.9337089e-13          0.1 0.0090043778    4.4267924  0.029891677 
number of iterations: 1741 
   15000    47.469449     5611          304         5307 3.2163646e-13 5.093315e-13          0.1 0.0090044211    4.2779092  0.029891585 
number of iterations: 1762 
   15100    47.733858     5792          308         5484 3.2589884e-13 5.2564527e-13          0.1 0.0090044689    4.1256695  0.029891487 
number of iterations: 1797 
   15200    48.021029     5972          310         5662 3.3021771e-13 5.4204466e-13          0.1 0.0090045294    3.9708261   0.02989137 
number of iterations: 1781 
   15300    48.332604     6156          314         5842 3.3459381e-13 5.5884337e-13          0.1 0.0090045814    3.8139378  0.029891269 
number of iterations: 1727 
   15400    48.606565     6338          322         6016 3.3902791e-13 5.7568182e-13          0.1  0.009004626    3.6558855  0.029891181 
number of iterations: 1790 
   15500     48.93383     6504          326         6178 3.4352076e-13 5.9253646e-13          0.1 0.0090046864    3.4975949   0.02989107 
number of iterations: 1832 
   15600    49.237014     6703          331         6372 3.4807316e-13 6.0956143e-13          0.1 0.0090047502    3.3399009  0.029890955 
number of iterations: 1798 
   15700    49.511135     6908          337         6571 3.5268588e-13 6.2639128e-13          0.1 0.0090048161    3.1839106  0.029890841 
number of iterations: 1777 
   15800    49.784239     7093          343         6750 3.5735973e-13 6.4349641e-13          0.1 0.0090048829    3.0303941  0.029890726 
number of iterations: 1816 
   15900    50.065603     7286          349         6937 3.6209553e-13 6.6017637e-13          0.1 0.0090049573    2.8805814    0.0298906 
number of iterations: 1887 
   16000    50.376609     7471          353         7118 3.6689408e-13 6.7665898e-13          0.1 0.0090050409    2.7354779  0.029890462 
number of iterations: 1861 
   16100    50.717016     7628          357         7271 3.7175622e-13 6.9314624e-13          0.1 0.0090051241    2.5958864  0.029890329 
number of iterations: 1870 
   16200    50.996929     7825          365         7460 3.7668279e-13 7.0935354e-13          0.1 0.0090052191    2.4627046  0.029890175 
number of iterations: 1882 
   16300    51.324481     7997          373         7624 3.8167466e-13 7.253094e-13          0.1 0.0090053287    2.3366872  0.029890001 
number of iterations: 1955 
   16400    51.678001     8142          380         7762 3.8673267e-13 7.4126487e-13          0.1 0.0090054465    2.2183104  0.029889814 
number of iterations: 1801 
   16500    52.010094     8322          382         7940 3.9185772e-13 7.5739473e-13          0.1 0.0090055269    2.1078333  0.029889688 
number of iterations: 1899 
   16600    52.339037     8486          386         8100 3.9705068e-13 7.7316298e-13          0.1  0.009005621    2.0056855  0.029889541 
number of iterations: 1901 
   16700    52.695974     8695          393         8302 4.0231246e-13 7.8881278e-13          0.1 0.0090057273    1.9119965  0.029889375 
number of iterations: 1951 
   16800    53.044278     8884          402         8482 4.0764397e-13 8.0408358e-13          0.1 0.0090058234    1.8268818  0.029889225 
number of iterations: 2000 
   16900    53.373573     9075          410         8665 4.1304613e-13 8.1925446e-13          0.1 0.0090059154    1.7501568  0.029889082 
number of iterations: 2047 
   17000    53.741959     9229          416         8813 4.1851988e-13 8.3448971e-13          0.1 0.0090060174    1.6814429  0.029888921 
number of iterations: 2092 
   17100    54.083299     9404          425         8979 4.2406618e-13 8.4947613e-13          0.1 0.0090061103    1.6204246  0.029888775 
number of iterations: 2136 
   17200    54.418346     9563          429         9134 4.2968597e-13 8.6447887e-13          0.1 0.0090062185    1.5665743  0.029888601 
number of iterations: 2178 
   17300    54.798436     9729          434         9295 4.3538024e-13 8.7904263e-13          0.1 0.0090063093     1.519522  0.029888455 
number of iterations: 2219 
   17400    55.163583     9876          442         9434 4.4114996e-13 8.9379604e-13          0.1 0.0090064128     1.478561  0.029888286 
number of iterations: 2260 
   17500    55.504825    10028          449         9579 4.4699615e-13 9.0853953e-13          0.1 0.0090065208    1.4430888  0.029888108 
number of iterations: 2295 
   17600    55.863401    10175          449         9726 4.5291981e-13 9.2320489e-13          0.1 0.0090066168    1.4125444  0.029887948 
number of iterations: 2336 
   17700    56.216418    10344          462         9882 4.5892198e-13 9.3772571e-13          0.1 0.0090067081    1.3864155  0.029887795 
number of iterations: 2367 
   17800    56.622462    10523          467        10056 4.6500368e-13 9.5209852e-13          0.1 0.0090067964    1.3642147  0.029887645 
number of iterations: 2401 
   17900    56.992977    10673          478        10195 4.7116598e-13 9.6690684e-13          0.1 0.0090068849     1.345257  0.029887492 
number of iterations: 2424 
   18000    57.345979    10846          488        10358 4.7740995e-13 9.8165049e-13          0.1 0.0090069821    1.3291438  0.029887325 
number of iterations: 2451 
   18100    57.714376    11006          492        10514 4.8373666e-13 9.9662432e-13          0.1 0.0090070762    1.3154028  0.029887161 
number of iterations: 2477 
   18200    58.123893    11200          500        10700 4.9014721e-13 1.0117429e-12          0.1 0.0090071879    1.3036604  0.029886966 
number of iterations: 2502 
   18300    58.536926    11374          502        10872 4.9664272e-13 1.0268247e-12          0.1 0.0090072928    1.2936658  0.029886782 
number of iterations: 2526 
   18400     58.94011    11545          511        11034 5.032243e-13 1.0421077e-12          0.1 0.0090073824    1.2851098  0.029886623 
number of iterations: 2550 
   18500    59.328395    11728          514        11214 5.098931e-13 1.0575675e-12          0.1 0.0090074951    1.2777411  0.029886423 
number of iterations: 2572 
   18600    59.695237    11885          517        11368 5.1665028e-13 1.0731968e-12          0.1  0.009007589     1.271355  0.029886255 
number of iterations: 2600 
   18700    60.089332    12081          521        11560 5.2349701e-13 1.0889157e-12          0.1  0.009007688    1.2658118  0.029886077 
number of iterations: 2619 
   18800     60.49657    12269          530        11739 5.3043447e-13 1.1050097e-12          0.1  0.009007793    1.2608868  0.029885889 
number of iterations: 2644 
   18900     60.89309    12457          534        11923 5.3746386e-13 1.1211896e-12          0.1 0.0090079015    1.2565112  0.029885695 
number of iterations: 2665 
   19000    61.323117    12607          537        12070 5.4458641e-13 1.1371809e-12          0.1 0.0090080111    1.2527288  0.029885498 
number of iterations: 2689 
   19100    61.746264    12779          542        12237 5.5180335e-13 1.1540876e-12          0.1 0.0090081049    1.2491563  0.029885327 
number of iterations: 2713 
   19200    62.207002    12936          543        12393 5.5911593e-13 1.1707807e-12          0.1  0.009008209    1.2459226  0.029885139 
number of iterations: 2736 
   19300    62.643008    13134          555        12579 5.6652541e-13 1.1880029e-12          0.1 0.0090083267    1.2428459  0.029884927 
number of iterations: 2761 
   19400    63.076558    13336          559        12777 5.7403309e-13 1.2051228e-12          0.1 0.0090084438    1.2400239  0.029884717 
number of iterations: 2782 
   19500    63.510314    13528          566        12962 5.8164026e-13 1.2229015e-12          0.1 0.0090085514    1.2372459  0.029884522 
number of iterations: 2803 
   19600     63.99958    13737          574        13163 5.8934824e-13 1.2409092e-12          0.1  0.009008664    1.2345162  0.029884318 
number of iterations: 2827 
   19700    64.455006    13927          590        13337 5.9715836e-13 1.258724e-12          0.1 0.0090087917    1.2319949  0.029884088 
number of iterations: 2853 
   19800    64.932165    14122          594        13528 6.0507199e-13 1.2771105e-12          0.1 0.0090089006    1.2295162   0.02988389 
number of iterations: 2870 
   19900    65.391094    14331          599        13732 6.1309049e-13 1.2952652e-12          0.1 0.0090090118    1.2272536  0.029883688 
number of iterations: 2893 
   20000    65.862412    14523          602        13921 6.2121525e-13 1.3136555e-12          0.1   0.00900913    1.2251613  0.029883475 
number of iterations: 2912 
   20100    66.348931    14741          610        14131 6.2944768e-13 1.3322685e-12          0.1 0.0090092508    1.2232096  0.029883256 
number of iterations: 2939 
   20200    66.814764    14966          618        14348 6.377892e-13 1.3516098e-12          0.1 0.0090094011    1.2211929  0.029882987 
number of iterations: 2965 
   20300    67.287397    15174          622        14552 6.4624127e-13 1.3709034e-12          0.1 0.0090095317    1.2192508  0.029882751 
number of iterations: 2988 
   20400    67.774858    15364          629        14735 6.5480535e-13 1.3902905e-12          0.1 0.0090096601    1.2174302  0.029882519 
number of iterations: 3019 
   20500    68.312353    15578          642        14936 6.6348291e-13 1.4100982e-12          0.1 0.0090098054    1.2156454  0.029882259 
number of iterations: 3046 
   20600    68.801489    15805          651        15154 6.7227547e-13 1.4301955e-12          0.1 0.0090099466    1.2138846  0.029882004 
number of iterations: 3074 
   20700    69.274387    16020          663        15357 6.8118456e-13 1.4506884e-12          0.1 0.0090100788    1.2121017  0.029881765 
number of iterations: 3099 
   20800    69.767847    16253          671        15582 6.902117e-13 1.4711403e-12          0.1 0.0090102379    1.2104266  0.029881481 
number of iterations: 3122 
   20900    70.296294    16503          685        15818 6.9935847e-13 1.4919273e-12          0.1 0.0090103627    1.2088111  0.029881253 
number of iterations: 3145 
   21000    70.827853    16742          692        16050 7.0862646e-13 1.5132411e-12          0.1 0.0090105071    1.2071532  0.029880992 
number of iterations: 3167 
   21100    71.344831    16974          701        16273 7.1801727e-13 1.534276e-12          0.1 0.0090106262    1.2056784  0.029880774 
number of iterations: 3190 
   21200    71.873222    17182          707        16475 7.2753252e-13 1.5558503e-12          0.1 0.0090107673    1.2042411  0.029880519 
number of iterations: 3210 
   21300    72.395223    17415          713        16702 7.3717387e-13 1.5779939e-12          0.1 0.0090109088    1.2027336  0.029880262 
number of iterations: 3231 
   21400    72.924979    17662          719        16943 7.4694299e-13 1.5998292e-12          0.1 0.0090110573    1.2014042  0.029879995 
number of iterations: 3253 
   21500    73.439196    17923          731        17192 7.5684157e-13 1.6225012e-12          0.1 0.0090112065    1.2000028  0.029879724 
number of iterations: 3273 
   21600    73.977021    18168          745        17423 7.6687133e-13 1.645399e-12          0.1 0.0090113433    1.1985885  0.029879475 
number of iterations: 3302 
   21700    74.532121    18441          760        17681  7.77034e-13 1.6684178e-12          0.1 0.0090114924    1.1972417  0.029879206 
number of iterations: 3325 
   21800    75.074845    18699          770        17929 7.8733134e-13 1.6921085e-12          0.1 0.0090116567    1.1958118  0.029878909 
number of iterations: 3344 
   21900    75.609548    18967          778        18189 7.9776515e-13 1.7161123e-12          0.1 0.0090117955    1.1943377  0.029878655 
number of iterations: 3366 
   22000      76.1922    19252          784        18468 8.0833723e-13 1.7398682e-12          0.1 0.0090119664    1.1930487  0.029878349 
number of iterations: 3387 
   22100    76.732459    19517          803        18714 8.190494e-13 1.764202e-12          0.1 0.0090121382     1.191788   0.02987804 
number of iterations: 3412 
   22200    77.274403    19784          813        18971 8.2990354e-13 1.788825e-12          0.1 0.0090123065    1.1905651  0.029877737 
number of iterations: 3436 
   22300    77.856457    20042          827        19215 8.4090151e-13 1.8139161e-12          0.1 0.0090125071    1.1893214  0.029877378 
number of iterations: 3461 
   22400    78.461474    20347          840        19507 8.5204523e-13 1.8391902e-12          0.1 0.0090126723    1.1881274  0.029877078 
number of iterations: 3486 
   22500     79.07184    20640          852        19788 8.6333663e-13 1.8646747e-12          0.1 0.0090128382    1.1870147  0.029876778 
number of iterations: 3515 
   22600    79.640239    20912          871        20041 8.7477766e-13 1.8900235e-12          0.1 0.0090130015    1.1861278  0.029876482 
number of iterations: 3539 
   22700    80.250021    21179          886        20293 8.8637031e-13 1.9165697e-12          0.1 0.0090131705    1.1850726  0.029876175 
number of iterations: 3563 
   22800    80.842526    21476          897        20579 8.9811658e-13 1.9432432e-12          0.1 0.0090133833    1.1840042  0.029875794 
number of iterations: 3590 
   22900    81.432824    21771          907        20864 9.1001851e-13 1.9700947e-12          0.1 0.0090135558    1.1829995  0.029875481 
number of iterations: 3617 
   23000    82.025119    22075          920        21155 9.2207817e-13 1.9975663e-12          0.1 0.0090137489    1.1819409  0.029875133 
number of iterations: 3638 
   23100    82.641894    22406          932        21474 9.3429765e-13 2.0246468e-12          0.1 0.0090139356    1.1811288  0.029874796 
number of iterations: 3664 
   23200    83.254736    22722          952        21770 9.4667905e-13 2.0521142e-12          0.1 0.0090141037    1.1804517   0.02987449 
number of iterations: 3692 
   23300    83.879737    23049          964        22085 9.5922454e-13 2.0809335e-12          0.1  0.009014276    1.1794998  0.029874175 
number of iterations: 3710 
   23400    84.473412    23352          969        22383 9.7193628e-13 2.1096094e-12          0.1 0.0090144621    1.1785922  0.029873838 
number of iterations: 3739 
   23500    85.143873    23668          983        22685 9.8481647e-13 2.1386893e-12          0.1 0.0090146563    1.1777052  0.029873486 
number of iterations: 3762 
   23600    85.773361    23984          993        22991 9.9786735e-13 2.1676149e-12          0.1 0.0090148298    1.1770289  0.029873169 
number of iterations: 3784 
   23700     86.42921    24329         1005        23324 1.0099422e-12 2.1977825e-12          0.1 0.0090150235    1.1752736  0.029872817 
number of iterations: 3813 
   23800     87.04522    24660         1016        23644 1.023326e-12  2.22807e-12          0.1 0.0090152081    1.1739606  0.029872483 
number of iterations: 3843 
   23900      87.6568    25018         1030        23988 1.0368872e-12 2.2592848e-12          0.1 0.0090154152    1.1726957  0.029872109 
number of iterations: 3868 
   24000     88.34656    25349         1041        24308 1.0506282e-12 2.2905102e-12          0.1 0.0090156289    1.1716069  0.029871723 
number of iterations: 3898 
   24100    88.995708    25683         1061        24622 1.0645512e-12 2.3217856e-12          0.1 0.0090158141     1.170745  0.029871385 
number of iterations: 3920 
   24200    89.630562    26032         1071        24961 1.0786587e-12 2.3535288e-12          0.1 0.0090160003    1.1699812  0.029871044 
number of iterations: 3944 
   24300     90.29994    26366         1088        25278 1.0929532e-12 2.3859262e-12          0.1 0.0090162488    1.1691873  0.029870599 
number of iterations: 3968 
   24400    90.980196    26743         1100        25643 1.1074371e-12 2.4188614e-12          0.1 0.0090164233    1.1683474  0.029870277 
number of iterations: 3992 
   24500    91.644878    27118         1110        26008 1.1221129e-12 2.4518781e-12          0.1 0.0090166395    1.1676193  0.029869885 
number of iterations: 4016 
   24600    92.306617    27495         1123        26372 1.1369833e-12 2.4857817e-12          0.1 0.0090168433    1.1667889  0.029869512 
number of iterations: 4042 
   24700    92.989617    27908         1146        26762 1.1520507e-12 2.5201669e-12          0.1 0.0090170533    1.1659071  0.029869131 
number of iterations: 4071 
   24800    93.716629    28283         1158        27125 1.1673177e-12 2.5543571e-12          0.1 0.0090172653    1.1652403  0.029868745 
number of iterations: 4093 
   24900    94.465743    28651         1174        27477 1.1827871e-12 2.5888112e-12          0.1 0.0090174938    1.1647396   0.02986833 
number of iterations: 4121 
   25000    95.191329    29031         1188        27843 1.1984615e-12 2.6244999e-12          0.1 0.0090177367    1.1640397  0.029867891 
number of iterations: 4149 
   25100    95.903247    29442         1197        28245 1.2143436e-12 2.660364e-12          0.1 0.0090179846    1.1633665  0.029867444 
number of iterations: 4176 
   25200    96.604124    29839         1211        28628 1.2304362e-12 2.6971963e-12          0.1 0.0090182023     1.162537  0.029867046 
number of iterations: 4203 
   25300    97.324881    30282         1224        29058 1.246742e-12 2.7341331e-12          0.1 0.0090184808    1.1617865  0.029866546 
number of iterations: 4225 
   25400    98.058887    30656         1236        29420 1.2632639e-12 2.7699992e-12          0.1 0.0090186994    1.1616259  0.029866148 
number of iterations: 4252 
   25500    98.792211    31055         1244        29811 1.2790765e-12 2.8079159e-12          0.1  0.009018947    1.1604159  0.029865697 
number of iterations: 4280 
   25600    99.547364    31465         1254        30211 1.2960269e-12 2.8459058e-12          0.1 0.0090191749    1.1596951  0.029865283 
number of iterations: 4300 
   25700    100.28334    31937         1280        30657 1.3118065e-12 2.8846138e-12          0.1 0.0090194265    1.1580035  0.029864827 
number of iterations: 4326 
   25800    101.03357    32362         1295        31067 1.3291906e-12 2.9230162e-12          0.1 0.0090196755    1.1573513  0.029864377 
number of iterations: 4351 
   25900    101.83195    32775         1312        31463 1.3468051e-12 2.9623513e-12          0.1 0.0090199203    1.1569174  0.029863933 
number of iterations: 4378 
   26000    102.59024    33193         1332        31861 1.3646531e-12 3.0027108e-12          0.1 0.0090201929    1.1563822  0.029863439 
number of iterations: 4405 
   26100    103.42961    33602         1350        32252 1.3818113e-12 3.0440351e-12          0.1 0.0090204097    1.1549484  0.029863037 
number of iterations: 4430 
   26200     104.2253    34044         1371        32673 1.4001231e-12 3.0853998e-12          0.1 0.0090206632    1.1541403  0.029862578 
number of iterations: 4453 
   26300    105.04643    34490         1385        33105 1.4186776e-12 3.1272507e-12          0.1 0.0090209468    1.1535549  0.029862065 
number of iterations: 4478 
   26400    105.84691    34979         1408        33571 1.437478e-12 3.168806e-12          0.1 0.0090212632     1.153343  0.029861498 
number of iterations: 4500 
   26500    106.63195    35450         1428        34022 1.4565276e-12 3.2115447e-12          0.1 0.0090214821    1.1530188  0.029861091 
number of iterations: 4526 
   26600    107.41929    35954         1448        34506 1.4748763e-12 3.2549251e-12          0.1 0.0090217561    1.1518996  0.029860592 
number of iterations: 4551 
   26700    108.29125    36423         1462        34961 1.4944214e-12 3.2989668e-12          0.1 0.0090220548    1.1512868  0.029860054 
number of iterations: 4581 
   26800    109.13957    36908         1478        35430 1.5130945e-12 3.3436594e-12          0.1  0.009022339    1.1499118  0.029859538 
number of iterations: 4612 
   26900    109.95083    37438         1500        35938 1.5318469e-12 3.3892433e-12          0.1 0.0090226449    1.1481235  0.029858987 
number of iterations: 4634 
   27000    110.79163    37967         1528        36439 1.552147e-12 3.434637e-12          0.1 0.0090229125    1.1475469    0.0298585 
number of iterations: 4659 
   27100     111.6071    38476         1545        36931 1.5717637e-12 3.480544e-12          0.1 0.0090231784    1.1465438  0.029858014 
number of iterations: 4683 
   27200    112.45411    38998         1564        37434 1.5925928e-12 3.5263606e-12          0.1 0.0090234615    1.1464473  0.029857499 
number of iterations: 4709 
   27300    113.29501    39515         1594        37921 1.6136979e-12 3.5731707e-12          0.1 0.0090237617    1.1463991  0.029856953 
number of iterations: 4735 
   27400    114.17593    39992         1608        38384 1.6350826e-12 3.6210304e-12          0.1 0.0090240471    1.1462098  0.029856429 
number of iterations: 4758 
   27500    115.10011    40519         1642        38877 1.6567508e-12 3.6687932e-12          0.1 0.0090243298    1.1462533  0.029855912 
number of iterations: 4778 
   27600    115.97106    41079         1662        39417 1.6777508e-12 3.7178427e-12          0.1 0.0090246378    1.1453627  0.029855349 
number of iterations: 4801 
   27700    116.86657    41690         1696        39994 1.6984903e-12 3.7671808e-12          0.1 0.0090249339    1.1440402  0.029854809 
number of iterations: 4829 
   27800    117.74915    42229         1711        40518 1.7197732e-12 3.8177641e-12          0.1  0.009025188    1.1426791   0.02985434 
number of iterations: 4857 
   27900     118.6884    42779         1733        41046 1.7425637e-12 3.868283e-12          0.1 0.0090255275    1.1425332  0.029853729 
number of iterations: 4879 
   28000    119.66761    43381         1761        41620 1.7656562e-12 3.9200042e-12          0.1 0.0090258862    1.1423529  0.029853081 
number of iterations: 4905 
   28100    120.58016    43960         1788        42172 1.7890547e-12 3.9725708e-12          0.1 0.0090262239    1.1421189  0.029852467 
number of iterations: 4931 
   28200    121.55041    44576         1812        42764 1.8127633e-12 4.0255679e-12          0.1 0.0090265211    1.1419706   0.02985192 
number of iterations: 4955 
   28300    122.51626    45136         1830        43306 1.836786e-12 4.0792085e-12          0.1 0.0090269029    1.1418525  0.029851231 
number of iterations: 4976 
   28400    123.48774    45739         1857        43882 1.8611272e-12 4.1338812e-12          0.1 0.0090272646    1.1416263  0.029850576 
number of iterations: 4998 
   28500    124.45963    46370         1878        44492 1.8857908e-12 4.1898242e-12          0.1 0.0090276122    1.1412076  0.029849941 
number of iterations: 5023 
   28600    125.52865    46982         1904        45078 1.9107814e-12 4.2441434e-12          0.1 0.0090279653    1.1416139  0.029849301 
number of iterations: 5046 
   28700    126.50949    47555         1925        45630 1.936103e-12 4.3001996e-12          0.1 0.0090283175    1.1416851   0.02984866 
number of iterations: 5069 
   28800    127.48301    48188         1948        46240 1.9595465e-12 4.3557367e-12          0.1 0.0090286378    1.1404645  0.029848071 
number of iterations: 5094 
   28900    128.51414    48867         1980        46887 1.9855144e-12 4.4136539e-12          0.1 0.0090290075    1.1403997  0.029847401 
number of iterations: 5119 
   29000    129.55789    49511         2005        47506 2.0118264e-12 4.4725568e-12          0.1 0.0090293944    1.1402535  0.029846697 
number of iterations: 5141 
   29100    130.58731    50151         2025        48126 2.0384871e-12 4.5320612e-12          0.1 0.0090297676    1.1401719  0.029846017 
number of iterations: 5168 
   29200    131.60008    50841         2046        48795 2.0655012e-12 4.5918613e-12          0.1 0.0090301542    1.1402665  0.029845313 
number of iterations: 5191 
   29300    132.67139    51521         2075        49446 2.0918552e-12 4.6532769e-12          0.1 0.0090304929     1.139266  0.029844689 
number of iterations: 5216 
   29400    133.72182    52175         2094        50081 2.1186701e-12 4.7140267e-12          0.1 0.0090308824      1.13895  0.029843983 
number of iterations: 5240 
   29500    134.82165    52884         2122        50762 2.1467467e-12 4.7772284e-12          0.1 0.0090312531    1.1387195  0.029843306 
number of iterations: 5262 
   29600    135.89377    53535         2139        51396 2.1751953e-12 4.8400064e-12          0.1 0.0090316786    1.1389251  0.029842537 
number of iterations: 5286 
   29700    136.98104    54217         2167        52050 2.2029803e-12 4.9041166e-12          0.1 0.0090320768    1.1380931   0.02984181 
number of iterations: 5311 
   29800    138.10831    54950         2196        52754 2.230435e-12 4.9694934e-12          0.1 0.0090324884    1.1367123  0.029841063 
number of iterations: 5336 
   29900    139.22667    55612         2224        53388 2.2599927e-12 5.0342857e-12          0.1 0.0090329076    1.1372926  0.029840304 
number of iterations: 5360 
   30000    140.35626    56282         2252        54030 2.2874314e-12 5.0999766e-12          0.1 0.0090332913     1.135596  0.029839598 
number of iterations: 5383 
   30100    141.52197    56977         2284        54693 2.3168099e-12 5.1659941e-12          0.1 0.0090336833    1.1357286  0.029838885 
number of iterations: 5405 
   30200    142.64994    57717         2311        55406 2.3455229e-12 5.2336547e-12          0.1 0.0090340235    1.1344224  0.029838252 
number of iterations: 5429 
   30300    143.78832    58521         2346        56175 2.3744252e-12 5.3022079e-12          0.1 0.0090343902    1.1332716  0.029837577 
number of iterations: 5451 
   30400    144.98626    59293         2377        56916 2.405891e-12 5.3728081e-12          0.1 0.0090348338    1.1334213  0.029836773 
number of iterations: 5472 
   30500    146.15798    60104         2409        57695 2.4344853e-12 5.4431155e-12          0.1 0.0090352256    1.1311243  0.029836051 
number of iterations: 5497 
   30600    147.35021    60880         2430        58450 2.4657309e-12 5.5132169e-12          0.1  0.009035669    1.1316582  0.029835251 
number of iterations: 5519 
   30700    148.61884    61714         2469        59245 2.4984066e-12 5.5850687e-12          0.1 0.0090360574    1.1319297  0.029834532 
number of iterations: 5540 
   30800    149.85829    62555         2500        60055 2.530075e-12 5.659139e-12          0.1  0.009036529    1.1306946  0.029833673 
number of iterations: 5565 
   30900    151.09024    63354         2519        60835 2.5625735e-12 5.7336483e-12          0.1 0.0090369526    1.1304514  0.029832898 
number of iterations: 5585 
   31000    152.42988    64186         2549        61637 2.594153e-12 5.8086141e-12          0.1 0.0090373489    1.1290236  0.029832167 
number of iterations: 5611 
   31100    153.67665    65016         2577        62439 2.6273869e-12 5.8840521e-12          0.1 0.0090378335    1.1291801  0.029831292 
number of iterations: 5635 
   31200     154.9656    65839         2603        63236 2.6612682e-12 5.9618306e-12          0.1 0.0090382978    1.1284462   0.02983044 
number of iterations: 5661 
   31300    156.26115    66641         2627        64014 2.6965352e-12 6.0382088e-12          0.1 0.0090387985     1.129653  0.029829533 
number of iterations: 5680 
   31400    157.62305    67463         2667        64796 2.7322695e-12 6.1164608e-12          0.1 0.0090392959    1.1297721  0.029828623 
number of iterations: 5699 
   31500    158.97959    68362         2718        65644 2.7660136e-12 6.1955795e-12          0.1 0.0090397915    1.1284583   0.02982772 
number of iterations: 5723 
   31600    160.29834    69234         2755        66479 2.7997459e-12 6.2743537e-12          0.1 0.0090402723    1.1279153  0.029826845 
number of iterations: 5743 
   31700    161.61706    70121         2791        67330 2.8343849e-12 6.3529086e-12          0.1 0.0090407292    1.1278433  0.029826009 
number of iterations: 5766 
   31800    162.97659    70967         2828        68139 2.8692008e-12 6.4353485e-12          0.1 0.0090411572    1.1263182  0.029825217 
number of iterations: 5789 
   31900    164.33573    71941         2865        69076 2.9061896e-12 6.5197143e-12          0.1 0.0090416179    1.1265969  0.029824372 
number of iterations: 5810 
   32000     165.7313    72869         2901        69968 2.9401748e-12 6.6018786e-12          0.1 0.0090421632    1.1243613  0.029823382 
number of iterations: 5830 
   32100    167.10885    73832         2936        70896 2.9771372e-12 6.6875492e-12          0.1 0.0090426496    1.1246395  0.029822497 
number of iterations: 5852 
   32200    168.53082    74753         2978        71775 3.015342e-12 6.7711908e-12          0.1 0.0090431769     1.125241  0.029821536 
number of iterations: 5872 
   32300    169.95568    75746         3014        72732 3.0540775e-12 6.8573947e-12          0.1 0.0090436485    1.1251564  0.029820663 
number of iterations: 5900 
   32400    171.36148    76750         3038        73712 3.0899622e-12 6.9431133e-12          0.1 0.0090441917    1.1233952  0.029819672 
number of iterations: 5925 
   32500    172.79265    77719         3077        74642 3.1273187e-12 7.0298483e-12          0.1 0.0090447249    1.1235405  0.029818707 
number of iterations: 5947 
   32600    174.24378    78731         3118        75613 3.1643972e-12 7.118019e-12          0.1 0.0090452022    1.1217467  0.029817827 
number of iterations: 5963 
   32700    175.74618    79698         3160        76538 3.2041381e-12 7.2081393e-12          0.1 0.0090457766    1.1227097  0.029816788 
number of iterations: 5983 
   32800    177.27467    80674         3195        77479 3.2391987e-12 7.2988538e-12          0.1 0.0090461834    1.1178659  0.029816018 
number of iterations: 6035 
   32900    178.82557    81687         3230        78457 3.2791371e-12 7.3889582e-12          0.1 0.0090467317    1.1213473  0.029815039 
number of iterations: 6105 
   33000    180.38418    82665         3272        79393 3.3199317e-12 7.4809143e-12          0.1 0.0090472985    1.1187344  0.029813989 
number of iterations: 6211 
   33100    181.95464    83710         3310        80400 3.3600255e-12 7.5736685e-12          0.1  0.009047855    1.1199187  0.029812986 
number of iterations: 6270 
   33200    183.50213    84723         3355        81368 3.3966238e-12 7.6665129e-12          0.1 0.0090483184    1.1153745  0.029812118 
number of iterations: 6399 
   33300    185.07391    85853         3411        82442 3.4355482e-12 7.7613417e-12          0.1 0.0090489015    1.1166508  0.029811077 
number of iterations: 6408 
   33400    186.65475    86917         3456        83461 3.4758516e-12 7.855347e-12          0.1  0.009049448    1.1145426  0.029810066 
number of iterations: 6506 
   33500    188.27987    87976         3499        84477 3.5147245e-12 7.9536584e-12          0.1 0.0090501035    1.1127146  0.029808888 
number of iterations: 6564 
   33600    189.91773    89073         3529        85544 3.555706e-12 8.0526764e-12          0.1 0.0090505631    1.1121685  0.029808036 
number of iterations: 6594 
   33700    191.59748    90170         3573        86597  3.59831e-12 8.1538409e-12          0.1 0.0090511468    1.1110262  0.029806969 
number of iterations: 6628 
   33800    193.26781    91249         3620        87629 3.6416422e-12 8.2520525e-12          0.1 0.0090517318    1.1120919  0.029805905 
number of iterations: 6750 
   33900    194.98902    92369         3656        88713 3.6826452e-12 8.3528898e-12          0.1 0.0090521868     1.108313  0.029805042 
number of iterations: 6816 
   34000    196.69749    93427         3691        89736 3.7231734e-12 8.4554012e-12          0.1  0.009052744    1.1083463  0.029804032 
number of iterations: 6879 
   34100    198.41239    94452         3736        90716 3.7655752e-12 8.5555724e-12          0.1 0.0090532997    1.1069528  0.029803009 
number of iterations: 6919 
   34200    200.15272    95619         3776        91843 3.8080837e-12 8.6587294e-12          0.1 0.0090538455    1.1061099  0.029802005 
number of iterations: 6973 
   34300    201.91613    96750         3813        92937 3.8469816e-12 8.7617063e-12          0.1 0.0090544372    1.1019608  0.029800922 
number of iterations: 7041 
   34400    203.68848    97833         3870        93963 3.894193e-12 8.8649581e-12          0.1  0.009055141    1.1079899  0.029799671 
number of iterations: 7097 
   34500    205.57097    99065         3913        95152 3.9381581e-12 8.9713102e-12          0.1 0.0090556987    1.0990505  0.029798603 
number of iterations: 7178 
   34600    207.40135   100234         3953        96281 3.9821427e-12 9.0789914e-12          0.1 0.0090562904    1.1067029  0.029797566 
number of iterations: 7182 
   34700    209.27413   101439         3988        97451 4.0263876e-12 9.1867195e-12          0.1 0.0090568879    1.0952739  0.029796419 
number of iterations: 7297 
   34800    211.15119   102667         4043        98624 4.0717513e-12 9.2956594e-12          0.1 0.0090574928    1.1071751  0.029795376 
number of iterations: 7255 
   34900    213.04287   103810         4066        99744 4.1130227e-12 9.4025218e-12          0.1 0.0090580083    1.0880903  0.029794341 
number of iterations: 7376 
   35000    214.97137   104989         4100       100889 4.1577698e-12 9.5099519e-12          0.1 0.0090587841    1.1103737  0.029793062 
Loop time of 214.971 on 32 procs for 35000 steps with 104989 atoms

Performance: 140669855.428 tau/day, 162.812 timesteps/s
93.3% CPU use with 32 MPI tasks x no OpenMP threads

MPI task timing breakdown:
Section |  min time  |  avg time  |  max time  |%varavg| %total
---------------------------------------------------------------
Pair    | 0.24909    | 5.5504     | 15.309     | 160.7 |  2.58
Neigh   | 0.10158    | 1.7834     | 3.9972     |  77.4 |  0.83
Comm    | 1.0883     | 1.8186     | 2.5641     |  31.1 |  0.85
Output  | 57.862     | 57.863     | 57.873     |   0.0 | 26.92
Modify  | 133.41     | 133.99     | 134.79     |   3.1 | 62.33
Other   |            | 13.97      |            |       |  6.50

Nlocal:    3280.91 ave 5729 max 538 min
Histogram: 2 5 1 2 3 6 5 2 2 4
Nghost:    1818.16 ave 3425 max 604 min
Histogram: 3 6 6 2 3 1 5 1 1 4
Neighs:    28758.4 ave 63927 max 3094 min
Histogram: 4 4 4 4 4 6 1 1 2 2

Total # of neighbors = 920269
Ave neighs/atom = 8.76538
Neighbor list builds = 867
Dangerous builds = 0
Total wall time: 0:03:35
