LAMMPS (20 Nov 2019)
Reading data file ...
  orthogonal box = (0 0 0) to (0.0001 0.0001 1e-05)
  8 by 4 by 1 MPI processor grid
  reading atoms ...
  100 atoms
  4 nutrients
Lattice spacing in x,y,z = 100 100 100
50 atoms in group CYANO
50 atoms in group ECW
Model is defined as a closed system. 
Neighbor list info ...
  update every 1 steps, delay 0 steps, check yes
  max neighbors/atom: 5000, page size: 100000
  master list distance cutoff = 2.44e-06
  ghost atom cutoff = 2.44e-06
  binsize = 1.22e-06, bins = 82 82 9
  1 neighbor lists, perpetual/occasional/extra = 1 0 0
  (1) pair gran/hooke/history, perpetual
      attributes: half, newton off, size, history
      pair build: half/size/bin/newtoff
      stencil: half/bin/3d/newtoff
      bin: standard
Setting up Verlet run ...
  Unit style    : lj
  Current step  : 0
  Time step     : 10
Per MPI rank memory allocation (min/avg/max) = 5.794 | 10.28 | 12.11 Mbytes
Step CPU Atoms c_myNtypes[1] c_myNtypes[2] c_myMass[1] c_myMass[2] c_myCon[1] c_myCon[2] c_myCon[3] c_myCon[4] 
       0            0      100           50           50 4.4703047e-14 9.1553787e-15          0.1        0.009     3.42e-20       0.0299 
number of iterations: 324201 
     100     15.48335      138           50           88 4.5295462e-14 9.1477136e-15          0.1   0.00900077  0.035916972  0.029898717 
number of iterations: 5380 
     200    15.930702      148           50           98 4.5895727e-14 9.1402204e-15          0.1 0.0090007802   0.07118185    0.0298987 
number of iterations: 3455 
     300    16.254527      148           50           98 4.6503947e-14 9.1328897e-15          0.1 0.0090007906   0.10690311  0.029898683 
number of iterations: 2469 
     400    16.514695      149           51           98 4.7120228e-14 9.1257193e-15          0.1  0.009000801    0.1430901  0.029898666 
number of iterations: 2106 
     500    16.770768      151           53           98 4.7744675e-14 9.1187077e-15          0.1 0.0090008133   0.17975145  0.029898645 
number of iterations: 1880 
     600    16.995313      153           55           98 4.8377398e-14 9.1118534e-15          0.1  0.009000824   0.21689437  0.029898627 
number of iterations: 1720 
     700    17.210277      153           55           98 4.9018506e-14 9.1051551e-15          0.1 0.0090008349   0.25452547  0.029898609 
number of iterations: 1600 
     800    17.415811      153           55           98 4.9668109e-14 9.0986114e-15          0.1  0.009000846   0.29265146  0.029898591 
number of iterations: 1498 
     900    17.621891      154           56           98 5.0326322e-14 9.0922211e-15          0.1 0.0090008572   0.33127921  0.029898572 
number of iterations: 1423 
    1000    17.836555      155           57           98 5.0993257e-14 9.0859825e-15          0.1 0.0090008686   0.37041548  0.029898553 
number of iterations: 1426 
    1100     18.03526      155           57           98 5.1669031e-14 9.0798947e-15          0.1 0.0090008801   0.41006707  0.029898534 
number of iterations: 1428 
    1200    18.235442      155           57           98 5.235376e-14 9.0739563e-15          0.1 0.0090008917   0.45024091  0.029898515 
number of iterations: 1431 
    1300    18.443479      155           57           98 5.3047563e-14 9.068166e-15          0.1 0.0090009036   0.49094404  0.029898495 
number of iterations: 1434 
    1400    18.655841      155           57           98 5.3750561e-14 9.0625226e-15          0.1 0.0090009155   0.53218358  0.029898475 
number of iterations: 1437 
    1500    18.861469      155           57           98 5.4462875e-14 9.0570248e-15          0.1 0.0090009277   0.57396672  0.029898455 
number of iterations: 1439 
    1600    19.080683      155           57           98 5.5184628e-14 9.0516713e-15          0.1   0.00900094   0.61630076  0.029898434 
number of iterations: 1442 
    1700    19.276843      155           57           98 5.5915947e-14 9.0464609e-15          0.1 0.0090009524   0.65919308  0.029898413 
number of iterations: 1593 
    1800    19.467685      156           58           98 5.6656957e-14 9.0413924e-15          0.1 0.0090009666   0.70265119   0.02989839 
number of iterations: 1450 
    1900    19.660696      156           58           98 5.7407787e-14 9.0364646e-15          0.1 0.0090009794   0.74668264  0.029898369 
number of iterations: 1453 
    2000    19.869142      158           60           98 5.8168567e-14 9.0316761e-15          0.1 0.0090009924   0.79129518  0.029898347 
number of iterations: 1455 
    2100    20.071663      159           61           98 5.893943e-14 9.0270261e-15          0.1 0.0090010055   0.83649651  0.029898325 
number of iterations: 1458 
    2200    20.249685      159           61           98 5.9720507e-14 9.022513e-15          0.1 0.0090010189   0.88229454  0.029898303 
number of iterations: 1461 
    2300    20.451175      159           61           98 6.0511936e-14 9.0181357e-15          0.1 0.0090010324   0.92869722   0.02989828 
number of iterations: 1464 
    2400    20.638639      159           61           98 6.1313853e-14 9.013893e-15          0.1  0.009001046   0.97571265  0.029898258 
number of iterations: 1492 
    2500    20.851129      161           63           98 6.2126397e-14 9.0097836e-15          0.1 0.0090010599     1.023349  0.029898234 
number of iterations: 1475 
    2600    21.054218      162           64           98 6.294971e-14 9.0058065e-15          0.1  0.009001074    1.0716145  0.029898211 
number of iterations: 1490 
    2700    21.258669      163           65           98 6.3783932e-14 9.0019604e-15          0.1 0.0090010882    1.1205175  0.029898187 
number of iterations: 1475 
    2800    21.442776      163           65           98 6.4629211e-14 8.9982442e-15          0.1 0.0090011026    1.1700666  0.029898163 
number of iterations: 1478 
    2900    21.627933      163           65           98 6.5485691e-14 8.9946567e-15          0.1 0.0090011172    1.2202705  0.029898139 
number of iterations: 1451 
    3000    21.829214      165           67           98 6.6353521e-14 8.9911968e-15          0.1  0.009001132    1.2711381  0.029898114 
number of iterations: 1498 
    3100     22.03458      167           69           98 6.7232852e-14 8.9878637e-15          0.1  0.009001147    1.3226779  0.029898089 
number of iterations: 1485 
    3200    22.209238      167           69           98 6.8123835e-14 8.9846558e-15          0.1 0.0090011622     1.374899  0.029898064 
number of iterations: 1657 
    3300    22.423584      168           70           98 6.9026627e-14 8.9815721e-15          0.1 0.0090011839    1.4278106  0.029898028 
number of iterations: 1606 
    3400    22.656468      170           72           98 6.9941382e-14 8.9786116e-15          0.1 0.0090012029    1.4814221  0.029897996 
number of iterations: 1496 
    3500    22.859987      171           73           98 7.086826e-14 8.9757731e-15          0.1 0.0090012188    1.5357425   0.02989797 
number of iterations: 1496 
    3600    23.048341      171           73           98 7.1807421e-14 8.9730554e-15          0.1  0.009001235    1.5907815  0.029897943 
number of iterations: 1499 
    3700    23.225431      171           73           98 7.2759028e-14 8.9704576e-15          0.1 0.0090012513    1.6465485  0.029897916 
number of iterations: 1502 
    3800    23.402092      171           73           98 7.3723246e-14 8.9679785e-15          0.1 0.0090012679    1.7030533  0.029897888 
number of iterations: 1515 
    3900    23.586612      171           73           98 7.4700242e-14 8.9656172e-15          0.1 0.0090012847    1.7603057   0.02989786 
number of iterations: 1507 
    4000     23.79101      171           73           98 7.5690185e-14 8.9633724e-15          0.1 0.0090013018    1.8183156  0.029897832 
number of iterations: 1511 
    4100    23.969498      172           74           98 7.6693247e-14 8.9612429e-15          0.1  0.009001319    1.8770933  0.029897803 
number of iterations: 1513 
    4200    24.156904      174           76           98 7.7709602e-14 8.9592276e-15          0.1 0.0090013365     1.936649  0.029897774 
number of iterations: 1516 
    4300    24.365815      174           76           98 7.8739426e-14 8.9573258e-15          0.1 0.0090013542    1.9969929  0.029897744 
number of iterations: 1603 
    4400    24.546552      175           77           98 7.9782897e-14 8.9555365e-15          0.1 0.0090013769    2.0581357  0.029897706 
number of iterations: 1476 
    4500    24.746669      176           78           98 8.0840196e-14 8.9538587e-15          0.1 0.0090013922     2.120088  0.029897681 
number of iterations: 1570 
    4600    24.935707      177           79           98 8.1911507e-14 8.9522913e-15          0.1 0.0090014154    2.1828606  0.029897642 
number of iterations: 1521 
    4700    25.121831      179           81           98 8.2997016e-14 8.9508331e-15          0.1 0.0090014304    2.2464643  0.029897617 
number of iterations: 1549 
    4800    25.321444      182           84           98 8.4096909e-14 8.9494834e-15          0.1 0.0090014423    2.3109101  0.029897597 
number of iterations: 1522 
    4900    25.517385      182           84           98 8.5211379e-14 8.9482409e-15          0.1 0.0090014614    2.3762094  0.029897566 
number of iterations: 1525 
    5000    25.736898      183           85           98 8.6340618e-14 8.9471049e-15          0.1 0.0090014808    2.4423734  0.029897533 
number of iterations: 1528 
    5100    25.923423      183           85           98 8.7484821e-14 8.9460742e-15          0.1 0.0090015004    2.5094137  0.029897501 
number of iterations: 1522 
    5200    26.132522      186           88           98 8.8644188e-14 8.9451478e-15          0.1 0.0090015191    2.5773416   0.02989747 
number of iterations: 1533 
    5300    26.311068      186           88           98 8.9818919e-14 8.9443249e-15          0.1 0.0090015392    2.6461693  0.029897436 
number of iterations: 1512 
    5400    26.488947      188           90           98 9.1009218e-14 8.9436045e-15          0.1 0.0090015559    2.7159088  0.029897408 
number of iterations: 1584 
    5500    26.698638      189           91           98 9.2215291e-14 8.9429854e-15          0.1 0.0090015828    2.7865721  0.029897364 
number of iterations: 1654 
    5600    26.932719      190           92           98 9.3437347e-14 8.942467e-15          0.1 0.0090016079    2.8581716  0.029897322 
number of iterations: 1544 
    5700      27.1331      190           92           98 9.4675597e-14 8.9420482e-15          0.1 0.0090016292    2.9307198  0.029897286 
number of iterations: 1547 
    5800    27.321344      190           92           98 9.5930258e-14 8.9417282e-15          0.1 0.0090016508    3.0042292   0.02989725 
number of iterations: 1554 
    5900    27.506844      190           92           98 9.7201545e-14 8.9415059e-15          0.1 0.0090016727    3.0787126  0.029897214 
number of iterations: 1553 
    6000    27.792735      190           92           98 9.848968e-14 8.9413806e-15          0.1 0.0090016949     3.154183  0.029897177 
number of iterations: 1506 
    6100    27.983503      193           95           98 9.9794885e-14 8.9413513e-15          0.1  0.009001713    3.2306533  0.029897147 
number of iterations: 1614 
    6200     28.18365      197           99           98 1.0111739e-13 8.9414173e-15          0.1 0.0090017369    3.3081373  0.029897107 
number of iterations: 1559 
    6300    28.367882      198          100           98 1.0245741e-13 8.9415775e-15          0.1 0.0090017599    3.3866482  0.029897069 
number of iterations: 1562 
    6400    28.545064      199          101           98 1.038152e-13 8.941831e-15          0.1 0.0090017833    3.4661997   0.02989703 
number of iterations: 1546 
    6500     28.71273      199          101           98 1.0519098e-13 8.9421769e-15          0.1 0.0090018069    3.5468056   0.02989699 
number of iterations: 1622 
    6600    28.903851      202          104           98 1.0658499e-13 8.9426144e-15          0.1 0.0090018335    3.6284801  0.029896946 
number of iterations: 1570 
    6700    29.107075      204          106           98 1.0799748e-13 8.9431427e-15          0.1 0.0090018578    3.7112373  0.029896906 
number of iterations: 1572 
    6800    29.306786      205          107           98 1.0942868e-13 8.9437608e-15          0.1 0.0090018824    3.7950916  0.029896865 
number of iterations: 1654 
    6900    29.493142      208          110           98 1.1087885e-13 8.9444676e-15          0.1 0.0090019118    3.8800575  0.029896816 
number of iterations: 1616 
    7000    29.669649      210          112           98 1.1234824e-13 8.9452628e-15          0.1 0.0090019412    3.9661498  0.029896767 
number of iterations: 1588 
    7100    29.953516      212          114           98 1.1383711e-13 8.9461453e-15          0.1 0.0090019654    4.0533834  0.029896726 
number of iterations: 1751 
    7200    30.162351      214          116           98 1.153457e-13 8.9471143e-15          0.1 0.0090020002    4.1417733  0.029896668 
number of iterations: 1636 
    7300    30.365009      217          119           98 1.1687428e-13 8.9481688e-15          0.1 0.0090020299    4.2313352  0.029896619 
number of iterations: 1602 
    7400    30.575564      218          120           98 1.1842312e-13 8.9493083e-15          0.1 0.0090020568    4.3220846  0.029896574 
number of iterations: 1709 
    7500    30.760647      222          124           98 1.1999249e-13 8.9505321e-15          0.1 0.0090020881    4.4140372  0.029896522 
number of iterations: 1580 
    7600    30.943114      224          126           98 1.2158265e-13 8.951839e-15          0.1 0.0090021084    4.5072091  0.029896488 
number of iterations: 1586 
    7700    31.132824      227          129           98 1.2319389e-13 8.9532285e-15          0.1 0.0090021297    4.6016166  0.029896453 
number of iterations: 1604 
    7800    31.325625      227          129           98 1.2482648e-13 8.9546996e-15          0.1 0.0090021579     4.697276  0.029896406 
number of iterations: 1733 
    7900    31.512139      227          129           98 1.2648071e-13 8.9562518e-15          0.1 0.0090021942    4.7942038  0.029896345 
number of iterations: 1610 
    8000    31.692997      227          129           98 1.2815686e-13 8.9578842e-15          0.1 0.0090022232    4.8924171  0.029896297 
number of iterations: 1583 
    8100    31.882344      229          131           98 1.2985522e-13 8.959596e-15          0.1 0.0090022527     4.991933  0.029896248 
number of iterations: 1615 
    8200    32.066058      230          132           98 1.3157608e-13 8.9613865e-15          0.1 0.0090022783    5.0927686  0.029896205 
number of iterations: 1617 
    8300    32.271041      231          133           98 1.3331975e-13 8.963255e-15          0.1 0.0090023085    5.1949415  0.029896155 
number of iterations: 1591 
    8400    32.466968      232          134           98 1.3508653e-13 8.9652006e-15          0.1 0.0090023366    5.2984695  0.029896108 
number of iterations: 1639 
    8500    32.668649      233          135           98 1.3687673e-13 8.9672225e-15          0.1 0.0090023635    5.4033703  0.029896063 
number of iterations: 1625 
    8600    32.959566      235          137           98 1.3869064e-13 8.9693202e-15          0.1 0.0090023878    5.5096623  0.029896023 
number of iterations: 1629 
    8700    33.141072      235          137           98 1.405286e-13 8.9714927e-15          0.1 0.0090024195    5.6173641   0.02989597 
number of iterations: 1631 
    8800    33.345969      236          138           98 1.4239091e-13 8.9737395e-15          0.1 0.0090024471    5.7264944  0.029895924 
number of iterations: 1634 
    8900    33.531715      236          138           98 1.442779e-13 8.9760598e-15          0.1 0.0090024796    5.8370721   0.02989587 
number of iterations: 1637 
    9000    33.714519      239          141           98 1.461899e-13 8.978453e-15          0.1 0.0090025125    5.9491165  0.029895815 
number of iterations: 1699 
    9100    33.923587      242          144           98 1.4812724e-13 8.9809182e-15          0.1 0.0090025501    6.0626468  0.029895753 
number of iterations: 1642 
    9200     34.10681      243          145           98 1.5009025e-13 8.9834549e-15          0.1 0.0090025839     6.177683  0.029895696 
number of iterations: 1643 
    9300    34.312966      244          146           98 1.5207928e-13 8.9860625e-15          0.1 0.0090026078     6.294245  0.029895657 
number of iterations: 1756 
    9400    34.500794      245          147           98 1.5409466e-13 8.9887402e-15          0.1 0.0090026451    6.4123532  0.029895594 
number of iterations: 1730 
    9500    34.696544      249          151           98 1.5613675e-13 8.9914874e-15          0.1 0.0090026834    6.5320277  0.029895531 
number of iterations: 1656 
    9600    34.890925      250          152           98 1.5820591e-13 8.9943035e-15          0.1  0.009002719    6.6532899  0.029895471 
number of iterations: 1679 
    9700     35.07823      253          155           98 1.6030248e-13 8.9971877e-15          0.1 0.0090027577    6.7761606  0.029895407 
number of iterations: 1661 
    9800    35.272828      254          156           98 1.6242684e-13 9.0001395e-15          0.1 0.0090027943    6.9006612  0.029895346 
number of iterations: 1699 
    9900    35.464319      257          159           98 1.6457935e-13 9.0031581e-15          0.1  0.009002825     7.026813  0.029895295 
number of iterations: 1794 
   10000    35.661647      258          160           98 1.6676039e-13 9.0062429e-15          0.1 0.0090028666     7.154638  0.029895226 
number of iterations: 1600 
   10100    35.931544      264          166           98 1.6897033e-13 9.0093934e-15          0.1 0.0090028932    7.2841585  0.029895181 
number of iterations: 1658 
   10200    36.110434      264          166           98 1.7120956e-13 9.0126088e-15          0.1 0.0090029315    7.4153972  0.029895117 
number of iterations: 1730 
   10300    36.309629      265          167           98 1.7347846e-13 9.0158885e-15          0.1  0.009002973    7.5483772  0.029895048 
number of iterations: 1679 
   10400    36.486614      267          169           98 1.7577743e-13 9.019232e-15          0.1 0.0090030053    7.6831211  0.029894995 
number of iterations: 1682 
   10500    36.693579      268          170           98 1.7810686e-13 9.0226386e-15          0.1 0.0090030451    7.8196523  0.029894928 
number of iterations: 1720 
   10600    36.882726      271          173           98 1.8046717e-13 9.0261078e-15          0.1 0.0090030854    7.9579946  0.029894861 
number of iterations: 1696 
   10700     37.07476      274          176           98 1.8285876e-13 9.0296388e-15          0.1  0.009003126    8.0981721  0.029894794 
number of iterations: 1799 
   10800    37.267572      278          180           98 1.8528203e-13 9.0332312e-15          0.1 0.0090031778    8.2402095  0.029894707 
number of iterations: 1709 
   10900     37.46129      280          182           98 1.8773743e-13 9.0368845e-15          0.1 0.0090032228    8.3841313  0.029894633 
number of iterations: 1713 
   11000    37.649842      284          186           98 1.9022536e-13 9.040598e-15          0.1 0.0090032697    8.5299628  0.029894554 
number of iterations: 1699 
   11100    38.055095      285          187           98 1.9274626e-13 9.0443712e-15          0.1 0.0090033071    8.6777288  0.029894492 
number of iterations: 1697 
   11200    38.264999      286          188           98 1.9530057e-13 9.0482035e-15          0.1 0.0090033453    8.8274551  0.029894429 
number of iterations: 1765 
   11300    38.459982      288          190           98 1.9788873e-13 9.0520943e-15          0.1 0.0090033938    8.9791671  0.029894348 
number of iterations: 1726 
   11400    38.654466      290          192           98 2.0051119e-13 9.0560431e-15          0.1 0.0090034391    9.1328918  0.029894272 
number of iterations: 1684 
   11500    38.848193      292          194           98 2.031684e-13 9.0600493e-15          0.1 0.0090034739    9.2886557  0.029894214 
number of iterations: 1727 
   11600    39.057902      296          198           98 2.0586083e-13 9.0641124e-15          0.1 0.0090035175    9.4464863  0.029894142 
number of iterations: 1722 
   11700    39.262672      301          203           98 2.0858893e-13 9.0682319e-15          0.1 0.0090035636    9.6064106  0.029894065 
number of iterations: 1721 
   11800    39.459467      304          206           98 2.1135319e-13 9.0724072e-15          0.1 0.0090036076    9.7684565  0.029893992 
number of iterations: 1684 
   11900     39.63786      308          210           98 2.1415408e-13 9.0766379e-15          0.1 0.0090036406    9.9326523  0.029893937 
number of iterations: 1847 
   12000    39.857268      311          213           98 2.1699209e-13 9.0809232e-15          0.1 0.0090036919    10.099026  0.029893851 
number of iterations: 1733 
   12100    40.063547      316          218           98 2.1986771e-13 9.0852626e-15          0.1 0.0090037409    10.267607   0.02989377 
number of iterations: 1754 
   12200    40.269871      318          220           98 2.2278144e-13 9.0896558e-15          0.1 0.0090037935    10.438424  0.029893682 
number of iterations: 1730 
   12300    40.459702      320          222           98 2.2573378e-13 9.0941022e-15          0.1 0.0090038451    10.611508  0.029893596 
number of iterations: 1719 
   12400    40.670431      326          228           98 2.2872524e-13 9.0986014e-15          0.1  0.009003895    10.786887  0.029893513 
number of iterations: 1734 
   12500    40.857852      331          233           98 2.3175635e-13 9.1031529e-15          0.1 0.0090039441    10.964593  0.029893431 
number of iterations: 1775 
   12600    41.049991      335          237           98 2.3482763e-13 9.1077561e-15          0.1     0.009004    11.144657  0.029893338 
number of iterations: 1835 
   12700    41.264198      342          244           98 2.3793961e-13 9.1124105e-15          0.1 0.0090040688     11.32711  0.029893224 
number of iterations: 1733 
   12800    41.471658      346          248           98 2.4109283e-13 9.1171157e-15          0.1 0.0090041164    11.511983  0.029893144 
number of iterations: 1754 
   12900    41.663539      348          250           98 2.4428783e-13 9.1218711e-15          0.1 0.0090041644    11.699309  0.029893065 
number of iterations: 1751 
   13000    41.857852      350          252           98 2.4752518e-13 9.1266763e-15          0.1 0.0090042169     11.88912  0.029892977 
number of iterations: 1806 
   13100    42.083091      351          253           98 2.5080543e-13 9.1315308e-15          0.1 0.0090042782    12.081449  0.029892875 
number of iterations: 1753 
   13200    42.287134      354          256           98 2.5412915e-13 9.1364343e-15          0.1  0.009004335     12.27633  0.029892781 
number of iterations: 1757 
   13300    42.534543      355          257           98 2.5749691e-13 9.1413862e-15          0.1 0.0090043924    12.473796  0.029892685 
number of iterations: 1730 
   13400    42.817068      358          260           98 2.6090931e-13 9.1463861e-15          0.1 0.0090044344    12.673881  0.029892615 
number of iterations: 1758 
   13500    43.025857      361          263           98 2.6436692e-13 9.1514336e-15          0.1  0.009004496     12.87662  0.029892512 
number of iterations: 1764 
   13600    43.220906      366          268           98 2.6787036e-13 9.1565281e-15          0.1 0.0090045511    13.082048  0.029892421 
number of iterations: 1767 
   13700    43.419896      367          269           98 2.7142023e-13 9.1616693e-15          0.1 0.0090046117    13.290202   0.02989232 
number of iterations: 1818 
   13800    43.614598      367          269           98 2.7501713e-13 9.1668567e-15          0.1 0.0090046808    13.501117  0.029892205 
number of iterations: 1789 
   13900    43.805858      370          272           98 2.7866171e-13  9.17209e-15          0.1 0.0090047443     13.71483  0.029892099 
number of iterations: 1785 
   14000    44.003692      370          272           98 2.8235458e-13 9.1773686e-15          0.1 0.0090048109    13.931377  0.029891988 
number of iterations: 1785 
   14100    44.227426      375          277           98 2.860964e-13 9.1826922e-15          0.1  0.009004867    14.150798  0.029891895 
number of iterations: 1810 
   14200    44.432575      380          282           98 2.8988779e-13 9.1880602e-15          0.1 0.0090049387    14.373129  0.029891775 
number of iterations: 1792 
   14300    44.622823      386          288           98 2.9372944e-13 9.1934725e-15          0.1 0.0090049984    14.598409  0.029891676 
number of iterations: 1866 
   14400    44.822177      388          290           98 2.9762199e-13 9.1989284e-15          0.1 0.0090050736    14.826678  0.029891551 
number of iterations: 1789 
   14500    45.030982      392          294           98 3.0156613e-13 9.2044277e-15          0.1 0.0090051421    15.057974  0.029891437 
number of iterations: 1787 
   14600     45.22583      395          297           98 3.0556254e-13 9.2099699e-15          0.1 0.0090052077    15.292339  0.029891327 
number of iterations: 1812 
   14700    45.425035      401          303           98 3.096119e-13 9.2155547e-15          0.1 0.0090052843    15.529812    0.0298912 
number of iterations: 1775 
   14800    45.617302      406          308           98 3.1371493e-13 9.2211815e-15          0.1 0.0090053519    15.770435  0.029891087 
number of iterations: 1886 
   14900    45.864003      409          311           98 3.1787234e-13 9.2268501e-15          0.1 0.0090054289     16.01425  0.029890959 
number of iterations: 1813 
   15000    46.052883      412          314           98 3.2208483e-13 9.2325601e-15          0.1 0.0090055035    16.261298  0.029890835 
number of iterations: 1808 
   15100    46.297652      416          318           98 3.2635316e-13 9.2383111e-15          0.1 0.0090055742    16.511624  0.029890717 
number of iterations: 1848 
   15200     46.51158      420          322           98 3.3067804e-13 9.2441028e-15          0.1 0.0090056622     16.76527   0.02989057 
number of iterations: 1787 
   15300    46.717757      423          325           98 3.3506024e-13 9.2499347e-15          0.1 0.0090057357     17.02228  0.029890448 
number of iterations: 1778 
   15400    46.909749      426          328           98 3.3950052e-13 9.2558067e-15          0.1 0.0090058025      17.2827  0.029890337 
number of iterations: 1865 
   15500    47.108118      432          333           99 3.4399963e-13 9.2617181e-15          0.1 0.0090058766    17.546574  0.029890214 
number of iterations: 1838 
   15600    47.319111      437          338           99 3.4855837e-13 9.2676687e-15          0.1 0.0090059558    17.813947  0.029890082 
number of iterations: 1819 
   15700    47.516288      438          339           99 3.5317753e-13 9.2736583e-15          0.1 0.0090060334    18.084868  0.029889952 
number of iterations: 1821 
   15800    47.720559      444          345           99 3.5785789e-13 9.2796864e-15          0.1 0.0090061092    18.359381  0.029889826 
number of iterations: 1824 
   15900    48.008709      454          355           99 3.6260028e-13 9.2857525e-15          0.1 0.0090061884    18.637536  0.029889694 
number of iterations: 1827 
   16000    48.221577      456          357           99 3.6740552e-13 9.2918565e-15          0.1 0.0090062653    18.919381  0.029889566 
number of iterations: 1780 
   16100    48.469127      460          361           99 3.7227444e-13 9.297998e-15          0.1 0.0090063336    19.204964  0.029889453 
number of iterations: 1840 
   16200    48.672422      464          365           99 3.7720788e-13 9.3041766e-15          0.1 0.0090064095    19.494334  0.029889326 
number of iterations: 1835 
   16300    48.892009      467          368           99 3.822067e-13 9.3103921e-15          0.1 0.0090064956    19.787542  0.029889183 
number of iterations: 1835 
   16400    49.137252      474          375           99 3.8727176e-13 9.3166441e-15          0.1 0.0090065681     20.08464  0.029889062 
number of iterations: 1912 
   16500    49.350012      481          382           99 3.9240395e-13 9.3229323e-15          0.1 0.0090066641    20.385678  0.029888902 
number of iterations: 1893 
   16600    49.541121      488          389           99 3.9760415e-13 9.3292564e-15          0.1 0.0090067572     20.69071  0.029888747 
number of iterations: 1797 
   16700    49.741886      496          397           99 4.0287326e-13 9.3356161e-15          0.1 0.0090068282    20.999786  0.029888629 
number of iterations: 1894 
   16800    49.958941      505          406           99 4.082122e-13 9.342011e-15          0.1 0.0090069205    21.312962  0.029888475 
number of iterations: 1880 
   16900    50.162285      513          414           99 4.1362189e-13 9.3484407e-15          0.1 0.0090070122    21.630292  0.029888323 
number of iterations: 1864 
   17000     50.36983      518          419           99 4.1910328e-13 9.3549051e-15          0.1 0.0090071064     21.95183  0.029888166 
number of iterations: 1852 
   17100    50.602213      522          423           99 4.246573e-13 9.3614039e-15          0.1  0.009007195    22.277633  0.029888018 
number of iterations: 1877 
   17200    50.812045      526          427           99 4.3028492e-13 9.3679368e-15          0.1 0.0090072994    22.607756  0.029887844 
number of iterations: 1908 
   17300    51.039861      530          431           99 4.3598713e-13 9.3745034e-15          0.1 0.0090074088    22.942258  0.029887662 
number of iterations: 1898 
   17400    51.243855      534          435           99 4.417649e-13 9.3811035e-15          0.1  0.009007514    23.281196  0.029887487 
number of iterations: 1873 
   17500    51.457214      544          445           99 4.4761923e-13 9.3877368e-15          0.1 0.0090076061     23.62463  0.029887334 
number of iterations: 1884 
   17600    51.665267      551          452           99 4.5355115e-13 9.394403e-15          0.1 0.0090077134    23.972618  0.029887155 
number of iterations: 1880 
   17700    51.860826      555          455          100 4.5956168e-13 9.4011019e-15          0.1  0.009007817    24.325222  0.029886983 
number of iterations: 1864 
   17800    52.064744      560          460          100 4.6565186e-13 9.4078331e-15          0.1 0.0090079207    24.682502   0.02988681 
number of iterations: 1901 
   17900     52.27853      567          467          100 4.7182275e-13 9.4145963e-15          0.1 0.0090080189    25.044521  0.029886646 
number of iterations: 1917 
   18000    52.516767      573          473          100 4.7807541e-13 9.4213913e-15          0.1 0.0090081389    25.411341  0.029886446 
number of iterations: 1884 
   18100    52.778117      584          483          101 4.8441094e-13 9.4282179e-15          0.1 0.0090082515    25.783025  0.029886259 
number of iterations: 1881 
   18200    53.191422      588          487          101 4.9083043e-13 9.4350756e-15          0.1 0.0090083608     26.15964  0.029886077 
number of iterations: 1911 
   18300    53.388967      599          498          101 4.9733498e-13 9.4419644e-15          0.1 0.0090084778    26.541248  0.029885882 
number of iterations: 1922 
   18400    53.584465      604          503          101 5.0392574e-13 9.4488839e-15          0.1 0.0090085978    26.927918  0.029885682 
number of iterations: 1888 
   18500    53.795814      608          507          101 5.1060383e-13 9.4558339e-15          0.1 0.0090087027    27.319714  0.029885508 
number of iterations: 1943 
   18600     54.00146      616          515          101 5.1737043e-13 9.4628142e-15          0.1 0.0090088153    27.716707   0.02988532 
number of iterations: 1889 
   18700     54.18844      622          521          101 5.242267e-13 9.4698244e-15          0.1 0.0090089283    28.118964  0.029885132 
number of iterations: 1904 
   18800    54.417327      626          525          101 5.3117382e-13 9.4768644e-15          0.1 0.0090090442    28.526555  0.029884939 
number of iterations: 1951 
   18900    54.626075      631          530          101 5.3821301e-13 9.4839339e-15          0.1 0.0090091576    28.939552   0.02988475 
number of iterations: 1899 
   19000    54.889803      640          539          101 5.4534549e-13 9.4910326e-15          0.1 0.0090092711    29.358025  0.029884561 
number of iterations: 1917 
   19100      55.0976      644          543          101 5.5257248e-13 9.4981604e-15          0.1 0.0090093833    29.782048  0.029884374 
number of iterations: 1918 
   19200    55.316813      651          550          101 5.5989525e-13 9.505317e-15          0.1 0.0090095032    30.211695  0.029884175 
number of iterations: 1931 
   19300    55.541353      656          555          101 5.6731506e-13 9.5125022e-15          0.1  0.009009631     30.64704  0.029883962 
number of iterations: 1985 
   19400    55.808852      667          566          101 5.748332e-13 9.5197157e-15          0.1 0.0090097635    31.088158  0.029883741 
number of iterations: 1909 
   19500    56.001498      678          576          102 5.8245097e-13 9.5269573e-15          0.1 0.0090098808    31.535125  0.029883546 
number of iterations: 1935 
   19600     56.21475      682          580          102 5.9016968e-13 9.5342267e-15          0.1 0.0090100069     31.98802  0.029883336 
number of iterations: 1948 
   19700    56.437422      696          594          102 5.9799069e-13 9.5415239e-15          0.1 0.0090101382    32.446922  0.029883117 
number of iterations: 1958 
   19800    56.652708      701          599          102 6.0591535e-13 9.5488484e-15          0.1 0.0090102902    32.911908  0.029882864 
number of iterations: 1971 
   19900    56.857723      706          604          102 6.1394502e-13 9.5562002e-15          0.1 0.0090104309    33.383061   0.02988263 
number of iterations: 1940 
   20000    57.133725      711          609          102 6.220811e-13 9.563579e-15          0.1  0.009010565    33.860461  0.029882407 
number of iterations: 1934 
   20100    57.344325      719          617          102 6.3032499e-13 9.5709846e-15          0.1 0.0090106854    34.344191  0.029882206 
number of iterations: 1923 
   20200    57.567535      725          623          102 6.3867814e-13 9.5784167e-15          0.1 0.0090108207    34.834336  0.029881981 
number of iterations: 1933 
   20300    57.764009      735          632          103 6.4714199e-13 9.5858753e-15          0.1 0.0090109646    35.330979  0.029881741 
number of iterations: 1959 
   20400    58.053396      743          640          103  6.55718e-13  9.59336e-15          0.1  0.009011102    35.834209  0.029881513 
number of iterations: 1993 
   20500    58.289087      750          647          103 6.6440765e-13 9.6008707e-15          0.1  0.009011248    36.344111  0.029881269 
number of iterations: 1938 
   20600    58.511564      755          652          103 6.7321247e-13 9.6084073e-15          0.1 0.0090113883    36.860774  0.029881036 
number of iterations: 1958 
   20700    58.740531      764          661          103 6.8213396e-13 9.6159694e-15          0.1 0.0090115426    37.384289  0.029880779 
number of iterations: 1955 
   20800    59.002714      778          675          103 6.9117368e-13 9.6235569e-15          0.1 0.0090116905    37.914745  0.029880533 
number of iterations: 1963 
   20900    59.221154      781          678          103 7.003332e-13 9.6311695e-15          0.1 0.0090118457    38.452236  0.029880274 
number of iterations: 1950 
   21000    59.459839      793          690          103 7.096141e-13 9.6388072e-15          0.1 0.0090119966    38.996853  0.029880023 
number of iterations: 2081 
   21100    59.698103      805          702          103 7.1901799e-13 9.6464697e-15          0.1 0.0090121775    39.548692  0.029879722 
number of iterations: 1949 
   21200    59.904026      818          715          103 7.285465e-13 9.6541568e-15          0.1  0.009012332    40.107847  0.029879464 
number of iterations: 1952 
   21300    60.129556      828          725          103 7.3820129e-13 9.6618684e-15          0.1 0.0090124784    40.674417  0.029879221 
number of iterations: 1980 
   21400    60.348603      838          735          103 7.4798401e-13 9.6696043e-15          0.1 0.0090126455    41.248499  0.029878942 
number of iterations: 1991 
   21500    60.567059      848          745          103 7.5789638e-13 9.6773642e-15          0.1 0.0090128196    41.830193  0.029878653 
number of iterations: 1943 
   21600    60.781142      855          752          103 7.6794011e-13 9.6851481e-15          0.1 0.0090129716      42.4196  0.029878399 
number of iterations: 2015 
   21700    60.992853      863          760          103 7.7811694e-13 9.6929557e-15          0.1 0.0090131362     43.01682  0.029878125 
number of iterations: 1987 
   21800    61.208936      871          768          103 7.8842863e-13 9.7007868e-15          0.1 0.0090133138    43.621959   0.02987783 
number of iterations: 2011 
   21900    61.450083      882          779          103 7.9887698e-13 9.7086414e-15          0.1 0.0090135004    44.235122  0.029877519 
number of iterations: 2046 
   22000     61.68755      895          792          103 8.0946378e-13 9.7165192e-15          0.1 0.0090136591    44.856415  0.029877255 
number of iterations: 2027 
   22100    61.907456      910          807          103 8.2019088e-13 9.7244201e-15          0.1 0.0090138655    45.485946  0.029876911 
number of iterations: 2019 
   22200    62.143653      922          819          103 8.3106014e-13 9.7323439e-15          0.1 0.0090140578    46.123826  0.029876591 
number of iterations: 2064 
   22300    62.365639      941          838          103 8.4207343e-13 9.7402905e-15          0.1  0.009014259    46.770162  0.029876256 
number of iterations: 1983 
   22400    62.598092      951          848          103 8.5323268e-13 9.7482596e-15          0.1 0.0090144221    47.425066  0.029875984 
number of iterations: 2014 
   22500    62.964157      968          865          103 8.645398e-13 9.7562512e-15          0.1 0.0090146332    48.088653  0.029875633 
number of iterations: 2084 
   22600    63.174406      984          881          103 8.7599677e-13 9.764265e-15          0.1 0.0090148347    48.761037  0.029875297 
number of iterations: 2034 
   22700    63.387957      991          888          103 8.8760557e-13 9.772301e-15          0.1 0.0090150441    49.442336  0.029874948 
number of iterations: 2042 
   22800    63.594482     1007          904          103 8.993682e-13 9.780359e-15          0.1 0.0090152258    50.132668  0.029874646 
number of iterations: 2008 
   22900    63.809703     1016          913          103 9.1128672e-13 9.7884387e-15          0.1 0.0090154275    50.832152   0.02987431 
number of iterations: 2018 
   23000    64.022293     1023          920          103 9.2336318e-13 9.7965402e-15          0.1  0.009015629    51.540911  0.029873975 
number of iterations: 2030 
   23100    64.242218     1034          931          103 9.3559967e-13 9.8046632e-15          0.1 0.0090158311    52.259066  0.029873638 
number of iterations: 2100 
   23200    64.461788     1044          941          103 9.4799832e-13 9.8128076e-15          0.1 0.0090160687    52.986743  0.029873242 
number of iterations: 2045 
   23300    64.673347     1055          952          103 9.6056128e-13 9.8209732e-15          0.1 0.0090162883    53.724067  0.029872877 
number of iterations: 2011 
   23400    64.884258     1065          962          103 9.7329072e-13 9.8291599e-15          0.1 0.0090164865    54.471167  0.029872547 
number of iterations: 2014 
   23500    65.116775     1078          973          105 9.8618886e-13 9.8373676e-15          0.1 0.0090166962    55.228173  0.029872198 
number of iterations: 2084 
   23600    65.336555     1088          983          105 9.9925792e-13 9.8455961e-15          0.1 0.0090169175    55.995215  0.029871829 
number of iterations: 2077 
   23700    65.588281     1104          999          105 1.0125002e-12 9.8538453e-15          0.1 0.0090171473    56.772426  0.029871446 
number of iterations: 2058 
   23800    65.870561     1120         1015          105 1.0259179e-12 9.8621151e-15          0.1 0.0090173672    57.559943   0.02987108 
number of iterations: 2030 
   23900    66.102008     1128         1023          105 1.0395135e-12 9.8704053e-15          0.1 0.0090175854      58.3579  0.029870717 
number of iterations: 2044 
   24000    66.315947     1141         1036          105 1.0532892e-12 9.8787158e-15          0.1 0.0090178175    59.166436  0.029870331 
number of iterations: 2056 
   24100    66.541284     1158         1053          105 1.0672474e-12 9.8870465e-15          0.1 0.0090180498     59.98569  0.029869944 
number of iterations: 2081 
   24200    66.768369     1166         1061          105 1.0813907e-12 9.8953971e-15          0.1 0.0090182749    60.815805  0.029869569 
number of iterations: 2037 
   24300    66.985004     1178         1073          105 1.0957214e-12 9.9037677e-15          0.1 0.0090185046    61.656924  0.029869186 
number of iterations: 2074 
   24400    67.202213     1200         1095          105 1.1102419e-12 9.9121581e-15          0.1 0.0090187461    62.509195  0.029868784 
number of iterations: 2069 
   24500    67.434376     1212         1107          105 1.1249549e-12 9.9205681e-15          0.1 0.0090189921    63.372764  0.029868375 
number of iterations: 2095 
   24600    67.674063     1223         1118          105 1.1398629e-12 9.9289977e-15          0.1 0.0090192554    64.247783  0.029867936 
number of iterations: 2090 
   24700    68.002487     1237         1132          105 1.1549685e-12 9.9374467e-15          0.1 0.0090195055    65.134402   0.02986752 
number of iterations: 2066 
   24800    68.229155     1256         1151          105 1.1702742e-12 9.945915e-15          0.1 0.0090197545    66.032775  0.029867105 
number of iterations: 2052 
   24900    68.462969     1269         1164          105 1.1857827e-12 9.9544025e-15          0.1  0.009020003    66.943058  0.029866691 
number of iterations: 2054 
   25000    68.679317     1284         1179          105 1.2014968e-12 9.962909e-15          0.1 0.0090202607    67.865409  0.029866262 
number of iterations: 2068 
   25100    68.899912     1293         1188          105 1.2174191e-12 9.9714346e-15          0.1 0.0090205183    68.799987  0.029865833 
number of iterations: 2144 
   25200    69.192492     1312         1207          105 1.2335524e-12 9.9799789e-15          0.1 0.0090207824    69.746954  0.029865394 
number of iterations: 2062 
   25300    69.424643     1332         1227          105 1.2486661e-12 9.988542e-15          0.1 0.0090210291     70.70553  0.029864983 
number of iterations: 2089 
   25400    69.655788     1347         1242          105 1.2652135e-12 9.9971236e-15          0.1 0.0090212933    71.676813  0.029864543 
number of iterations: 2080 
   25500    69.871115     1362         1257          105 1.2819802e-12 1.0005724e-14          0.1 0.0090215686    72.660974  0.029864085 
number of iterations: 2157 
   25600    70.102968     1380         1272          108 1.2977676e-12 1.0014342e-14          0.1 0.0090218439    73.657261  0.029863626 
number of iterations: 2095 
   25700    70.349405     1402         1294          108 1.3139535e-12 1.0022979e-14          0.1 0.0090221014    74.665978  0.029863197 
number of iterations: 2103 
   25800    70.588773     1419         1311          108 1.3293655e-12 1.0031634e-14          0.1 0.0090223638    75.686534   0.02986276 
number of iterations: 2090 
   25900    70.811794     1433         1325          108 1.3469823e-12 1.0040307e-14          0.1 0.0090226448    76.720619  0.029862293 
number of iterations: 2109 
   26000    71.034937     1449         1341          108 1.3648326e-12 1.0048998e-14          0.1 0.0090229466    77.768411   0.02986179 
number of iterations: 2102 
   26100     71.25765     1465         1357          108 1.3816313e-12 1.0057707e-14          0.1 0.0090232351    78.829106   0.02986131 
number of iterations: 2118 
   26200    71.507328     1478         1370          108 1.3999407e-12 1.0066434e-14          0.1 0.0090235649    79.903861   0.02986076 
number of iterations: 2100 
   26300    71.728825     1497         1389          108 1.4184928e-12 1.0075178e-14          0.1 0.0090238659    80.992863  0.029860259 
number of iterations: 2155 
   26400    71.967796     1516         1408          108 1.4372907e-12 1.008394e-14          0.1 0.0090241849    82.096301  0.029859728 
number of iterations: 2083 
   26500    72.196786     1537         1429          108 1.4563378e-12 1.0092719e-14          0.1 0.0090244613    83.214366  0.029859268 
number of iterations: 2109 
   26600    72.486065     1557         1449          108 1.4756372e-12 1.0101516e-14          0.1 0.0090247695    84.347253  0.029858755 
number of iterations: 2136 
   26700    72.754394     1580         1472          108 1.4938352e-12 1.011033e-14          0.1 0.0090250799    85.494117  0.029858238 
number of iterations: 2140 
   26800    73.104737     1602         1493          109 1.5136316e-12 1.0119161e-14          0.1 0.0090254135    86.656183  0.029857682 
number of iterations: 2123 
   26900    73.341689     1621         1511          110 1.5324842e-12 1.012801e-14          0.1 0.0090257244     87.83273  0.029857165 
number of iterations: 2126 
   27000    73.580731     1644         1534          110 1.5527927e-12 1.0136875e-14          0.1 0.0090260552    89.024872  0.029856614 
number of iterations: 2143 
   27100    73.822113     1659         1549          110 1.5733704e-12 1.0145757e-14          0.1 0.0090264163    90.232817  0.029856013 
number of iterations: 2144 
   27200    74.073362     1680         1570          110 1.5942207e-12 1.0154656e-14          0.1  0.009026756    91.456775  0.029855447 
number of iterations: 2177 
   27300    74.311009     1701         1591          110 1.6153474e-12 1.0163572e-14          0.1 0.0090271383    92.696959   0.02985481 
number of iterations: 2141 
   27400    74.551787     1720         1610          110 1.636754e-12 1.0172504e-14          0.1 0.0090274831     93.95358  0.029854236 
number of iterations: 2156 
   27500    74.814403     1747         1637          110 1.6584443e-12 1.0181453e-14          0.1 0.0090278426    95.226861  0.029853638 
number of iterations: 2157 
   27600    75.068565     1774         1664          110 1.680422e-12 1.0190419e-14          0.1 0.0090282385    96.517021  0.029852978 
number of iterations: 2149 
   27700    75.330936     1790         1680          110 1.7013823e-12 1.0199401e-14          0.1 0.0090285754    97.823282  0.029852417 
number of iterations: 2157 
   27800    75.599249     1811         1700          111 1.723929e-12 1.0208399e-14          0.1 0.0090289497    99.146856  0.029851794 
number of iterations: 2180 
   27900    75.877472     1833         1722          111 1.7467746e-12 1.0217414e-14          0.1 0.0090293399    100.48798  0.029851144 
number of iterations: 2144 
   28000     76.14152     1867         1756          111 1.7692007e-12 1.0226445e-14          0.1 0.0090297166    101.84632  0.029850517 
number of iterations: 2150 
   28100    76.393029     1885         1774          111 1.7926462e-12 1.0235492e-14          0.1 0.0090301128    103.22266  0.029849858 
number of iterations: 2154 
   28200    76.613967     1908         1797          111 1.8164024e-12 1.0244555e-14          0.1 0.0090305072    104.61725  0.029849201 
number of iterations: 2182 
   28300    76.871515     1933         1822          111 1.8404733e-12 1.0253633e-14          0.1 0.0090309342    106.03033   0.02984849 
number of iterations: 2241 
   28400    77.146018     1954         1843          111 1.8648633e-12 1.0262728e-14          0.1 0.0090313865    107.46214  0.029847737 
number of iterations: 2168 
   28500    77.390964     1977         1866          111 1.8884528e-12 1.0271839e-14          0.1  0.009031764    108.91206  0.029847108 
number of iterations: 2197 
   28600     77.62288     2004         1893          111 1.910955e-12 1.0280965e-14          0.1  0.009032148    110.37927  0.029846469 
number of iterations: 2167 
   28700    77.850045     2025         1914          111  1.93496e-12 1.0290108e-14          0.1 0.0090325299    111.86492  0.029845833 
number of iterations: 2213 
   28800    78.267599     2050         1939          111 1.9591984e-12 1.0299265e-14          0.1 0.0090329518    113.36918   0.02984513 
number of iterations: 2187 
   28900    78.518098     2073         1962          111 1.9842574e-12 1.0308439e-14          0.1 0.0090333589    114.89269  0.029844452 
number of iterations: 2164 
   29000    78.770044     2091         1980          111 2.0095746e-12 1.0317627e-14          0.1 0.0090337664    116.43564  0.029843774 
number of iterations: 2168 
   29100    79.032487     2115         2004          111 2.034828e-12 1.0326831e-14          0.1  0.009034189    117.99799   0.02984307 
number of iterations: 2207 
   29200    79.414389     2151         2040          111 2.0617935e-12 1.0336051e-14          0.1 0.0090346273    119.58104   0.02984234 
number of iterations: 2204 
   29300    79.653869     2171         2060          111 2.0891163e-12 1.0345286e-14          0.1 0.0090350774    121.18508  0.029841591 
number of iterations: 2184 
   29400    79.890239     2194         2083          111 2.1158068e-12 1.0354536e-14          0.1 0.0090355257    122.80962  0.029840844 
number of iterations: 2161 
   29500    80.120965     2211         2100          111 2.1428587e-12 1.0363801e-14          0.1 0.0090359541    124.45494  0.029840131 
number of iterations: 2216 
   29600    80.346912     2236         2124          112 2.1712558e-12 1.0373081e-14          0.1 0.0090364472    126.12206   0.02983931 
number of iterations: 2175 
   29700    80.616887     2272         2160          112 2.1975191e-12 1.0382376e-14          0.1 0.0090368929    127.80936  0.029838568 
number of iterations: 2220 
   29800    80.862796     2301         2189          112 2.2266405e-12 1.0391686e-14          0.1 0.0090373957    129.51902  0.029837731 
number of iterations: 2220 
   29900    81.139218     2332         2219          113 2.2553174e-12 1.0401011e-14          0.1 0.0090378909    131.25071  0.029836906 
number of iterations: 2244 
   30000    81.414035     2362         2249          113 2.2852048e-12 1.0410351e-14          0.1 0.0090384524    133.00535  0.029835971 
number of iterations: 2206 
   30100    81.643893     2387         2274          113 2.3154882e-12 1.0419705e-14          0.1 0.0090389312    134.78324  0.029835174 
number of iterations: 2237 
   30200    81.907565     2424         2311          113 2.346173e-12 1.0429075e-14          0.1 0.0090394857    136.58471  0.029834251 
number of iterations: 2240 
   30300    82.156786     2447         2334          113 2.3772643e-12 1.0438459e-14          0.1 0.0090399981    138.41004  0.029833398 
number of iterations: 2237 
   30400    82.402409     2490         2377          113 2.4087677e-12 1.0447858e-14          0.1 0.0090405529    140.25958  0.029832474 
number of iterations: 2201 
   30500    82.655894     2521         2408          113 2.4381472e-12 1.0457271e-14          0.1  0.009041011    142.13168  0.029831711 
number of iterations: 2227 
   30600    82.908872     2557         2444          113 2.4704574e-12 1.0466699e-14          0.1 0.0090415518     144.0286   0.02983081 
number of iterations: 2237 
   30700    83.247844     2593         2480          113 2.5031957e-12 1.0476141e-14          0.1 0.0090420573    145.95066  0.029829969 
number of iterations: 2228 
   30800    83.486275     2617         2504          113 2.5353324e-12 1.0485597e-14          0.1 0.0090425728    147.89741   0.02982911 
number of iterations: 2248 
   30900    83.769385     2641         2528          113 2.5679395e-12 1.0495068e-14          0.1  0.009043191    149.86919  0.029828081 
number of iterations: 2207 
   31000    84.021688     2675         2562          113 2.599337e-12 1.0504554e-14          0.1 0.0090436921     151.8651  0.029827247 
number of iterations: 2279 
   31100    84.290348     2712         2599          113 2.6337833e-12 1.0514053e-14          0.1 0.0090443103    153.88746  0.029826217 
number of iterations: 2235 
   31200    84.527023     2743         2630          113 2.668686e-12 1.0523567e-14          0.1  0.009044855    155.93663   0.02982531 
number of iterations: 2227 
   31300    84.787551     2770         2656          114 2.701868e-12 1.0533095e-14          0.1 0.0090453552    158.01129  0.029824477 
number of iterations: 2241 
   31400    85.063834     2803         2689          114 2.736407e-12 1.0542637e-14          0.1 0.0090459244    160.11247   0.02982353 
number of iterations: 2248 
   31500    85.307782     2838         2724          114 2.7726696e-12 1.0552193e-14          0.1 0.0090465408    162.24149  0.029822503 
number of iterations: 2264 
   31600    85.549528     2871         2757          114 2.8082468e-12 1.0561763e-14          0.1 0.0090471177    164.39785  0.029821543 
number of iterations: 2285 
   31700    85.914248     2907         2792          115 2.8427582e-12 1.0571347e-14          0.1  0.009047746    166.58071  0.029820496 
number of iterations: 2294 
   31800    86.167145     2950         2835          115 2.877603e-12 1.0580945e-14          0.1 0.0090483303    168.79034  0.029819523 
number of iterations: 2232 
   31900    86.440666     2983         2868          115 2.9125803e-12 1.0590557e-14          0.1 0.0090488627    171.02684  0.029818637 
number of iterations: 2273 
   32000    86.703812     3013         2898          115 2.9502881e-12 1.0600183e-14          0.1 0.0090495196     173.2923  0.029817543 
number of iterations: 2247 
   32100    86.948849     3047         2932          115 2.9858922e-12 1.0609822e-14          0.1 0.0090501088    175.58511  0.029816562 
number of iterations: 2259 
   32200     87.21349     3092         2975          117 3.0242314e-12 1.0619476e-14          0.1 0.0090507503    177.90738  0.029815494 
number of iterations: 2314 
   32300    87.473251     3141         3024          117 3.062854e-12 1.0629143e-14          0.1 0.0090513966    180.25932  0.029814418 
number of iterations: 2254 
   32400    87.732454     3183         3066          117 3.0998287e-12 1.0638823e-14          0.1 0.0090520133    182.63966  0.029813391 
number of iterations: 2305 
   32500    88.131673     3217         3100          117 3.1409073e-12 1.0648518e-14          0.1 0.0090527295    185.05155  0.029812198 
number of iterations: 2275 
   32600    88.387896     3263         3146          117 3.1825302e-12 1.0658225e-14          0.1 0.0090533876    187.49541  0.029811103 
number of iterations: 2274 
   32700    88.630814     3302         3185          117 3.2233321e-12 1.0667947e-14          0.1 0.0090540526     189.9706  0.029809995 
number of iterations: 2318 
   32800    88.905062     3344         3227          117 3.2636438e-12 1.0677682e-14          0.1 0.0090547596    192.47676  0.029808818 
number of iterations: 2271 
   32900    89.192973     3391         3274          117 3.3048837e-12 1.068743e-14          0.1 0.0090553893    195.01461   0.02980777 
number of iterations: 2309 
   33000    89.449555     3426         3309          117 3.3477161e-12 1.0697192e-14          0.1 0.0090561206    197.58535  0.029806552 
number of iterations: 2304 
   33100    89.728884     3480         3363          117 3.3893813e-12 1.0706967e-14          0.1 0.0090568363     200.1881   0.02980536 
number of iterations: 2299 
   33200    89.974405     3515         3398          117 3.433165e-12 1.0716756e-14          0.1 0.0090575122    202.82448  0.029804235 
number of iterations: 2317 
   33300    90.258928     3552         3435          117 3.4750578e-12 1.0726558e-14          0.1 0.0090582399    205.49306  0.029803023 
number of iterations: 2307 
   33400    90.514074     3597         3480          117 3.5188608e-12 1.0736373e-14          0.1 0.0090589387    208.19529  0.029801859 
number of iterations: 2304 
   33500    90.800136     3634         3517          117 3.5644426e-12 1.0746202e-14          0.1 0.0090597258    210.93254  0.029800549 
number of iterations: 2331 
   33600    91.069217     3669         3552          117 3.611678e-12 1.0756043e-14          0.1 0.0090605089    213.70606  0.029799245 
number of iterations: 2296 
   33700    91.326595     3719         3602          117 3.6572944e-12 1.0765898e-14          0.1 0.0090612219    216.51462  0.029798058 
number of iterations: 2300 
   33800     91.60525     3748         3631          117 3.7013477e-12 1.0775766e-14          0.1  0.009061957    219.35704  0.029796834 
number of iterations: 2293 
   33900     91.85151     3780         3663          117 3.7475769e-12 1.0785648e-14          0.1 0.0090626926    222.23498  0.029795609 
number of iterations: 2304 
   34000    92.143423     3832         3715          117 3.7960418e-12 1.0795542e-14          0.1 0.0090634835    225.15013  0.029794292 
number of iterations: 2307 
   34100    92.401265     3878         3761          117 3.8418013e-12 1.0805449e-14          0.1 0.0090641964    228.10045  0.029793105 
number of iterations: 2302 
   34200    92.652858     3936         3819          117 3.8895576e-12 1.081537e-14          0.1 0.0090649298    231.08745  0.029791884 
number of iterations: 2353 
   34300    92.919826     3995         3878          117 3.9411014e-12 1.0825303e-14          0.1 0.0090657936    234.11406  0.029790445 
number of iterations: 2342 
   34400    93.336812     4052         3935          117 3.9920751e-12 1.083525e-14          0.1 0.0090666683    237.17984  0.029788989 
number of iterations: 2349 
   34500    93.604467     4108         3991          117 4.0427167e-12 1.0845209e-14          0.1 0.0090675583    240.28449  0.029787507 
number of iterations: 2351 
   34600    93.870209     4174         4055          119  4.09629e-12 1.0855181e-14          0.1 0.0090684609    243.43033  0.029786004 
number of iterations: 2339 
   34700    94.148388     4224         4105          119 4.1469074e-12 1.0865167e-14          0.1 0.0090692708    246.61505  0.029784656 
number of iterations: 2301 
   34800    94.430954     4292         4171          121 4.1968803e-12 1.0875165e-14          0.1 0.0090700415    249.83817  0.029783372 
number of iterations: 2351 
   34900    94.743795     4346         4225          121 4.2505756e-12 1.0885175e-14          0.1  0.009070951    253.10255  0.029781858 
number of iterations: 2366 
   35000    95.020792     4400         4279          121 4.305765e-12 1.0895199e-14          0.1 0.0090718915    256.40933  0.029780292 
Loop time of 95.0208 on 32 procs for 35000 steps with 4400 atoms

Performance: 318245995.219 tau/day, 368.340 timesteps/s
92.4% CPU use with 32 MPI tasks x no OpenMP threads

MPI task timing breakdown:
Section |  min time  |  avg time  |  max time  |%varavg| %total
---------------------------------------------------------------
Pair    | 0.0017438  | 0.06329    | 0.19849    |  19.4 |  0.07
Neigh   | 0.0029952  | 0.019248   | 0.051004   |   9.3 |  0.02
Comm    | 0.026457   | 0.1514     | 0.21926    |  12.3 |  0.16
Output  | 23.147     | 23.148     | 23.154     |   0.0 | 24.36
Modify  | 71.178     | 71.226     | 71.301     |   0.4 | 74.96
Other   |            | 0.4137     |            |       |  0.44

Nlocal:    137.5 ave 341 max 0 min
Histogram: 5 4 7 2 4 1 3 1 2 3
Nghost:    66.4062 ave 132 max 0 min
Histogram: 4 3 1 3 4 5 3 3 3 3
Neighs:    482.562 ave 1252 max 0 min
Histogram: 4 7 5 3 4 2 1 3 0 3

Total # of neighbors = 15442
Ave neighs/atom = 3.50955
Neighbor list builds = 695
Dangerous builds = 0
Total wall time: 0:01:35
