ITEM: TIMESTEP
0
ITEM: NUMBER OF ATOMS
50
ITEM: BOX BOUNDS ff ff ff
0.0000000000000000e+00 1.0000000000000000e-04
0.0000000000000000e+00 1.0000000000000000e-04
0.0000000000000000e+00 5.0000000000000002e-05
ITEM: ATOMS id type diameter x y z 
35 1 1.52e-06 4.74e-05 4.33e-05 1.54e-05 
19 1 1.62e-06 1.42e-05 2.65e-05 1.86e-05 
44 1 1.85e-06 4.59e-05 6.34e-06 2.12e-05 
36 1 1.65e-06 7.09e-06 1.19e-05 2.4e-05 
16 1 1.67e-06 1.78e-06 2.56e-05 2.51e-05 
48 1 1.74e-06 4.02e-05 2.97e-05 2.85e-05 
13 1 1.64e-06 4.61e-05 7.31e-06 2.93e-05 
33 1 1.45e-06 1.2e-05 4.61e-06 3.22e-05 
6 1 1.56e-06 1.03e-05 9.23e-06 4.58e-05 
43 1 1.49e-06 3.16e-05 3.33e-05 4.69e-05 
14 1 1.43e-06 1.9e-06 5.25e-05 1.76e-06 
30 1 1.52e-06 3.28e-05 5.19e-05 5.67e-06 
31 1 1.76e-06 2.8e-05 8.8e-05 1.06e-05 
10 1 1.77e-06 3.66e-05 5.76e-05 1.23e-05 
49 1 1.75e-06 1.32e-05 8.87e-05 1.4e-05 
17 1 1.88e-06 3.5e-05 7.35e-05 1.65e-05 
37 1 1.88e-06 4.39e-05 5.73e-05 2.05e-05 
18 1 1.56e-06 2.14e-05 7.21e-05 2.12e-05 
12 1 1.88e-06 4.15e-05 8.01e-05 2.66e-05 
47 1 1.53e-06 3.44e-05 6.37e-05 2.89e-05 
7 1 1.42e-06 3.8e-05 5.49e-05 3.02e-05 
1 1 1.78e-06 2.58e-05 7.58e-05 3.89e-05 
46 1 1.4e-06 1.35e-05 6e-05 4.17e-05 
22 1 1.82e-06 3.58e-05 7.67e-05 4.49e-05 
24 1 1.43e-06 8.93e-05 2.1e-05 2.18e-06 
15 1 1.65e-06 6.25e-05 4.16e-06 5.51e-06 
42 1 1.54e-06 9.11e-05 3.1e-05 1.05e-05 
8 1 1.65e-06 8.07e-05 1.63e-05 1.94e-05 
29 1 1.47e-06 7.12e-05 1.92e-05 2.2e-05 
27 1 1.47e-06 7.2e-05 3.15e-05 2.19e-05 
20 1 1.73e-06 6.38e-05 1.87e-05 2.37e-05 
40 1 1.55e-06 5.45e-05 4.14e-05 2.91e-05 
2 1 1.64e-06 8.64e-05 4.21e-05 4.02e-05 
28 1 1.86e-06 8.01e-05 3.58e-05 4.07e-05 
4 1 1.52e-06 8.08e-05 2.81e-05 4.22e-05 
21 1 1.74e-06 5.03e-05 3.69e-05 4.79e-05 
9 1 1.69e-06 5.82e-05 5.08e-05 1.78e-06 
38 1 1.6e-06 7.85e-05 6.82e-05 8.82e-06 
39 1 1.72e-06 9.15e-05 6.02e-05 9.97e-06 
5 1 1.49e-06 7.95e-05 5.29e-05 1e-05 
50 1 1.91e-06 7.05e-05 7.09e-05 1.08e-05 
32 1 1.8e-06 7.7e-05 5.9e-05 1.7e-05 
25 1 1.78e-06 9.06e-05 7.49e-05 1.69e-05 
34 1 1.42e-06 5.77e-05 9.47e-05 1.88e-05 
11 1 1.83e-06 6.11e-05 8.52e-05 2.04e-05 
26 1 1.86e-06 8.71e-05 6.09e-05 2.97e-05 
45 1 1.83e-06 7.51e-05 8.41e-05 3.43e-05 
41 1 1.42e-06 5.67e-05 6e-05 4.17e-05 
3 1 1.62e-06 9.37e-05 9.27e-05 4.45e-05 
23 1 1.38e-06 5.42e-05 5.44e-05 4.48e-05 
ITEM: TIMESTEP
100
ITEM: NUMBER OF ATOMS
50
ITEM: BOX BOUNDS ff ff ff
0.0000000000000000e+00 1.0000000000000000e-04
0.0000000000000000e+00 1.0000000000000000e-04
0.0000000000000000e+00 5.0000000000000002e-05
ITEM: ATOMS id type diameter x y z 
35 1 1.5292e-06 4.74e-05 4.33e-05 1.54e-05 
19 1 1.62981e-06 1.42e-05 2.65e-05 1.86e-05 
44 1 1.8612e-06 4.59e-05 6.34e-06 2.12e-05 
36 1 1.65999e-06 7.09e-06 1.19e-05 2.4e-05 
16 1 1.68011e-06 1.78e-06 2.56e-05 2.51e-05 
48 1 1.75054e-06 4.02e-05 2.97e-05 2.85e-05 
13 1 1.64993e-06 4.61e-05 7.31e-06 2.93e-05 
33 1 1.45878e-06 1.2e-05 4.61e-06 3.22e-05 
6 1 1.56945e-06 1.03e-05 9.23e-06 4.58e-05 
43 1 1.49902e-06 3.16e-05 3.33e-05 4.69e-05 
14 1 1.43866e-06 1.9e-06 5.25e-05 1.76e-06 
30 1 1.5292e-06 3.28e-05 5.19e-05 5.67e-06 
31 1 1.77066e-06 2.8e-05 8.8e-05 1.06e-05 
10 1 1.78072e-06 3.66e-05 5.76e-05 1.23e-05 
49 1 1.7606e-06 1.32e-05 8.87e-05 1.4e-05 
17 1 1.89138e-06 3.5e-05 7.35e-05 1.65e-05 
37 1 1.89138e-06 4.39e-05 5.73e-05 2.05e-05 
18 1 1.56945e-06 2.14e-05 7.21e-05 2.12e-05 
12 1 1.89138e-06 4.15e-05 8.01e-05 2.66e-05 
47 1 1.53926e-06 3.44e-05 6.37e-05 2.89e-05 
7 1 1.4286e-06 3.8e-05 5.49e-05 3.02e-05 
1 1 1.79078e-06 2.58e-05 7.58e-05 3.89e-05 
46 1 1.40848e-06 1.35e-05 6e-05 4.17e-05 
22 1 1.83102e-06 3.58e-05 7.67e-05 4.49e-05 
24 1 1.43866e-06 8.93e-05 2.1e-05 2.18e-06 
15 1 1.65999e-06 6.25e-05 4.16e-06 5.51e-06 
42 1 1.54932e-06 9.11e-05 3.1e-05 1.05e-05 
8 1 1.65999e-06 8.07e-05 1.63e-05 1.94e-05 
29 1 1.4789e-06 7.12e-05 1.92e-05 2.2e-05 
27 1 1.4789e-06 7.2e-05 3.15e-05 2.19e-05 
20 1 1.74047e-06 6.38e-05 1.87e-05 2.37e-05 
40 1 1.55938e-06 5.45e-05 4.14e-05 2.91e-05 
2 1 1.64993e-06 8.64e-05 4.21e-05 4.02e-05 
28 1 1.87126e-06 8.01e-05 3.58e-05 4.07e-05 
4 1 1.5292e-06 8.08e-05 2.81e-05 4.22e-05 
21 1 1.75054e-06 5.03e-05 3.69e-05 4.79e-05 
9 1 1.70023e-06 5.82e-05 5.08e-05 1.78e-06 
38 1 1.60969e-06 7.85e-05 6.82e-05 8.82e-06 
39 1 1.73041e-06 9.15e-05 6.02e-05 9.97e-06 
5 1 1.49902e-06 7.95e-05 5.29e-05 1e-05 
50 1 1.92156e-06 7.05e-05 7.09e-05 1.08e-05 
32 1 1.8109e-06 7.7e-05 5.9e-05 1.7e-05 
25 1 1.79078e-06 9.06e-05 7.49e-05 1.69e-05 
34 1 1.4286e-06 5.77e-05 9.47e-05 1.88e-05 
11 1 1.84108e-06 6.11e-05 8.52e-05 2.04e-05 
26 1 1.87126e-06 8.71e-05 6.09e-05 2.97e-05 
45 1 1.84108e-06 7.51e-05 8.41e-05 3.43e-05 
41 1 1.4286e-06 5.67e-05 6e-05 4.17e-05 
3 1 1.62981e-06 9.37e-05 9.27e-05 4.45e-05 
23 1 1.38836e-06 5.42e-05 5.44e-05 4.48e-05 
ITEM: TIMESTEP
200
ITEM: NUMBER OF ATOMS
50
ITEM: BOX BOUNDS ff ff ff
0.0000000000000000e+00 1.0000000000000000e-04
0.0000000000000000e+00 1.0000000000000000e-04
0.0000000000000000e+00 5.0000000000000002e-05
ITEM: ATOMS id type diameter x y z 
35 1 1.53846e-06 4.74e-05 4.33e-05 1.54e-05 
19 1 1.63968e-06 1.42e-05 2.65e-05 1.86e-05 
44 1 1.87247e-06 4.59e-05 6.34e-06 2.12e-05 
36 1 1.67004e-06 7.09e-06 1.19e-05 2.4e-05 
16 1 1.69028e-06 1.78e-06 2.56e-05 2.51e-05 
48 1 1.76113e-06 4.02e-05 2.97e-05 2.85e-05 
13 1 1.65992e-06 4.61e-05 7.31e-06 2.93e-05 
33 1 1.46761e-06 1.2e-05 4.61e-06 3.22e-05 
6 1 1.57895e-06 1.03e-05 9.23e-06 4.58e-05 
43 1 1.5081e-06 3.16e-05 3.33e-05 4.69e-05 
14 1 1.44737e-06 1.9e-06 5.25e-05 1.76e-06 
30 1 1.53846e-06 3.28e-05 5.19e-05 5.67e-06 
31 1 1.78138e-06 2.8e-05 8.8e-05 1.06e-05 
10 1 1.7915e-06 3.66e-05 5.76e-05 1.23e-05 
49 1 1.77126e-06 1.32e-05 8.87e-05 1.4e-05 
17 1 1.90283e-06 3.5e-05 7.35e-05 1.65e-05 
37 1 1.90283e-06 4.39e-05 5.73e-05 2.05e-05 
18 1 1.57895e-06 2.14e-05 7.21e-05 2.12e-05 
12 1 1.90283e-06 4.15e-05 8.01e-05 2.66e-05 
47 1 1.54858e-06 3.44e-05 6.37e-05 2.89e-05 
7 1 1.43725e-06 3.8e-05 5.49e-05 3.02e-05 
1 1 1.80162e-06 2.58e-05 7.58e-05 3.89e-05 
46 1 1.417e-06 1.35e-05 6e-05 4.17e-05 
22 1 1.84211e-06 3.58e-05 7.67e-05 4.49e-05 
24 1 1.44737e-06 8.93e-05 2.1e-05 2.18e-06 
15 1 1.67004e-06 6.25e-05 4.16e-06 5.51e-06 
42 1 1.55871e-06 9.11e-05 3.1e-05 1.05e-05 
8 1 1.67004e-06 8.07e-05 1.63e-05 1.94e-05 
29 1 1.48785e-06 7.12e-05 1.92e-05 2.2e-05 
27 1 1.48785e-06 7.2e-05 3.15e-05 2.19e-05 
20 1 1.75101e-06 6.38e-05 1.87e-05 2.37e-05 
40 1 1.56883e-06 5.45e-05 4.14e-05 2.91e-05 
2 1 1.65992e-06 8.64e-05 4.21e-05 4.02e-05 
28 1 1.88259e-06 8.01e-05 3.58e-05 4.07e-05 
4 1 1.53846e-06 8.08e-05 2.81e-05 4.22e-05 
21 1 1.76113e-06 5.03e-05 3.69e-05 4.79e-05 
9 1 1.71053e-06 5.82e-05 5.08e-05 1.78e-06 
38 1 1.61943e-06 7.85e-05 6.82e-05 8.82e-06 
39 1 1.74089e-06 9.15e-05 6.02e-05 9.97e-06 
5 1 1.5081e-06 7.95e-05 5.29e-05 1e-05 
50 1 1.9332e-06 7.05e-05 7.09e-05 1.08e-05 
32 1 1.82186e-06 7.7e-05 5.9e-05 1.7e-05 
25 1 1.80162e-06 9.06e-05 7.49e-05 1.69e-05 
34 1 1.43725e-06 5.77e-05 9.47e-05 1.88e-05 
11 1 1.85223e-06 6.11e-05 8.52e-05 2.04e-05 
26 1 1.88259e-06 8.71e-05 6.09e-05 2.97e-05 
45 1 1.85223e-06 7.51e-05 8.41e-05 3.43e-05 
41 1 1.43725e-06 5.67e-05 6e-05 4.17e-05 
3 1 1.63968e-06 9.37e-05 9.27e-05 4.45e-05 
23 1 1.39676e-06 5.42e-05 5.44e-05 4.48e-05 
ITEM: TIMESTEP
300
ITEM: NUMBER OF ATOMS
50
ITEM: BOX BOUNDS ff ff ff
0.0000000000000000e+00 1.0000000000000000e-04
0.0000000000000000e+00 1.0000000000000000e-04
0.0000000000000000e+00 5.0000000000000002e-05
ITEM: ATOMS id type diameter x y z 
35 1 1.54778e-06 4.74e-05 4.33e-05 1.54e-05 
19 1 1.6496e-06 1.42e-05 2.65e-05 1.86e-05 
44 1 1.88381e-06 4.59e-05 6.34e-06 2.12e-05 
36 1 1.68015e-06 7.09e-06 1.19e-05 2.4e-05 
16 1 1.70052e-06 1.78e-06 2.56e-05 2.51e-05 
48 1 1.7718e-06 4.02e-05 2.97e-05 2.85e-05 
13 1 1.66997e-06 4.61e-05 7.31e-06 2.93e-05 
33 1 1.4765e-06 1.2e-05 4.61e-06 3.22e-05 
6 1 1.58851e-06 1.03e-05 9.23e-06 4.58e-05 
43 1 1.51723e-06 3.16e-05 3.33e-05 4.69e-05 
14 1 1.45613e-06 1.9e-06 5.25e-05 1.76e-06 
30 1 1.54778e-06 3.28e-05 5.19e-05 5.67e-06 
31 1 1.79216e-06 2.8e-05 8.8e-05 1.06e-05 
10 1 1.80235e-06 3.66e-05 5.76e-05 1.23e-05 
49 1 1.78198e-06 1.32e-05 8.87e-05 1.4e-05 
17 1 1.91436e-06 3.5e-05 7.35e-05 1.65e-05 
37 1 1.91436e-06 4.39e-05 5.73e-05 2.05e-05 
18 1 1.58851e-06 2.14e-05 7.21e-05 2.12e-05 
12 1 1.91436e-06 4.15e-05 8.01e-05 2.66e-05 
47 1 1.55796e-06 3.44e-05 6.37e-05 2.89e-05 
7 1 1.44595e-06 3.8e-05 5.49e-05 3.02e-05 
1 1 1.81253e-06 2.58e-05 7.58e-05 3.89e-05 
46 1 1.42558e-06 1.35e-05 6e-05 4.17e-05 
22 1 1.85326e-06 3.58e-05 7.67e-05 4.49e-05 
24 1 1.45613e-06 8.93e-05 2.1e-05 2.18e-06 
15 1 1.68015e-06 6.25e-05 4.16e-06 5.51e-06 
42 1 1.56814e-06 9.11e-05 3.1e-05 1.05e-05 
8 1 1.68015e-06 8.07e-05 1.63e-05 1.94e-05 
29 1 1.49686e-06 7.12e-05 1.92e-05 2.2e-05 
27 1 1.49686e-06 7.2e-05 3.15e-05 2.19e-05 
20 1 1.76161e-06 6.38e-05 1.87e-05 2.37e-05 
40 1 1.57833e-06 5.45e-05 4.14e-05 2.91e-05 
2 1 1.66997e-06 8.64e-05 4.21e-05 4.02e-05 
28 1 1.89399e-06 8.01e-05 3.58e-05 4.07e-05 
4 1 1.54778e-06 8.08e-05 2.81e-05 4.22e-05 
21 1 1.7718e-06 5.03e-05 3.69e-05 4.79e-05 
9 1 1.72088e-06 5.82e-05 5.08e-05 1.78e-06 
38 1 1.62924e-06 7.85e-05 6.82e-05 8.82e-06 
39 1 1.75143e-06 9.15e-05 6.02e-05 9.97e-06 
5 1 1.51723e-06 7.95e-05 5.29e-05 1e-05 
50 1 1.9449e-06 7.05e-05 7.09e-05 1.08e-05 
32 1 1.83289e-06 7.7e-05 5.9e-05 1.7e-05 
25 1 1.81253e-06 9.06e-05 7.49e-05 1.69e-05 
34 1 1.44595e-06 5.77e-05 9.47e-05 1.88e-05 
11 1 1.86344e-06 6.11e-05 8.52e-05 2.04e-05 
26 1 1.89399e-06 8.71e-05 6.09e-05 2.97e-05 
45 1 1.86344e-06 7.51e-05 8.41e-05 3.43e-05 
41 1 1.44595e-06 5.67e-05 6e-05 4.17e-05 
3 1 1.6496e-06 9.37e-05 9.27e-05 4.45e-05 
23 1 1.40522e-06 5.42e-05 5.44e-05 4.48e-05 
ITEM: TIMESTEP
400
ITEM: NUMBER OF ATOMS
50
ITEM: BOX BOUNDS ff ff ff
0.0000000000000000e+00 1.0000000000000000e-04
0.0000000000000000e+00 1.0000000000000000e-04
0.0000000000000000e+00 5.0000000000000002e-05
ITEM: ATOMS id type diameter x y z 
35 1 1.55715e-06 4.74e-05 4.33e-05 1.54e-05 
19 1 1.65959e-06 1.42e-05 2.65e-05 1.86e-05 
44 1 1.89521e-06 4.59e-05 6.34e-06 2.12e-05 
36 1 1.69033e-06 7.09e-06 1.19e-05 2.4e-05 
16 1 1.71081e-06 1.78e-06 2.56e-05 2.51e-05 
48 1 1.78253e-06 4.02e-05 2.97e-05 2.85e-05 
13 1 1.68008e-06 4.61e-05 7.31e-06 2.93e-05 
33 1 1.48544e-06 1.2e-05 4.61e-06 3.22e-05 
6 1 1.59813e-06 1.03e-05 9.23e-06 4.58e-05 
43 1 1.52642e-06 3.16e-05 3.33e-05 4.69e-05 
14 1 1.46495e-06 1.9e-06 5.25e-05 1.76e-06 
30 1 1.55715e-06 3.28e-05 5.19e-05 5.67e-06 
31 1 1.80301e-06 2.8e-05 8.8e-05 1.06e-05 
10 1 1.81326e-06 3.66e-05 5.76e-05 1.23e-05 
49 1 1.79277e-06 1.32e-05 8.87e-05 1.4e-05 
17 1 1.92595e-06 3.5e-05 7.35e-05 1.65e-05 
37 1 1.92595e-06 4.39e-05 5.73e-05 2.05e-05 
18 1 1.59813e-06 2.14e-05 7.21e-05 2.12e-05 
12 1 1.92595e-06 4.15e-05 8.01e-05 2.66e-05 
47 1 1.56739e-06 3.44e-05 6.37e-05 2.89e-05 
7 1 1.4547e-06 3.8e-05 5.49e-05 3.02e-05 
1 1 1.8235e-06 2.58e-05 7.58e-05 3.89e-05 
46 1 1.43422e-06 1.35e-05 6e-05 4.17e-05 
22 1 1.86448e-06 3.58e-05 7.67e-05 4.49e-05 
24 1 1.46495e-06 8.93e-05 2.1e-05 2.18e-06 
15 1 1.69033e-06 6.25e-05 4.16e-06 5.51e-06 
42 1 1.57764e-06 9.11e-05 3.1e-05 1.05e-05 
8 1 1.69033e-06 8.07e-05 1.63e-05 1.94e-05 
29 1 1.50593e-06 7.12e-05 1.92e-05 2.2e-05 
27 1 1.50593e-06 7.2e-05 3.15e-05 2.19e-05 
20 1 1.77228e-06 6.38e-05 1.87e-05 2.37e-05 
40 1 1.58788e-06 5.45e-05 4.14e-05 2.91e-05 
2 1 1.68008e-06 8.64e-05 4.21e-05 4.02e-05 
28 1 1.90546e-06 8.01e-05 3.58e-05 4.07e-05 
4 1 1.55715e-06 8.08e-05 2.81e-05 4.22e-05 
21 1 1.78253e-06 5.03e-05 3.69e-05 4.79e-05 
9 1 1.7313e-06 5.82e-05 5.08e-05 1.78e-06 
38 1 1.6391e-06 7.85e-05 6.82e-05 8.82e-06 
39 1 1.76204e-06 9.15e-05 6.02e-05 9.97e-06 
5 1 1.52642e-06 7.95e-05 5.29e-05 1e-05 
50 1 1.95668e-06 7.05e-05 7.09e-05 1.08e-05 
32 1 1.84399e-06 7.7e-05 5.9e-05 1.7e-05 
25 1 1.8235e-06 9.06e-05 7.49e-05 1.69e-05 
34 1 1.4547e-06 5.77e-05 9.47e-05 1.88e-05 
11 1 1.87472e-06 6.11e-05 8.52e-05 2.04e-05 
26 1 1.90546e-06 8.71e-05 6.09e-05 2.97e-05 
45 1 1.87472e-06 7.51e-05 8.41e-05 3.43e-05 
41 1 1.4547e-06 5.67e-05 6e-05 4.17e-05 
3 1 1.65959e-06 9.37e-05 9.27e-05 4.45e-05 
23 1 1.41373e-06 5.42e-05 5.44e-05 4.48e-05 
ITEM: TIMESTEP
500
ITEM: NUMBER OF ATOMS
50
ITEM: BOX BOUNDS ff ff ff
0.0000000000000000e+00 1.0000000000000000e-04
0.0000000000000000e+00 1.0000000000000000e-04
0.0000000000000000e+00 5.0000000000000002e-05
ITEM: ATOMS id type diameter x y z 
35 1 1.56658e-06 4.74e-05 4.33e-05 1.54e-05 
19 1 1.66964e-06 1.42e-05 2.65e-05 1.86e-05 
44 1 1.90669e-06 4.59e-05 6.34e-06 2.12e-05 
36 1 1.70056e-06 7.09e-06 1.19e-05 2.4e-05 
16 1 1.72117e-06 1.78e-06 2.56e-05 2.51e-05 
48 1 1.79332e-06 4.02e-05 2.97e-05 2.85e-05 
13 1 1.69025e-06 4.61e-05 7.31e-06 2.93e-05 
33 1 1.49443e-06 1.2e-05 4.61e-06 3.22e-05 
6 1 1.6078e-06 1.03e-05 9.23e-06 4.58e-05 
43 1 1.53566e-06 3.16e-05 3.33e-05 4.69e-05 
14 1 1.47382e-06 1.9e-06 5.25e-05 1.76e-06 
30 1 1.56658e-06 3.28e-05 5.19e-05 5.67e-06 
31 1 1.81393e-06 2.8e-05 8.8e-05 1.06e-05 
10 1 1.82424e-06 3.66e-05 5.76e-05 1.23e-05 
49 1 1.80362e-06 1.32e-05 8.87e-05 1.4e-05 
17 1 1.93761e-06 3.5e-05 7.35e-05 1.65e-05 
37 1 1.93761e-06 4.39e-05 5.73e-05 2.05e-05 
18 1 1.6078e-06 2.14e-05 7.21e-05 2.12e-05 
12 1 1.93761e-06 4.15e-05 8.01e-05 2.66e-05 
47 1 1.57688e-06 3.44e-05 6.37e-05 2.89e-05 
7 1 1.46351e-06 3.8e-05 5.49e-05 3.02e-05 
1 1 1.83454e-06 2.58e-05 7.58e-05 3.89e-05 
46 1 1.4429e-06 1.35e-05 6e-05 4.17e-05 
22 1 1.87577e-06 3.58e-05 7.67e-05 4.49e-05 
24 1 1.47382e-06 8.93e-05 2.1e-05 2.18e-06 
15 1 1.70056e-06 6.25e-05 4.16e-06 5.51e-06 
42 1 1.58719e-06 9.11e-05 3.1e-05 1.05e-05 
8 1 1.70056e-06 8.07e-05 1.63e-05 1.94e-05 
29 1 1.51504e-06 7.12e-05 1.92e-05 2.2e-05 
27 1 1.51504e-06 7.2e-05 3.15e-05 2.19e-05 
20 1 1.78301e-06 6.38e-05 1.87e-05 2.37e-05 
40 1 1.5975e-06 5.45e-05 4.14e-05 2.91e-05 
2 1 1.69025e-06 8.64e-05 4.21e-05 4.02e-05 
28 1 1.917e-06 8.01e-05 3.58e-05 4.07e-05 
4 1 1.56658e-06 8.08e-05 2.81e-05 4.22e-05 
21 1 1.79332e-06 5.03e-05 3.69e-05 4.79e-05 
9 1 1.74179e-06 5.82e-05 5.08e-05 1.78e-06 
38 1 1.64903e-06 7.85e-05 6.82e-05 8.82e-06 
39 1 1.77271e-06 9.15e-05 6.02e-05 9.97e-06 
5 1 1.53566e-06 7.95e-05 5.29e-05 1e-05 
50 1 1.96853e-06 7.05e-05 7.09e-05 1.08e-05 
32 1 1.85516e-06 7.7e-05 5.9e-05 1.7e-05 
25 1 1.83454e-06 9.06e-05 7.49e-05 1.69e-05 
34 1 1.46351e-06 5.77e-05 9.47e-05 1.88e-05 
11 1 1.88608e-06 6.11e-05 8.52e-05 2.04e-05 
26 1 1.91699e-06 8.71e-05 6.09e-05 2.97e-05 
45 1 1.88608e-06 7.51e-05 8.41e-05 3.43e-05 
41 1 1.46351e-06 5.67e-05 6e-05 4.17e-05 
3 1 1.66964e-06 9.37e-05 9.27e-05 4.45e-05 
23 1 1.42229e-06 5.42e-05 5.44e-05 4.48e-05 
ITEM: TIMESTEP
600
ITEM: NUMBER OF ATOMS
51
ITEM: BOX BOUNDS ff ff ff
0.0000000000000000e+00 1.0000000000000000e-04
0.0000000000000000e+00 1.0000000000000000e-04
0.0000000000000000e+00 5.0000000000000002e-05
ITEM: ATOMS id type diameter x y z 
35 1 1.57606e-06 4.74e-05 4.33e-05 1.54e-05 
19 1 1.67975e-06 1.42e-05 2.65e-05 1.86e-05 
44 1 1.91823e-06 4.59e-05 6.34e-06 2.12e-05 
36 1 1.71086e-06 7.09e-06 1.19e-05 2.4e-05 
16 1 1.73159e-06 1.78e-06 2.56e-05 2.51e-05 
48 1 1.80418e-06 4.02e-05 2.97e-05 2.85e-05 
13 1 1.70049e-06 4.61e-05 7.31e-06 2.93e-05 
33 1 1.50348e-06 1.2e-05 4.61e-06 3.22e-05 
6 1 1.61754e-06 1.03e-05 9.23e-06 4.58e-05 
43 1 1.54496e-06 3.16e-05 3.33e-05 4.69e-05 
14 1 1.48274e-06 1.9e-06 5.25e-05 1.76e-06 
30 1 1.57606e-06 3.28e-05 5.19e-05 5.67e-06 
31 1 1.82491e-06 2.8e-05 8.8e-05 1.06e-05 
10 1 1.83528e-06 3.66e-05 5.76e-05 1.23e-05 
49 1 1.81454e-06 1.32e-05 8.87e-05 1.4e-05 
17 1 1.94934e-06 3.5e-05 7.35e-05 1.65e-05 
37 1 1.94934e-06 4.39e-05 5.73e-05 2.05e-05 
18 1 1.61754e-06 2.14e-05 7.21e-05 2.12e-05 
12 1 1.94934e-06 4.15e-05 8.01e-05 2.66e-05 
47 1 1.58643e-06 3.44e-05 6.37e-05 2.89e-05 
7 1 1.47237e-06 3.8e-05 5.49e-05 3.02e-05 
1 1 1.84565e-06 2.58e-05 7.58e-05 3.89e-05 
46 1 1.45164e-06 1.35e-05 6e-05 4.17e-05 
22 1 1.88713e-06 3.58e-05 7.67e-05 4.49e-05 
24 1 1.48274e-06 8.93e-05 2.1e-05 2.18e-06 
15 1 1.71086e-06 6.25e-05 4.16e-06 5.51e-06 
42 1 1.5968e-06 9.11e-05 3.1e-05 1.05e-05 
8 1 1.71086e-06 8.07e-05 1.63e-05 1.94e-05 
29 1 1.52422e-06 7.12e-05 1.92e-05 2.2e-05 
27 1 1.52422e-06 7.2e-05 3.15e-05 2.19e-05 
20 1 1.79381e-06 6.38e-05 1.87e-05 2.37e-05 
40 1 1.60717e-06 5.45e-05 4.14e-05 2.91e-05 
2 1 1.70049e-06 8.64e-05 4.21e-05 4.02e-05 
28 1 1.9286e-06 8.01e-05 3.58e-05 4.07e-05 
4 1 1.57606e-06 8.08e-05 2.81e-05 4.22e-05 
21 1 1.80418e-06 5.03e-05 3.69e-05 4.79e-05 
9 1 1.75233e-06 5.82e-05 5.08e-05 1.78e-06 
38 1 1.65901e-06 7.85e-05 6.82e-05 8.82e-06 
39 1 1.78344e-06 9.15e-05 6.02e-05 9.97e-06 
5 1 1.54496e-06 7.95e-05 5.29e-05 1e-05 
50 1 1.55442e-06 7.11427e-05 7.07524e-05 1.12097e-05 
32 1 1.86639e-06 7.7e-05 5.9e-05 1.7e-05 
25 1 1.84565e-06 9.06e-05 7.49e-05 1.69e-05 
34 1 1.47237e-06 5.77e-05 9.47e-05 1.88e-05 
51 1 1.58896e-06 6.9843e-05 7.10508e-05 1.03811e-05 
11 1 1.8975e-06 6.11e-05 8.52e-05 2.04e-05 
26 1 1.9286e-06 8.71e-05 6.09e-05 2.97e-05 
45 1 1.8975e-06 7.51e-05 8.41e-05 3.43e-05 
41 1 1.47237e-06 5.67e-05 6e-05 4.17e-05 
3 1 1.67975e-06 9.37e-05 9.27e-05 4.45e-05 
23 1 1.4309e-06 5.42e-05 5.44e-05 4.48e-05 
ITEM: TIMESTEP
700
ITEM: NUMBER OF ATOMS
51
ITEM: BOX BOUNDS ff ff ff
0.0000000000000000e+00 1.0000000000000000e-04
0.0000000000000000e+00 1.0000000000000000e-04
0.0000000000000000e+00 5.0000000000000002e-05
ITEM: ATOMS id type diameter x y z 
35 1 1.5856e-06 4.74e-05 4.33e-05 1.54e-05 
19 1 1.68992e-06 1.42e-05 2.65e-05 1.86e-05 
44 1 1.92985e-06 4.59e-05 6.34e-06 2.12e-05 
36 1 1.72122e-06 7.09e-06 1.19e-05 2.4e-05 
16 1 1.74208e-06 1.78e-06 2.56e-05 2.51e-05 
48 1 1.8151e-06 4.02e-05 2.97e-05 2.85e-05 
13 1 1.71078e-06 4.61e-05 7.31e-06 2.93e-05 
33 1 1.51258e-06 1.2e-05 4.61e-06 3.22e-05 
6 1 1.62733e-06 1.03e-05 9.23e-06 4.58e-05 
43 1 1.55431e-06 3.16e-05 3.33e-05 4.69e-05 
14 1 1.49172e-06 1.9e-06 5.25e-05 1.76e-06 
30 1 1.5856e-06 3.28e-05 5.19e-05 5.67e-06 
31 1 1.83596e-06 2.8e-05 8.8e-05 1.06e-05 
10 1 1.84639e-06 3.66e-05 5.76e-05 1.23e-05 
49 1 1.82553e-06 1.32e-05 8.87e-05 1.4e-05 
17 1 1.96114e-06 3.5e-05 7.35e-05 1.65e-05 
37 1 1.96114e-06 4.39e-05 5.73e-05 2.05e-05 
18 1 1.62733e-06 2.14e-05 7.21e-05 2.12e-05 
12 1 1.96114e-06 4.15e-05 8.01e-05 2.66e-05 
47 1 1.59604e-06 3.44e-05 6.37e-05 2.89e-05 
7 1 1.48129e-06 3.8e-05 5.49e-05 3.02e-05 
1 1 1.85683e-06 2.58e-05 7.58e-05 3.89e-05 
46 1 1.46043e-06 1.35e-05 6e-05 4.17e-05 
22 1 1.89855e-06 3.58e-05 7.67e-05 4.49e-05 
24 1 1.49172e-06 8.93e-05 2.1e-05 2.18e-06 
15 1 1.72122e-06 6.25e-05 4.16e-06 5.51e-06 
42 1 1.60647e-06 9.11e-05 3.1e-05 1.05e-05 
8 1 1.72122e-06 8.07e-05 1.63e-05 1.94e-05 
29 1 1.53345e-06 7.12e-05 1.92e-05 2.2e-05 
27 1 1.53345e-06 7.2e-05 3.15e-05 2.19e-05 
20 1 1.80467e-06 6.38e-05 1.87e-05 2.37e-05 
40 1 1.6169e-06 5.45e-05 4.14e-05 2.91e-05 
2 1 1.71078e-06 8.64e-05 4.21e-05 4.02e-05 
28 1 1.94028e-06 8.01e-05 3.58e-05 4.07e-05 
4 1 1.5856e-06 8.08e-05 2.81e-05 4.22e-05 
21 1 1.8151e-06 5.03e-05 3.69e-05 4.79e-05 
9 1 1.76294e-06 5.82e-05 5.08e-05 1.78e-06 
38 1 1.66906e-06 7.85e-05 6.82e-05 8.82e-06 
39 1 1.79424e-06 9.15e-05 6.02e-05 9.97e-06 
5 1 1.55431e-06 7.95e-05 5.29e-05 1e-05 
50 1 1.56383e-06 7.11427e-05 7.07524e-05 1.12097e-05 
32 1 1.87769e-06 7.7e-05 5.9e-05 1.7e-05 
25 1 1.85683e-06 9.06e-05 7.49e-05 1.69e-05 
34 1 1.48129e-06 5.77e-05 9.47e-05 1.88e-05 
51 1 1.59858e-06 6.9843e-05 7.10508e-05 1.03811e-05 
11 1 1.90898e-06 6.11e-05 8.52e-05 2.04e-05 
26 1 1.94028e-06 8.71e-05 6.09e-05 2.97e-05 
45 1 1.90898e-06 7.51e-05 8.41e-05 3.43e-05 
41 1 1.48129e-06 5.67e-05 6e-05 4.17e-05 
3 1 1.68992e-06 9.37e-05 9.27e-05 4.45e-05 
23 1 1.43956e-06 5.42e-05 5.44e-05 4.48e-05 
ITEM: TIMESTEP
800
ITEM: NUMBER OF ATOMS
54
ITEM: BOX BOUNDS ff ff ff
0.0000000000000000e+00 1.0000000000000000e-04
0.0000000000000000e+00 1.0000000000000000e-04
0.0000000000000000e+00 5.0000000000000002e-05
ITEM: ATOMS id type diameter x y z 
35 1 1.5952e-06 4.74e-05 4.33e-05 1.54e-05 
19 1 1.70015e-06 1.42e-05 2.65e-05 1.86e-05 
44 1 1.94153e-06 4.59e-05 6.34e-06 2.12e-05 
36 1 1.73164e-06 7.09e-06 1.19e-05 2.4e-05 
16 1 1.75263e-06 1.78e-06 2.56e-05 2.51e-05 
48 1 1.82609e-06 4.02e-05 2.97e-05 2.85e-05 
13 1 1.72114e-06 4.61e-05 7.31e-06 2.93e-05 
33 1 1.52174e-06 1.2e-05 4.61e-06 3.22e-05 
6 1 1.63718e-06 1.03e-05 9.23e-06 4.58e-05 
43 1 1.56372e-06 3.16e-05 3.33e-05 4.69e-05 
14 1 1.50075e-06 1.9e-06 5.25e-05 1.76e-06 
30 1 1.5952e-06 3.28e-05 5.19e-05 5.67e-06 
31 1 1.84708e-06 2.8e-05 8.8e-05 1.06e-05 
10 1 1.85757e-06 3.66e-05 5.76e-05 1.23e-05 
49 1 1.83658e-06 1.32e-05 8.87e-05 1.4e-05 
17 1 1.54859e-06 3.56403e-05 7.3353e-05 1.69082e-05 
52 1 1.583e-06 3.43454e-05 7.36503e-05 1.60827e-05 
37 1 1.54859e-06 4.45403e-05 5.7153e-05 2.09082e-05 
18 1 1.63718e-06 2.14e-05 7.21e-05 2.12e-05 
12 1 1.50326e-06 4.09177e-05 8.0507e-05 2.6357e-05 
47 1 1.6057e-06 3.44e-05 6.37e-05 2.89e-05 
7 1 1.49026e-06 3.8e-05 5.49e-05 3.02e-05 
1 1 1.86807e-06 2.58e-05 7.58e-05 3.89e-05 
46 1 1.46927e-06 1.35e-05 6e-05 4.17e-05 
22 1 1.91005e-06 3.58e-05 7.67e-05 4.49e-05 
53 1 1.583e-06 4.32454e-05 5.74503e-05 2.00827e-05 
54 1 1.62405e-06 4.21291e-05 7.96603e-05 2.68625e-05 
24 1 1.50075e-06 8.93e-05 2.1e-05 2.18e-06 
15 1 1.73164e-06 6.25e-05 4.16e-06 5.51e-06 
42 1 1.61619e-06 9.11e-05 3.1e-05 1.05e-05 
8 1 1.73164e-06 8.07e-05 1.63e-05 1.94e-05 
29 1 1.54273e-06 7.12e-05 1.92e-05 2.2e-05 
27 1 1.54273e-06 7.2e-05 3.15e-05 2.19e-05 
20 1 1.81559e-06 6.38e-05 1.87e-05 2.37e-05 
40 1 1.62669e-06 5.45e-05 4.14e-05 2.91e-05 
2 1 1.72114e-06 8.64e-05 4.21e-05 4.02e-05 
28 1 1.95203e-06 8.01e-05 3.58e-05 4.07e-05 
4 1 1.5952e-06 8.08e-05 2.81e-05 4.22e-05 
21 1 1.82609e-06 5.03e-05 3.69e-05 4.79e-05 
9 1 1.77362e-06 5.82e-05 5.08e-05 1.78e-06 
38 1 1.67916e-06 7.85e-05 6.82e-05 8.82e-06 
39 1 1.8051e-06 9.15e-05 6.02e-05 9.97e-06 
5 1 1.56372e-06 7.95e-05 5.29e-05 1e-05 
50 1 1.5733e-06 7.11427e-05 7.07524e-05 1.12097e-05 
32 1 1.88906e-06 7.7e-05 5.9e-05 1.7e-05 
25 1 1.86807e-06 9.06e-05 7.49e-05 1.69e-05 
34 1 1.49026e-06 5.77e-05 9.47e-05 1.88e-05 
51 1 1.60826e-06 6.9843e-05 7.10508e-05 1.03811e-05 
11 1 1.92054e-06 6.11e-05 8.52e-05 2.04e-05 
26 1 1.95203e-06 8.71e-05 6.09e-05 2.97e-05 
45 1 1.92054e-06 7.51e-05 8.41e-05 3.43e-05 
41 1 1.49026e-06 5.67e-05 6e-05 4.17e-05 
3 1 1.70015e-06 9.37e-05 9.27e-05 4.45e-05 
23 1 1.44828e-06 5.42e-05 5.44e-05 4.48e-05 
ITEM: TIMESTEP
900
ITEM: NUMBER OF ATOMS
54
ITEM: BOX BOUNDS ff ff ff
0.0000000000000000e+00 1.0000000000000000e-04
0.0000000000000000e+00 1.0000000000000000e-04
0.0000000000000000e+00 5.0000000000000002e-05
ITEM: ATOMS id type diameter x y z 
35 1 1.60486e-06 4.74e-05 4.33e-05 1.54e-05 
19 1 1.71045e-06 1.42e-05 2.65e-05 1.86e-05 
44 1 1.95329e-06 4.59e-05 6.34e-06 2.12e-05 
36 1 1.74212e-06 7.09e-06 1.19e-05 2.4e-05 
16 1 1.76324e-06 1.78e-06 2.56e-05 2.51e-05 
48 1 1.83715e-06 4.02e-05 2.97e-05 2.85e-05 
13 1 1.73156e-06 4.61e-05 7.31e-06 2.93e-05 
33 1 1.53096e-06 1.2e-05 4.61e-06 3.22e-05 
6 1 1.6471e-06 1.03e-05 9.23e-06 4.58e-05 
43 1 1.57319e-06 3.16e-05 3.33e-05 4.69e-05 
14 1 1.50984e-06 1.9e-06 5.25e-05 1.76e-06 
30 1 1.60486e-06 3.28e-05 5.19e-05 5.67e-06 
31 1 1.85826e-06 2.8e-05 8.8e-05 1.06e-05 
10 1 1.86882e-06 3.66e-05 5.76e-05 1.23e-05 
49 1 1.8477e-06 1.32e-05 8.87e-05 1.4e-05 
17 1 1.55797e-06 3.56403e-05 7.3353e-05 1.69082e-05 
52 1 1.59258e-06 3.43454e-05 7.36503e-05 1.60827e-05 
37 1 1.55797e-06 4.45403e-05 5.7153e-05 2.09082e-05 
18 1 1.6471e-06 2.14e-05 7.21e-05 2.12e-05 
12 1 1.51237e-06 4.09177e-05 8.0507e-05 2.6357e-05 
47 1 1.61542e-06 3.44e-05 6.37e-05 2.89e-05 
7 1 1.49928e-06 3.8e-05 5.49e-05 3.02e-05 
1 1 1.87938e-06 2.58e-05 7.58e-05 3.89e-05 
46 1 1.47816e-06 1.35e-05 6e-05 4.17e-05 
22 1 1.92161e-06 3.58e-05 7.67e-05 4.49e-05 
53 1 1.59258e-06 4.32454e-05 5.74503e-05 2.00827e-05 
54 1 1.63388e-06 4.21291e-05 7.96603e-05 2.68625e-05 
24 1 1.50984e-06 8.93e-05 2.1e-05 2.18e-06 
15 1 1.74212e-06 6.25e-05 4.16e-06 5.51e-06 
42 1 1.62598e-06 9.11e-05 3.1e-05 1.05e-05 
8 1 1.74212e-06 8.07e-05 1.63e-05 1.94e-05 
29 1 1.55207e-06 7.12e-05 1.92e-05 2.2e-05 
27 1 1.55207e-06 7.2e-05 3.15e-05 2.19e-05 
20 1 1.82659e-06 6.38e-05 1.87e-05 2.37e-05 
40 1 1.63654e-06 5.45e-05 4.14e-05 2.91e-05 
2 1 1.73156e-06 8.64e-05 4.21e-05 4.02e-05 
28 1 1.96385e-06 8.01e-05 3.58e-05 4.07e-05 
4 1 1.60486e-06 8.08e-05 2.81e-05 4.22e-05 
21 1 1.83715e-06 5.03e-05 3.69e-05 4.79e-05 
9 1 1.78435e-06 5.82e-05 5.08e-05 1.78e-06 
38 1 1.68933e-06 7.85e-05 6.82e-05 8.82e-06 
39 1 1.81603e-06 9.15e-05 6.02e-05 9.97e-06 
5 1 1.57319e-06 7.95e-05 5.29e-05 1e-05 
50 1 1.58283e-06 7.11593e-05 7.07486e-05 1.12203e-05 
32 1 1.9005e-06 7.7e-05 5.9e-05 1.7e-05 
25 1 1.87938e-06 9.06e-05 7.49e-05 1.69e-05 
34 1 1.49928e-06 5.77e-05 9.47e-05 1.88e-05 
51 1 1.618e-06 6.98264e-05 7.10546e-05 1.03706e-05 
11 1 1.93217e-06 6.11e-05 8.52e-05 2.04e-05 
26 1 1.96385e-06 8.71e-05 6.09e-05 2.97e-05 
45 1 1.93217e-06 7.51e-05 8.41e-05 3.43e-05 
41 1 1.49928e-06 5.67e-05 6e-05 4.17e-05 
3 1 1.71045e-06 9.37e-05 9.27e-05 4.45e-05 
23 1 1.45705e-06 5.42e-05 5.44e-05 4.48e-05 
ITEM: TIMESTEP
1000
ITEM: NUMBER OF ATOMS
56
ITEM: BOX BOUNDS ff ff ff
0.0000000000000000e+00 1.0000000000000000e-04
0.0000000000000000e+00 1.0000000000000000e-04
0.0000000000000000e+00 5.0000000000000002e-05
ITEM: ATOMS id type diameter x y z 
35 1 1.61458e-06 4.74e-05 4.33e-05 1.54e-05 
19 1 1.7208e-06 1.42e-05 2.65e-05 1.86e-05 
44 1 1.96511e-06 4.59e-05 6.34e-06 2.12e-05 
36 1 1.75267e-06 7.09e-06 1.19e-05 2.4e-05 
16 1 1.77391e-06 1.78e-06 2.56e-05 2.51e-05 
48 1 1.84827e-06 4.02e-05 2.97e-05 2.85e-05 
13 1 1.74205e-06 4.61e-05 7.31e-06 2.93e-05 
33 1 1.54022e-06 1.2e-05 4.61e-06 3.22e-05 
6 1 1.65707e-06 1.03e-05 9.23e-06 4.58e-05 
43 1 1.58271e-06 3.16e-05 3.33e-05 4.69e-05 
14 1 1.51898e-06 1.9e-06 5.25e-05 1.76e-06 
30 1 1.61458e-06 3.28e-05 5.19e-05 5.67e-06 
31 1 1.86951e-06 2.8e-05 8.8e-05 1.06e-05 
10 1 1.88014e-06 3.66e-05 5.76e-05 1.23e-05 
49 1 1.85889e-06 1.32e-05 8.87e-05 1.4e-05 
52 1 1.60223e-06 3.43454e-05 7.36503e-05 1.60827e-05 
17 1 1.5674e-06 3.56403e-05 7.3353e-05 1.69082e-05 
53 1 1.60223e-06 4.32454e-05 5.74503e-05 2.00827e-05 
37 1 1.5674e-06 4.45403e-05 5.7153e-05 2.09082e-05 
18 1 1.65707e-06 2.14e-05 7.21e-05 2.12e-05 
12 1 1.52152e-06 4.09177e-05 8.0507e-05 2.6357e-05 
54 1 1.64377e-06 4.21291e-05 7.96603e-05 2.68625e-05 
47 1 1.6252e-06 3.44e-05 6.37e-05 2.89e-05 
7 1 1.50836e-06 3.8e-05 5.49e-05 3.02e-05 
1 1 1.89076e-06 2.58e-05 7.58e-05 3.89e-05 
46 1 1.48711e-06 1.35e-05 6e-05 4.17e-05 
22 1 1.93325e-06 3.58e-05 7.67e-05 4.49e-05 
24 1 1.51898e-06 8.93e-05 2.1e-05 2.18e-06 
15 1 1.75267e-06 6.25e-05 4.16e-06 5.51e-06 
42 1 1.63582e-06 9.11e-05 3.1e-05 1.05e-05 
8 1 1.75267e-06 8.07e-05 1.63e-05 1.94e-05 
29 1 1.56147e-06 7.12e-05 1.92e-05 2.2e-05 
27 1 1.56147e-06 7.2e-05 3.15e-05 2.19e-05 
20 1 1.83765e-06 6.38e-05 1.87e-05 2.37e-05 
40 1 1.64645e-06 5.45e-05 4.14e-05 2.91e-05 
55 1 1.58518e-06 7.94445e-05 3.59505e-05 4.02821e-05 
2 1 1.74205e-06 8.64e-05 4.21e-05 4.02e-05 
28 1 1.55073e-06 8.07412e-05 3.56528e-05 4.11088e-05 
4 1 1.61458e-06 8.08e-05 2.81e-05 4.22e-05 
21 1 1.84827e-06 5.03e-05 3.69e-05 4.79e-05 
9 1 1.79516e-06 5.82e-05 5.08e-05 1.78e-06 
38 1 1.69956e-06 7.85e-05 6.82e-05 8.82e-06 
39 1 1.82703e-06 9.15e-05 6.02e-05 9.97e-06 
5 1 1.58271e-06 7.95e-05 5.29e-05 1e-05 
51 1 1.62779e-06 6.98264e-05 7.10546e-05 1.03706e-05 
50 1 1.59241e-06 7.11593e-05 7.07486e-05 1.12203e-05 
32 1 1.912e-06 7.7e-05 5.9e-05 1.7e-05 
25 1 1.89076e-06 9.06e-05 7.49e-05 1.69e-05 
34 1 1.50836e-06 5.77e-05 9.47e-05 1.88e-05 
11 1 1.94387e-06 6.11e-05 8.52e-05 2.04e-05 
56 1 1.58518e-06 8.64445e-05 6.10505e-05 2.92821e-05 
26 1 1.55073e-06 8.77412e-05 6.07528e-05 3.01088e-05 
45 1 1.94387e-06 7.51e-05 8.41e-05 3.43e-05 
41 1 1.50836e-06 5.67e-05 6e-05 4.17e-05 
3 1 1.7208e-06 9.37e-05 9.27e-05 4.45e-05 
23 1 1.46587e-06 5.42e-05 5.44e-05 4.48e-05 
ITEM: TIMESTEP
1100
ITEM: NUMBER OF ATOMS
57
ITEM: BOX BOUNDS ff ff ff
0.0000000000000000e+00 1.0000000000000000e-04
0.0000000000000000e+00 1.0000000000000000e-04
0.0000000000000000e+00 5.0000000000000002e-05
ITEM: ATOMS id type diameter x y z 
35 1 1.62436e-06 4.74e-05 4.33e-05 1.54e-05 
19 1 1.73122e-06 1.42e-05 2.65e-05 1.86e-05 
44 1 1.55173e-06 4.65416e-05 6.19269e-06 2.1609e-05 
36 1 1.76328e-06 7.09e-06 1.19e-05 2.4e-05 
16 1 1.78465e-06 1.78e-06 2.56e-05 2.51e-05 
48 1 1.85946e-06 4.02e-05 2.97e-05 2.85e-05 
13 1 1.75259e-06 4.61e-05 7.31e-06 2.93e-05 
33 1 1.54955e-06 1.2e-05 4.61e-06 3.22e-05 
6 1 1.6671e-06 1.03e-05 9.23e-06 4.58e-05 
43 1 1.5923e-06 3.16e-05 3.33e-05 4.69e-05 
57 1 1.58621e-06 4.52441e-05 6.49059e-06 2.07819e-05 
14 1 1.52818e-06 1.9e-06 5.25e-05 1.76e-06 
30 1 1.62436e-06 3.28e-05 5.19e-05 5.67e-06 
31 1 1.88083e-06 2.8e-05 8.8e-05 1.06e-05 
10 1 1.89152e-06 3.66e-05 5.76e-05 1.23e-05 
49 1 1.87015e-06 1.32e-05 8.87e-05 1.4e-05 
52 1 1.61193e-06 3.43289e-05 7.36541e-05 1.60722e-05 
17 1 1.57689e-06 3.56569e-05 7.33492e-05 1.69188e-05 
53 1 1.61193e-06 4.32289e-05 5.74541e-05 2.00722e-05 
37 1 1.57689e-06 4.45569e-05 5.71492e-05 2.09188e-05 
18 1 1.6671e-06 2.14e-05 7.21e-05 2.12e-05 
12 1 1.53074e-06 4.09022e-05 8.05179e-05 2.63505e-05 
54 1 1.65372e-06 4.21446e-05 7.96494e-05 2.6869e-05 
47 1 1.63504e-06 3.44e-05 6.37e-05 2.89e-05 
7 1 1.51749e-06 3.8e-05 5.49e-05 3.02e-05 
1 1 1.90221e-06 2.58e-05 7.58e-05 3.89e-05 
46 1 1.49612e-06 1.35e-05 6e-05 4.17e-05 
22 1 1.94495e-06 3.58e-05 7.67e-05 4.49e-05 
24 1 1.52818e-06 8.93e-05 2.1e-05 2.18e-06 
15 1 1.76328e-06 6.25e-05 4.16e-06 5.51e-06 
42 1 1.64573e-06 9.11e-05 3.1e-05 1.05e-05 
8 1 1.76328e-06 8.07e-05 1.63e-05 1.94e-05 
29 1 1.57092e-06 7.12e-05 1.92e-05 2.2e-05 
27 1 1.57092e-06 7.2e-05 3.15e-05 2.19e-05 
20 1 1.84877e-06 6.38e-05 1.87e-05 2.37e-05 
40 1 1.65642e-06 5.45e-05 4.14e-05 2.91e-05 
55 1 1.59478e-06 7.94445e-05 3.59505e-05 4.02821e-05 
2 1 1.75259e-06 8.64e-05 4.21e-05 4.02e-05 
28 1 1.56012e-06 8.07412e-05 3.56528e-05 4.11088e-05 
4 1 1.62436e-06 8.08e-05 2.81e-05 4.22e-05 
21 1 1.85946e-06 5.03e-05 3.69e-05 4.79e-05 