 NUFEB Simulation

     50 atoms 
     2 atom types 
     4 nutrients 

  0.0e-4   1.00e-04  xlo xhi 
  0.0e-4   1.00e-04  ylo yhi 
  0.0e-4   5.00e-05  zlo zhi 

 Atoms 

     1 1 1.87e-06  370 3.72e-06 6.75e-05 3.27e-05 1.87e-06 
     2 1 1.78e-06  370 2.92e-05 3.47e-05 1.30e-05 1.78e-06 
     3 1 1.91e-06  370 5.53e-05 1.90e-05 6.25e-06 1.91e-06 
     4 1 1.53e-06  370 7.33e-06 4.62e-05 6.87e-06 1.53e-06 
     5 1 1.71e-06  370 3.59e-05 7.84e-05 2.62e-05 1.71e-06 
     6 1 1.59e-06  370 5.34e-05 4.74e-05 2.48e-05 1.59e-06 
     7 1 1.85e-06  370 7.65e-05 9.58e-05 1.39e-05 1.85e-06 
     8 1 1.80e-06  370 4.39e-05 6.57e-05 4.10e-05 1.80e-06 
     9 1 1.38e-06  370 7.21e-05 4.65e-05 2.81e-05 1.38e-06 
     10 1 1.70e-06  370 8.76e-05 2.15e-05 2.83e-06 1.70e-06 
     11 1 1.67e-06  370 4.06e-05 5.32e-05 4.62e-05 1.67e-06 
     12 1 1.76e-06  370 8.77e-05 8.47e-05 3.59e-05 1.76e-06 
     13 1 1.46e-06  370 9.53e-05 4.09e-05 4.00e-06 1.46e-06 
     14 1 1.54e-06  370 1.04e-05 6.54e-06 1.98e-05 1.54e-06 
     15 1 1.54e-06  370 8.49e-05 3.72e-05 2.50e-05 1.54e-06 
     16 1 1.90e-06  370 3.73e-05 2.76e-05 2.33e-05 1.90e-06 
     17 1 1.44e-06  370 3.79e-05 9.31e-05 4.24e-05 1.44e-06 
     18 1 1.66e-06  370 2.17e-05 6.61e-05 3.56e-05 1.66e-06 
     19 1 1.76e-06  370 4.69e-05 4.49e-06 2.95e-05 1.76e-06 
     20 1 1.72e-06  370 8.13e-05 3.66e-05 1.56e-05 1.72e-06 
     21 1 1.84e-06  370 8.65e-05 4.71e-05 2.95e-05 1.84e-06 
     22 1 1.70e-06  370 3.89e-05 2.66e-05 3.04e-05 1.70e-06 
     23 1 1.77e-06  370 5.44e-05 8.11e-05 2.30e-05 1.77e-06 
     24 1 1.54e-06  370 8.12e-05 8.32e-05 2.77e-05 1.54e-06 
     25 1 1.50e-06  370 6.18e-05 4.58e-05 4.61e-05 1.50e-06 
     26 1 1.82e-06  370 2.87e-06 5.26e-05 2.73e-05 1.82e-06 
     27 1 1.85e-06  370 2.68e-06 6.92e-05 8.02e-06 1.85e-06 
     28 1 1.64e-06  370 7.96e-05 3.52e-05 4.30e-05 1.64e-06 
     29 1 1.47e-06  370 3.24e-05 7.97e-05 3.63e-05 1.47e-06 
     30 1 1.71e-06  370 7.52e-05 3.24e-05 2.77e-05 1.71e-06 
     31 1 1.71e-06  370 5.14e-05 4.57e-06 4.74e-05 1.71e-06 
     32 1 1.71e-06  370 3.76e-05 3.10e-05 4.61e-05 1.71e-06 
     33 1 1.87e-06  370 1.10e-05 6.62e-05 1.72e-05 1.87e-06 
     34 1 1.47e-06  370 2.61e-05 5.86e-05 3.55e-06 1.47e-06 
     35 1 1.50e-06  370 9.33e-05 3.96e-05 3.07e-05 1.50e-06 
     36 1 1.52e-06  370 6.38e-05 6.54e-05 4.63e-06 1.52e-06 
     37 1 1.64e-06  370 8.06e-05 1.03e-05 3.62e-05 1.64e-06 
     38 1 1.85e-06  370 7.41e-05 1.09e-05 1.79e-05 1.85e-06 
     39 1 1.57e-06  370 5.14e-05 3.18e-05 1.25e-05 1.57e-06 
     40 1 1.73e-06  370 5.39e-05 3.21e-05 3.25e-05 1.73e-06 
     41 1 1.84e-06  370 9.79e-05 4.89e-05 2.09e-05 1.84e-06 
     42 1 1.88e-06  370 2.07e-05 2.51e-05 3.00e-05 1.88e-06 
     43 1 1.71e-06  370 2.92e-05 2.39e-05 2.70e-05 1.71e-06 
     44 1 1.92e-06  370 5.58e-05 5.10e-05 1.35e-05 1.92e-06 
     45 1 1.48e-06  370 5.30e-06 8.97e-05 2.62e-05 1.48e-06 
     46 1 1.90e-06  370 4.35e-05 2.65e-05 1.48e-05 1.90e-06 
     47 1 1.63e-06  370 5.31e-05 3.91e-05 2.26e-05 1.63e-06 
     48 1 1.56e-06  370 8.13e-05 7.76e-05 4.50e-05 1.56e-06 
     49 1 1.61e-06  370 3.15e-05 3.85e-05 2.83e-05 1.61e-06 
     50 1 1.92e-06  370 7.88e-05 1.85e-05 3.25e-06 1.92e-06 

 Nutrients 

     1 sub g nn nn nn 1.00e-01 1.00e-01 
     2 o2 l nn nn nd 9.00e-03 9.00e-03 
     3 suc l nn nn nn 3.42e-20 3.42e-20 
     4 co2 l nn nn nd 2.99e-02 2.99e-02 

 Type Name 

     1 cyano  
     2 ecw  

 Diffusion Coeffs 

     sub 0 
     o2 2.3e-09 
     suc 5.2e-10 
     co2 1.9e-09 

 Growth Rate 

     cyano 2.047e-05 
     ecw 6.71e-05 

 Ks 

     cyano 0.00035 0.0002 0.01 0.000138 
     ecw 0 0.001 3.6 0.05 

 Yield 

     cyano 0.55 
     ecw 0.43 

 Maintenance 

     cyano 0 
     ecw 9.5e-07 

 Decay 

     cyano 0 
     ecw 0 



