LAMMPS (20 Nov 2019)
Reading data file ...
  orthogonal box = (0 0 0) to (0.001 0.001 0.0001)
  2 by 3 by 1 MPI processor grid
  reading atoms ...
  2 atoms
  4 nutrients
Lattice spacing in x,y,z = 100 100 100
1 atoms in group CYANO
1 atoms in group ECW
Model is defined as a closed system. 
Neighbor list info ...
  update every 1 steps, delay 0 steps, check yes
  max neighbors/atom: 5000, page size: 100000
  master list distance cutoff = 1.89e-06
  ghost atom cutoff = 1.89e-06
  binsize = 9.45e-07, bins = 1059 1059 106
  1 neighbor lists, perpetual/occasional/extra = 1 0 0
  (1) pair gran/hooke/history, perpetual
      attributes: half, newton off, size, history
      pair build: half/size/bin/newtoff
      stencil: half/bin/3d/newtoff
      bin: standard
Setting up Verlet run ...
  Unit style    : lj
  Current step  : 0
  Time step     : 10
Per MPI rank memory allocation (min/avg/max) = 84.25 | 92.35 | 108.5 Mbytes
Step CPU Atoms c_myNtypes[1] c_myNtypes[2] c_myMass[1] c_myMass[2] c_myCon[1] c_myCon[2] c_myCon[3] c_myCon[4] 
       0            0        2            1            1 5.2028912e-16 1.3941014e-16          0.1        0.009     3.42e-20       0.0299 
number of iterations: 578270 
     100    3.4552712        3            1            2 5.2906563e-16 1.3929094e-16          0.1 0.0090000007 2.974017e-08  0.029899999 
number of iterations: 265337 
     200    5.0281066        3            1            2 5.3799018e-16 1.3917185e-16          0.1 0.0090000007 1.2273941e-07  0.029899999 
number of iterations: 172173 
     300     6.136836        3            1            2 5.4706527e-16 1.3905286e-16          0.1 0.0090000007 2.6791949e-07  0.029899999 
number of iterations: 147091 
     400    7.1060464        3            1            2 5.5629345e-16 1.3893397e-16          0.1 0.0090000007 4.3528154e-07  0.029899999 
number of iterations: 128083 
     500    7.9637079        3            1            2 5.6567729e-16 1.3881518e-16          0.1 0.0090000007 6.2301067e-07  0.029899999 
number of iterations: 113082 
     600    8.7423107        3            1            2 5.7521943e-16 1.3869649e-16          0.1 0.0090000008 8.2965189e-07  0.029899999 
number of iterations: 100862 
     700    9.4652636        3            1            2 5.8492252e-16 1.3857791e-16          0.1 0.0090000008 1.0540483e-06  0.029899999 
number of iterations: 90654 
     800    10.112884        3            1            2 5.947893e-16 1.3845943e-16          0.1 0.0090000008 1.2952792e-06  0.029899999 
number of iterations: 81956 
     900    10.683717        3            1            2 6.0482251e-16 1.3834105e-16          0.1 0.0090000008 1.5526048e-06  0.029899999 
number of iterations: 74423 
    1000    11.633987        3            1            2 6.1502496e-16 1.3822277e-16          0.1 0.0090000008 1.8254285e-06  0.029899999 
number of iterations: 67812 
    1100    12.144905        3            1            2 6.2539952e-16 1.3810459e-16          0.1 0.0090000008 2.1132661e-06  0.029899999 
number of iterations: 61944 
    1200    12.614472        3            1            2 6.3594908e-16 1.3798652e-16          0.1 0.0090000008 2.4157257e-06  0.029899999 
number of iterations: 56688 
    1300    13.058215        3            1            2 6.4667659e-16 1.3786855e-16          0.1 0.0090000009 2.7324862e-06  0.029899999 
number of iterations: 51940 
    1400    13.472239        3            1            2 6.5758507e-16 1.3775068e-16          0.1 0.0090000009 3.0632913e-06  0.029899999 
number of iterations: 47622 
    1500    13.864023        3            1            2 6.6867755e-16 1.3763291e-16          0.1 0.0090000009 3.4079333e-06  0.029899999 
number of iterations: 43672 
    1600    14.237972        3            1            2 6.7995714e-16 1.3751524e-16          0.1 0.0090000009 3.7662456e-06  0.029899999 
number of iterations: 40039 
    1700    14.584555        3            1            2 6.9142701e-16 1.3739767e-16          0.1 0.0090000009 4.1380994e-06  0.029899999 
number of iterations: 36682 
    1800    14.913239        3            1            2 7.0309035e-16 1.3728021e-16          0.1 0.0090000009 4.5233966e-06  0.029899998 
number of iterations: 33567 
    1900    15.223698        3            1            2 7.1495044e-16 1.3716284e-16          0.1  0.009000001 4.922067e-06  0.029899998 
number of iterations: 30666 
    2000    15.914723        3            1            2 7.2701059e-16 1.3704558e-16          0.1  0.009000001 5.3340636e-06  0.029899998 
number of iterations: 27955 
    2100    16.193026        3            1            2 7.3927418e-16 1.3692842e-16          0.1  0.009000001 5.7593613e-06  0.029899998 
number of iterations: 25414 
    2200    16.441152        3            1            2 7.5174464e-16 1.3681136e-16          0.1  0.009000001 6.1979535e-06  0.029899998 
number of iterations: 23027 
    2300    16.683607        3            1            2 7.6442545e-16 1.366944e-16          0.1  0.009000001 6.6498479e-06  0.029899998 
number of iterations: 20777 
    2400    16.934258        3            1            2 7.7732017e-16 1.3657754e-16          0.1  0.009000001 7.1150727e-06  0.029899998 
number of iterations: 18653 
    2500    17.178419        3            1            2 7.9043241e-16 1.3646078e-16          0.1 0.0090000011 7.5936656e-06  0.029899998 
number of iterations: 16643 
    2600     17.40323        3            1            2 8.0376583e-16 1.3634412e-16          0.1 0.0090000011 8.0856793e-06  0.029899998 
number of iterations: 14737 
    2700    17.601189        3            1            2 8.1732416e-16 1.3622757e-16          0.1 0.0090000011 8.5911788e-06  0.029899998 
number of iterations: 12927 
    2800    17.797664        3            1            2 8.311112e-16 1.3611111e-16          0.1 0.0090000011 9.1102385e-06  0.029899998 
number of iterations: 11205 
    2900    17.985373        3            1            2 8.4513081e-16 1.3599476e-16          0.1 0.0090000011 9.6429442e-06  0.029899998 
number of iterations: 9565 
    3000    18.573653        3            1            2 8.5938691e-16 1.3587851e-16          0.1 0.0090000012 1.0189389e-05  0.029899998 
number of iterations: 7999 
    3100    18.738511        3            1            2 8.7388349e-16 1.3576235e-16          0.1 0.0090000012 1.074968e-05  0.029899998 
number of iterations: 7626 
    3200    18.893821        3            1            2 8.8862461e-16 1.356463e-16          0.1 0.0090000012 1.1323928e-05  0.029899998 
number of iterations: 7710 
    3300    19.042117        3            1            2 9.0361438e-16 1.3553035e-16          0.1 0.0090000012 1.1912255e-05  0.029899998 
number of iterations: 7794 
    3400    19.194483        3            1            2 9.1885701e-16 1.354145e-16          0.1 0.0090000012 1.2514786e-05  0.029899998 
number of iterations: 7879 
    3500    19.338906        3            1            2 9.3435676e-16 1.3529875e-16          0.1 0.0090000013 1.3131659e-05  0.029899998 
number of iterations: 7965 
    3600    19.472362        3            1            2 9.5011797e-16 1.351831e-16          0.1 0.0090000013 1.3763018e-05  0.029899998 
number of iterations: 8051 
    3700    19.607959        3            1            2 9.6614505e-16 1.3506755e-16          0.1 0.0090000013 1.4408742e-05  0.029899998 
number of iterations: 8138 
    3800    19.737942        3            1            2 9.8244248e-16 1.349521e-16          0.1 0.0090000013 1.5065358e-05  0.029899998 
number of iterations: 8225 
    3900    19.880364        3            1            2 9.9901482e-16 1.3483675e-16          0.1 0.0090000013 1.573305e-05  0.029899998 
number of iterations: 8313 
    4000    20.464645        3            1            2 1.0158667e-15 1.347215e-16          0.1 0.0090000014 1.6412005e-05  0.029899998 
number of iterations: 8402 
    4100    20.614541        3            1            2 1.0330029e-15 1.3460635e-16          0.1 0.0090000014 1.7102413e-05  0.029899998 
number of iterations: 8491 
    4200    20.764408        3            1            2 1.0504281e-15 1.344913e-16          0.1 0.0090000014 1.7804467e-05  0.029899998 
number of iterations: 8581 
    4300    20.907449        3            1            2 1.0681473e-15 1.3437635e-16          0.1 0.0090000014 1.8518364e-05  0.029899998 
number of iterations: 8671 
    4400    21.057523        3            1            2 1.0861653e-15 1.342615e-16          0.1 0.0090000015 1.9244303e-05  0.029899998 
number of iterations: 8761 
    4500    21.218369        3            1            2 1.1044873e-15 1.3414675e-16          0.1 0.0090000015 1.9982487e-05  0.029899998 
number of iterations: 8853 
    4600     21.36513        3            1            2 1.1231184e-15 1.340321e-16          0.1 0.0090000015 2.0733124e-05  0.029899998 
number of iterations: 8945 
    4700    21.504672        3            1            2 1.1420637e-15 1.3391754e-16          0.1 0.0090000015 2.1496422e-05  0.029899997 
number of iterations: 9037 
    4800      21.6494        3            1            2 1.1613286e-15 1.3380309e-16          0.1 0.0090000016 2.2272597e-05  0.029899997 
number of iterations: 9130 
    4900    21.805372        3            1            2 1.1809185e-15 1.3368874e-16          0.1 0.0090000016 2.3061864e-05  0.029899997 
number of iterations: 9224 
    5000    22.398383        3            1            2 1.2008388e-15 1.3357449e-16          0.1 0.0090000016 2.3864445e-05  0.029899997 
number of iterations: 9318 
    5100    22.545101        3            1            2 1.2210952e-15 1.3346034e-16          0.1 0.0090000016 2.4680564e-05  0.029899997 
number of iterations: 9413 
    5200    22.693965        3            1            2 1.2416933e-15 1.3334628e-16          0.1 0.0090000017 2.551045e-05  0.029899997 
number of iterations: 9508 
    5300    22.848949        3            1            2 1.2626388e-15 1.3323233e-16          0.1 0.0090000017 2.6354335e-05  0.029899997 
number of iterations: 9604 
    5400    22.990297        3            1            2 1.2839376e-15 1.3311847e-16          0.1 0.0090000017 2.7212455e-05  0.029899997 
number of iterations: 9700 
    5500    23.144533        3            1            2 1.3055957e-15 1.3300472e-16          0.1 0.0090000018 2.8085051e-05  0.029899997 
number of iterations: 9797 
    5600    23.303246        3            1            2 1.3276192e-15 1.3289106e-16          0.1 0.0090000018 2.897237e-05  0.029899997 
number of iterations: 9895 
    5700    23.458844        3            1            2 1.3500142e-15 1.3277751e-16          0.1 0.0090000018 2.9874657e-05  0.029899997 
number of iterations: 9993 
    5800    23.612193        3            1            2 1.3727869e-15 1.3266405e-16          0.1 0.0090000019 3.0792164e-05  0.029899997 
number of iterations: 10091 
    5900    23.781118        3            1            2 1.3959438e-15 1.3255069e-16          0.1 0.0090000019 3.1725148e-05  0.029899997 
number of iterations: 10190 
    6000    24.376388        3            1            2 1.4194913e-15 1.3243743e-16          0.1 0.0090000019 3.267387e-05  0.029899997 
number of iterations: 10290 
    6100    24.535403        3            1            2 1.443436e-15 1.3232427e-16          0.1  0.009000002 3.3638595e-05  0.029899997 
number of iterations: 10390 
    6200    24.693548        3            1            2 1.4677846e-15 1.322112e-16          0.1  0.009000002 3.4619594e-05  0.029899997 
number of iterations: 29990 
    6300    25.075325        4            2            2 1.4925439e-15 1.3209824e-16          0.1 0.0090000019 3.5617139e-05  0.029899997 
number of iterations: 5978 
    6400    25.213072        4            2            2 1.5177209e-15 1.3198537e-16          0.1 0.0090000019 3.663151e-05  0.029899997 
number of iterations: 7336 
    6500    25.352836        4            2            2 1.5433226e-15 1.3187261e-16          0.1 0.0090000019 3.7662993e-05  0.029899997 
number of iterations: 7714 
    6600    25.498275        4            2            2 1.5693562e-15 1.3175994e-16          0.1  0.009000002 3.8711874e-05  0.029899997 
number of iterations: 7945 
    6700    25.637965        4            2            2 1.5958289e-15 1.3164737e-16          0.1  0.009000002 3.977845e-05  0.029899997 
number of iterations: 8400 
    6800    25.775336        4            2            2 1.6227481e-15 1.315349e-16          0.1  0.009000002 4.0863016e-05  0.029899997 
number of iterations: 8536 
    6900    25.916329        4            2            2 1.6501215e-15 1.3142253e-16          0.1 0.0090000021 4.1965878e-05  0.029899997 
number of iterations: 8647 
    7000    26.523217        4            2            2 1.6779566e-15 1.3131025e-16          0.1 0.0090000021 4.3087343e-05  0.029899997 
number of iterations: 8751 
    7100    26.680506        4            2            2 1.7062612e-15 1.3119808e-16          0.1 0.0090000021 4.4227725e-05  0.029899997 
number of iterations: 8852 
    7200    26.834028        4            2            2 1.7350433e-15  1.31086e-16          0.1 0.0090000022 4.5387344e-05  0.029899996 
number of iterations: 8951 
    7300    26.999987        4            2            2 1.7643109e-15 1.3097402e-16          0.1 0.0090000022 4.6566525e-05  0.029899996 
number of iterations: 9050 
    7400    27.172677        4            2            2 1.7940722e-15 1.3086214e-16          0.1 0.0090000022 4.7765596e-05  0.029899996 
number of iterations: 9150 
    7500    27.341005        4            2            2 1.8243355e-15 1.3075036e-16          0.1 0.0090000023 4.8984893e-05  0.029899996 
number of iterations: 9249 
    7600    27.493553        4            2            2 1.8551093e-15 1.3063868e-16          0.1 0.0090000023 5.0224759e-05  0.029899996 
number of iterations: 9349 
    7700    27.662172        4            2            2 1.8864023e-15 1.3052709e-16          0.1 0.0090000024 5.1485539e-05  0.029899996 
number of iterations: 9451 
    7800    27.824591        4            2            2 1.9182231e-15 1.304156e-16          0.1 0.0090000024 5.2767586e-05  0.029899996 
number of iterations: 9552 
    7900      27.9846        4            2            2 1.9505807e-15 1.3030421e-16          0.1 0.0090000024 5.407126e-05  0.029899996 
number of iterations: 9654 
    8000    28.585224        4            2            2 1.983484e-15 1.3019292e-16          0.1 0.0090000025 5.5396925e-05  0.029899996 
number of iterations: 9757 
    8100    28.742444        4            2            2 2.0169425e-15 1.3008173e-16          0.1 0.0090000025 5.6744952e-05  0.029899996 
number of iterations: 9860 
    8200    28.898656        4            2            2 2.0509653e-15 1.2997063e-16          0.1 0.0090000026 5.8115718e-05  0.029899996 
number of iterations: 9964 
    8300    29.058826        4            2            2 2.085562e-15 1.2985963e-16          0.1 0.0090000026 5.9509606e-05  0.029899996 
number of iterations: 10069 
    8400     29.22256        4            2            2 2.1207424e-15 1.2974873e-16          0.1 0.0090000027 6.0927008e-05  0.029899996 
number of iterations: 10174 
    8500    29.380872        4            2            2 2.1565161e-15 1.2963793e-16          0.1 0.0090000027 6.2368319e-05  0.029899996 
number of iterations: 10281 
    8600    29.535336        4            2            2 2.1928933e-15 1.2952723e-16          0.1 0.0090000027 6.3833942e-05  0.029899996 
number of iterations: 10387 
    8700    29.693468        4            2            2 2.2298842e-15 1.2941662e-16          0.1 0.0090000028 6.5324289e-05  0.029899995 
number of iterations: 10494 
    8800    29.858433        4            2            2 2.267499e-15 1.2930611e-16          0.1 0.0090000028 6.6839775e-05  0.029899995 
number of iterations: 10603 
    8900    30.042818        4            2            2 2.3057484e-15 1.291957e-16          0.1 0.0090000029 6.8380826e-05  0.029899995 
number of iterations: 10711 
    9000     30.66739        4            2            2 2.3446429e-15 1.2908538e-16          0.1 0.0090000029 6.9947872e-05  0.029899995 
number of iterations: 10820 
    9100    30.833756        4            2            2 2.3841935e-15 1.2897517e-16          0.1  0.009000003 7.1541351e-05  0.029899995 
number of iterations: 10930 
    9200    31.001491        4            2            2 2.4244113e-15 1.2886505e-16          0.1  0.009000003 7.316171e-05  0.029899995 
number of iterations: 11041 
    9300    31.177296        4            2            2 2.4653076e-15 1.2875503e-16          0.1 0.0090000031 7.4809402e-05  0.029899995 
number of iterations: 11152 
    9400    31.353332        4            2            2 2.5068936e-15 1.286451e-16          0.1 0.0090000031 7.6484888e-05  0.029899995 
number of iterations: 11264 
    9500     31.53998        4            2            2 2.5491812e-15 1.2853528e-16          0.1 0.0090000032 7.8188637e-05  0.029899995 
number of iterations: 11376 
    9600    31.716513        4            2            2 2.5921821e-15 1.2842555e-16          0.1 0.0090000033 7.9921126e-05  0.029899995 
number of iterations: 11489 
    9700    31.923402        4            2            2 2.6359083e-15 1.2831591e-16          0.1 0.0090000033 8.1682839e-05  0.029899995 
number of iterations: 11603 
    9800     32.10888        4            2            2 2.6803722e-15 1.2820638e-16          0.1 0.0090000034 8.347427e-05  0.029899994 
number of iterations: 11717 
    9900    32.305779        4            2            2 2.7255861e-15 1.2809694e-16          0.1 0.0090000034 8.5295919e-05  0.029899994 
number of iterations: 11832 
   10000     32.94365        4            2            2 2.7715627e-15 1.279876e-16          0.1 0.0090000035 8.7148297e-05  0.029899994 
number of iterations: 11947 
   10100    33.139925        4            2            2 2.8183148e-15 1.2787836e-16          0.1 0.0090000035 8.9031922e-05  0.029899994 
number of iterations: 12063 
   10200    33.340632        4            2            2 2.8658556e-15 1.2776922e-16          0.1 0.0090000036 9.094732e-05  0.029899994 
number of iterations: 12180 
   10300    33.529528        4            2            2 2.9141983e-15 1.2766017e-16          0.1 0.0090000037 9.2895029e-05  0.029899994 
number of iterations: 12297 
   10400     33.72372        5            3            2 2.9633565e-15 1.2755122e-16          0.1 0.0090000037 9.4875593e-05  0.029899994 
number of iterations: 12415 
   10500    33.920047        6            4            2 3.0133439e-15 1.2744237e-16          0.1 0.0090000038 9.6889565e-05  0.029899994 
number of iterations: 12534 
   10600    34.104333        6            4            2 3.0641745e-15 1.2733361e-16          0.1 0.0090000039 9.8937511e-05  0.029899994 
number of iterations: 12653 
   10700    34.297368        6            4            2 3.1158626e-15 1.2722495e-16          0.1 0.0090000039   0.00010102  0.029899994 
number of iterations: 12773 
   10800    34.492123        6            4            2 3.1684226e-15 1.2711639e-16          0.1  0.009000004 0.00010313762  0.029899993 
number of iterations: 12893 
   10900    34.678244        6            4            2 3.2218691e-15 1.2700792e-16          0.1 0.0090000041 0.00010529096  0.029899993 
number of iterations: 13014 
   11000     35.30265        6            4            2 3.2762173e-15 1.2689956e-16          0.1 0.0090000041 0.00010748063  0.029899993 
number of iterations: 13135 
   11100    35.481587        6            4            2 3.3314822e-15 1.2679129e-16          0.1 0.0090000042 0.00010970723  0.029899993 
number of iterations: 13257 
   11200    35.674335        6            4            2 3.3876793e-15 1.2668311e-16          0.1 0.0090000043 0.00011197139  0.029899993 
number of iterations: 13380 
   11300    35.854715        6            4            2 3.4448245e-15 1.2657504e-16          0.1 0.0090000043 0.00011427374  0.029899993 
number of iterations: 13503 
   11400    36.042456        6            4            2 3.5029335e-15 1.2646706e-16          0.1 0.0090000044 0.00011661493  0.029899993 
number of iterations: 13627 
   11500    36.270857        6            4            2 3.5620228e-15 1.2635918e-16          0.1 0.0090000045 0.00011899561  0.029899993 
number of iterations: 13751 
   11600    36.491894        6            4            2 3.6221088e-15 1.2625139e-16          0.1 0.0090000046 0.00012141646  0.029899992 
number of iterations: 13876 
   11700    36.690845        6            4            2 3.6832084e-15 1.261437e-16          0.1 0.0090000046 0.00012387813  0.029899992 
number of iterations: 14002 
   11800    36.899763        6            4            2 3.7453386e-15 1.2603611e-16          0.1 0.0090000047 0.00012638133  0.029899992 
number of iterations: 14127 
   11900    37.102771        6            4            2 3.8085169e-15 1.2592862e-16          0.1 0.0090000048 0.00012892676  0.029899992 
number of iterations: 14254 
   12000    37.750812        6            4            2 3.872761e-15 1.2582122e-16          0.1 0.0090000049 0.00013151513  0.029899992 
number of iterations: 14381 
   12100    37.944418        6            4            2 3.9380887e-15 1.2571392e-16          0.1  0.009000005 0.00013414715  0.029899992 
number of iterations: 14509 
   12200     38.13837        6            4            2 4.0045184e-15 1.2560672e-16          0.1  0.009000005 0.00013682358  0.029899992 
number of iterations: 14637 
   12300    38.324168        6            4            2 4.0720686e-15 1.2549961e-16          0.1 0.0090000051 0.00013954515  0.029899992 
number of iterations: 14766 
   12400    38.516315        6            4            2 4.1407584e-15 1.2539261e-16          0.1 0.0090000052 0.00014231263  0.029899991 
number of iterations: 14895 
   12500    38.717671        6            4            2 4.2106068e-15 1.2528569e-16          0.1 0.0090000053 0.0001451268  0.029899991 
number of iterations: 15025 
   12600    38.907631        6            4            2 4.2816335e-15 1.2517888e-16          0.1 0.0090000054 0.00014798843  0.029899991 
number of iterations: 15156 
   12700    39.092112        6            4            2 4.3538583e-15 1.2507216e-16          0.1 0.0090000055 0.00015089834  0.029899991 
number of iterations: 15287 
   12800    39.285151        6            4            2 4.4273014e-15 1.2496554e-16          0.1 0.0090000056 0.00015385733  0.029899991 
number of iterations: 15418 
   12900     39.47522        6            4            2 4.5019834e-15 1.2485902e-16          0.1 0.0090000057 0.00015686624  0.029899991 
number of iterations: 15550 
   13000     40.09804        6            4            2 4.5779251e-15 1.2475259e-16          0.1 0.0090000058 0.0001599259   0.02989999 
number of iterations: 15683 
   13100    40.297644        6            4            2 4.6551479e-15 1.2464627e-16          0.1 0.0090000059 0.00016303718   0.02989999 
number of iterations: 15816 
   13200    40.496417        6            4            2 4.7336733e-15 1.2454003e-16          0.1  0.009000006 0.00016620093   0.02989999 
number of iterations: 15949 
   13300    40.683671        6            4            2 4.8135233e-15 1.244339e-16          0.1 0.0090000061 0.00016941806   0.02989999 
number of iterations: 16083 
   13400    40.883056        6            4            2 4.8947203e-15 1.2432786e-16          0.1 0.0090000062 0.00017268945   0.02989999 
number of iterations: 16218 
   13500    41.085834        6            4            2 4.977287e-15 1.2422192e-16          0.1 0.0090000063 0.00017601603   0.02989999 
number of iterations: 16353 
   13600    41.290811        6            4            2 5.0612464e-15 1.2411608e-16          0.1 0.0090000064 0.00017939872  0.029899989 
number of iterations: 16489 
   13700    41.482358        7            5            2 5.1466221e-15 1.2401033e-16          0.1 0.0090000065 0.00018283847  0.029899989 
number of iterations: 16625 
   13800    41.717622        7            5            2 5.2334379e-15 1.2390468e-16          0.1 0.0090000066 0.00018633624  0.029899989 
number of iterations: 16761 
   13900    41.926769        7            5            2 5.3217183e-15 1.2379913e-16          0.1 0.0090000067 0.00018989302  0.029899989 
number of iterations: 16899 
   14000    42.598521        8            6            2 5.4114877e-15 1.2369368e-16          0.1 0.0090000068 0.0001935098  0.029899989 
number of iterations: 17036 
   14100    42.813492        8            6            2 5.5027715e-15 1.2358832e-16          0.1 0.0090000069 0.00019718758  0.029899989 
number of iterations: 17174 
   14200    43.004436        8            6            2 5.595595e-15 1.2348306e-16          0.1 0.0090000071 0.0002009274  0.029899988 
number of iterations: 37194 
   14300    43.397153        8            6            2 5.6899844e-15 1.233779e-16          0.1 0.0090000074 0.00020473032  0.029899988 
number of iterations: 18805 
   14400    43.623455        8            6            2 5.785966e-15 1.2327284e-16          0.1 0.0090000076 0.00020859738  0.029899987 
number of iterations: 18991 
   14500    43.844615        8            6            2 5.8835666e-15 1.2316787e-16          0.1 0.0090000077 0.00021252967  0.029899987 
number of iterations: 19127 
   14600    44.078805        8            6            2 5.9828136e-15  1.23063e-16          0.1 0.0090000078 0.0002165283  0.029899987 
number of iterations: 19264 
   14700    44.313095        8            6            2 6.0837348e-15 1.2295823e-16          0.1  0.009000008 0.00022059437  0.029899987 
number of iterations: 19404 
   14800    44.537848        8            6            2 6.1863583e-15 1.2285355e-16          0.1 0.0090000081 0.00022472904  0.029899987 
number of iterations: 19544 
   14900    44.768716        8            6            2 6.290713e-15 1.2274898e-16          0.1 0.0090000082 0.00022893345  0.029899986 
number of iterations: 19684 
   15000    45.454453        8            6            2 6.3968279e-15 1.226445e-16          0.1 0.0090000084 0.00023320878  0.029899986 
number of iterations: 19826 
   15100    45.702027        8            6            2 6.5047329e-15 1.2254012e-16          0.1 0.0090000085 0.00023755623  0.029899986 
number of iterations: 19967 
   15200    45.925043        8            6            2 6.6144581e-15 1.2243583e-16          0.1 0.0090000087 0.00024197702  0.029899986 
number of iterations: 30122 
   15300    46.242309        9            7            2 6.7260341e-15 1.2233165e-16          0.1 0.0090000087 0.00024647237  0.029899986 
number of iterations: 16926 
   15400     46.44763        9            7            2 6.8394923e-15 1.2222756e-16          0.1 0.0090000088 0.00025104356  0.029899985 
number of iterations: 19608 
   15500    46.668351        9            7            2 6.9548644e-15 1.2212357e-16          0.1 0.0090000089 0.00025569186  0.029899985 
number of iterations: 19841 
   15600    46.904626       10            8            2 7.0721826e-15 1.2201968e-16          0.1 0.0090000091 0.00026041856  0.029899985 
number of iterations: 20002 
   15700    47.153854       10            8            2 7.1914798e-15 1.2191588e-16          0.1 0.0090000093  0.000265225  0.029899985 
number of iterations: 20150 
   15800    47.425114       10            8            2 7.3127893e-15 1.2181219e-16          0.1 0.0090000094 0.00027011251  0.029899984 
number of iterations: 20295 
   15900     47.68237       10            8            2 7.4361452e-15 1.2170859e-16          0.1 0.0090000096 0.00027508247  0.029899984 
number of iterations: 20441 
   16000    48.364525       10            8            2 7.5615819e-15 1.2160509e-16          0.1 0.0090000097 0.00028013627  0.029899984 
number of iterations: 20587 
   16100    48.607243       10            8            2 7.6891345e-15 1.2150169e-16          0.1 0.0090000099 0.00028527531  0.029899984 
number of iterations: 20734 
   16200    48.859155       10            8            2 7.8188388e-15 1.2139839e-16          0.1 0.0090000101 0.00029050104  0.029899983 
number of iterations: 20881 
   16300    49.092392       10            8            2 7.9507309e-15 1.2129518e-16          0.1 0.0090000102 0.00029581493  0.029899983 
number of iterations: 21028 
   16400    49.348248       10            8            2 8.0848479e-15 1.2119208e-16          0.1 0.0090000104 0.00030121845  0.029899983 
number of iterations: 21175 
   16500    49.583952       10            8            2 8.2212273e-15 1.2108907e-16          0.1 0.0090000106 0.00030671312  0.029899982 
number of iterations: 21324 
   16600    49.844559       10            8            2 8.3599071e-15 1.2098616e-16          0.1 0.0090000108 0.00031230048  0.029899982 
number of iterations: 21472 
   16700    50.092579       10            8            2 8.5009263e-15 1.2088335e-16          0.1 0.0090000109 0.00031798208  0.029899982 
number of iterations: 21621 
   16800    50.350085       10            8            2 8.6443243e-15 1.2078064e-16          0.1 0.0090000111 0.00032375953  0.029899982 
number of iterations: 21770 
   16900    50.612373       10            8            2 8.7901412e-15 1.2067803e-16          0.1 0.0090000113 0.00032963444  0.029899981 
number of iterations: 21920 
   17000    51.253624       10            8            2 8.9384178e-15 1.2057552e-16          0.1 0.0090000115 0.00033560844  0.029899981 
number of iterations: 22070 
   17100    51.517121       11            9            2 9.0891956e-15 1.2047311e-16          0.1 0.0090000117 0.00034168322  0.029899981 
number of iterations: 22220 
   17200    51.792307       11            9            2 9.2425168e-15 1.2037079e-16          0.1 0.0090000119 0.00034786047   0.02989998 
number of iterations: 22371 
   17300    52.049983       11            9            2 9.3984243e-15 1.2026858e-16          0.1 0.0090000121 0.00035414192   0.02989998 
number of iterations: 22522 
   17400     52.32481       11            9            2 9.5569617e-15 1.2016646e-16          0.1 0.0090000123 0.00036052933   0.02989998 
number of iterations: 22674 
   17500    52.580511       11            9            2 9.7181734e-15 1.2006445e-16          0.1 0.0090000125 0.00036702449  0.029899979 
number of iterations: 22826 
   17600    52.821874       11            9            2 9.8821045e-15 1.1996253e-16          0.1 0.0090000127 0.00037362921  0.029899979 
number of iterations: 22978 
   17700    53.063785       12           10            2 1.0048801e-14 1.1986072e-16          0.1 0.0090000129 0.00038034534  0.029899979 
number of iterations: 23131 
   17800    53.320387       12           10            2 1.0218309e-14  1.19759e-16          0.1 0.0090000132 0.00038717476  0.029899978 
number of iterations: 23284 
   17900    53.574873       13           11            2 1.0390677e-14 1.1965738e-16          0.1 0.0090000134 0.00039411939  0.029899978 
number of iterations: 23438 
   18000    54.280553       13           11            2 1.0565952e-14 1.1955587e-16          0.1 0.0090000136 0.00040118116  0.029899977 
number of iterations: 23592 
   18100    54.541385       13           11            2 1.0744184e-14 1.1945445e-16          0.1 0.0090000138 0.00040836205  0.029899977 
number of iterations: 23746 
   18200    54.794125       13           11            2 1.0925422e-14 1.1935314e-16          0.1 0.0090000141 0.00041566408  0.029899977 
number of iterations: 23901 
   18300    55.077146       13           11            2 1.1109718e-14 1.1925192e-16          0.1 0.0090000143 0.00042308927  0.029899976 
number of iterations: 24056 
   18400    55.349705       13           11            2 1.1297122e-14 1.1915081e-16          0.1 0.0090000146 0.00043063972  0.029899976 
number of iterations: 24211 
   18500    55.628953       13           11            2 1.1487688e-14 1.1904979e-16          0.1 0.0090000148 0.00043831754  0.029899975 
number of iterations: 24367 
   18600    55.905641       13           11            2 1.1681468e-14 1.1894888e-16          0.1 0.0090000151 0.00044612486  0.029899975 
number of iterations: 24523 
   18700    56.188848       13           11            2 1.1878517e-14 1.1884807e-16          0.1 0.0090000153 0.00045406389  0.029899975 
number of iterations: 24679 
   18800    56.453695       13           11            2 1.207889e-14 1.1874736e-16          0.1 0.0090000156 0.00046213683  0.029899974 
number of iterations: 24836 
   18900    56.726087       13           11            2 1.2282643e-14 1.1864675e-16          0.1 0.0090000158 0.00047034596  0.029899974 
number of iterations: 24993 
   19000    57.482572       13           11            2 1.2489833e-14 1.1854624e-16          0.1 0.0090000161 0.00047869356  0.029899973 
number of iterations: 31766 
   19100    57.840207       14           12            2 1.2700518e-14 1.1844584e-16          0.1 0.0090000163 0.00048718196  0.029899973 
number of iterations: 23565 
   19200    58.101459       14           12            2 1.2914757e-14 1.1834554e-16          0.1 0.0090000165 0.00049581356  0.029899973 
number of iterations: 25048 
   19300    58.398608       15           13            2 1.3132609e-14 1.1824533e-16          0.1 0.0090000168 0.00050459076  0.029899972 
number of iterations: 25246 
   19400    58.670087       15           13            2 1.3354137e-14 1.1814524e-16          0.1  0.009000017 0.00051351601  0.029899972 
number of iterations: 25410 
   19500    58.944454       16           14            2 1.3579401e-14 1.1804524e-16          0.1 0.0090000173 0.00052259182  0.029899971 
number of iterations: 25571 
   19600    59.224697       16           14            2 1.3808465e-14 1.1794534e-16          0.1 0.0090000176 0.00053182073  0.029899971 
number of iterations: 25732 
   19700    59.504857       17           15            2 1.4041394e-14 1.1784555e-16          0.1 0.0090000179 0.00054120531   0.02989997 
number of iterations: 25893 
   19800    59.785613       17           15            2 1.4278251e-14 1.1774587e-16          0.1 0.0090000182 0.0005507482   0.02989997 
number of iterations: 26054 
   19900    60.075377       17           15            2 1.4519104e-14 1.1764628e-16          0.1 0.0090000185 0.00056045206  0.029899969 
number of iterations: 26215 
   20000    60.768185       17           15            2 1.476402e-14 1.175468e-16          0.1 0.0090000188 0.00057031961  0.029899969 
number of iterations: 26377 
   20100    61.048341       17           15            2 1.5013067e-14 1.1744742e-16          0.1 0.0090000192 0.00058035362  0.029899968 
number of iterations: 26539 
   20200    61.343764       17           15            2 1.5266315e-14 1.1734815e-16          0.1 0.0090000195 0.00059055688  0.029899968 
number of iterations: 26702 
   20300    61.622839       17           15            2 1.5523835e-14 1.1724898e-16          0.1 0.0090000198 0.00060093225  0.029899967 
number of iterations: 26865 
   20400    61.913185       18           16            2 1.5785699e-14 1.1714991e-16          0.1 0.0090000202 0.00061148265  0.029899967 
number of iterations: 27028 
   20500     62.22452       19           17            2 1.605198e-14 1.1705095e-16          0.1 0.0090000205 0.00062221101  0.029899966 
number of iterations: 27191 
   20600    62.537005       19           17            2 1.6322753e-14 1.1695209e-16          0.1 0.0090000208 0.00063312034  0.029899965 
number of iterations: 27355 
   20700    62.836194       19           17            2 1.6598093e-14 1.1685334e-16          0.1 0.0090000212 0.0006442137  0.029899965 
number of iterations: 27519 
   20800    63.136315       19           17            2 1.6878078e-14 1.1675469e-16          0.1 0.0090000216 0.00065549418  0.029899964 
number of iterations: 27684 
   20900    63.437898       19           17            2 1.7162786e-14 1.1665615e-16          0.1 0.0090000219 0.00066696495  0.029899964 
number of iterations: 27849 
   21000    64.172555       19           17            2 1.7452297e-14 1.1655771e-16          0.1 0.0090000223 0.00067862922  0.029899963 
number of iterations: 28014 
   21100      64.4788       19           17            2 1.7746691e-14 1.1645938e-16          0.1 0.0090000227 0.00069049024  0.029899962 
number of iterations: 28179 
   21200    64.766288       19           17            2 1.8046051e-14 1.1636116e-16          0.1  0.009000023 0.00070255134  0.029899962 
number of iterations: 28345 
   21300    65.075055       19           17            2 1.8350461e-14 1.1626304e-16          0.1 0.0090000234 0.0007148159  0.029899961 
number of iterations: 28511 
   21400    65.391262       21           19            2 1.8660006e-14 1.1616503e-16          0.1 0.0090000238 0.00072728734   0.02989996 
number of iterations: 40268 
   21500    65.866892       21           19            2 1.8974773e-14 1.1606717e-16          0.1 0.0090000243 0.00073996915   0.02989996 
number of iterations: 26650 
   21600    66.142132       21           19            2 1.9294849e-14 1.1596942e-16          0.1 0.0090000246 0.00075286489  0.029899959 
number of iterations: 28393 
   21700    66.447802       21           19            2 1.9620324e-14 1.1587178e-16          0.1 0.0090000251 0.00076597816  0.029899958 
number of iterations: 28615 
   21800    66.763137       21           19            2 1.995129e-14 1.1577424e-16          0.1 0.0090000255 0.00077931263  0.029899958 
number of iterations: 28788 
   21900    67.094811       21           19            2 2.0287838e-14 1.1567682e-16          0.1 0.0090000259 0.00079287203  0.029899957 
number of iterations: 28956 
   22000    67.846655       21           19            2 2.0630064e-14 1.155795e-16          0.1 0.0090000263 0.00080666016  0.029899956 
number of iterations: 29124 
   22100    68.184675       21           19            2 2.0978062e-14 1.1548229e-16          0.1 0.0090000268 0.00082068088  0.029899955 
number of iterations: 29292 
   22200    68.498816       23           21            2 2.1331931e-14 1.1538519e-16          0.1 0.0090000272 0.0008349381  0.029899955 
number of iterations: 29461 
   22300    68.862846       23           21            2 2.1691769e-14 1.152882e-16          0.1 0.0090000277 0.00084943582  0.029899954 
number of iterations: 29629 
   22400    69.167752       23           21            2 2.2057677e-14 1.1519133e-16          0.1 0.0090000282 0.0008641781  0.029899953 
number of iterations: 29799 
   22500    69.500846       23           21            2 2.2429757e-14 1.1509456e-16          0.1 0.0090000287 0.00087916906  0.029899952 
number of iterations: 29968 
   22600    69.809617       23           21            2 2.2808113e-14 1.1499791e-16          0.1 0.0090000291 0.00089441289  0.029899952 
number of iterations: 30138 
   22700    70.132167       23           21            2 2.3192852e-14 1.1490136e-16          0.1 0.0090000296 0.00090991386  0.029899951 
number of iterations: 30308 
   22800    70.461079       24           22            2 2.3584081e-14 1.1480493e-16          0.1 0.0090000301 0.00092567631   0.02989995 
number of iterations: 30478 
   22900    70.794435       26           24            2 2.3981909e-14 1.1470861e-16          0.1 0.0090000306 0.00094170465  0.029899949 
number of iterations: 41290 
   23000    71.679467       28           26            2 2.4386448e-14 1.146124e-16          0.1 0.0090000315 0.00095800337  0.029899948 
number of iterations: 33720 
   23100    72.114451       28           26            2 2.4797811e-14 1.1451631e-16          0.1 0.0090000319 0.00097457702  0.029899947 
number of iterations: 30646 
   23200    72.455352       28           26            2 2.5216114e-14 1.1442032e-16          0.1 0.0090000324 0.00099143025  0.029899946 
number of iterations: 31327 
   23300    72.802475       28           26            2 2.5641472e-14 1.1432446e-16          0.1 0.0090000329 0.0010085678  0.029899945 
number of iterations: 31510 
   23400    73.162413       28           26            2 2.6074005e-14 1.142287e-16          0.1 0.0090000335 0.0010259944  0.029899944 
number of iterations: 38317 
   23500    73.539295       29           27            2 2.6513835e-14 1.1413307e-16          0.1 0.0090000342 0.0010437149  0.029899943 
number of iterations: 42721 
   23600    74.054666       30           28            2 2.6961084e-14 1.140376e-16          0.1 0.0090000348 0.0010617344  0.029899942 
number of iterations: 30460 
   23700    74.400768       30           28            2 2.7415877e-14 1.1394224e-16          0.1 0.0090000354 0.0010800578  0.029899941 
number of iterations: 31832 
   23800    74.738482       30           28            2 2.7878342e-14  1.13847e-16          0.1  0.009000036 0.0010986904   0.02989994 
number of iterations: 32041 
   23900    75.076113       30           28            2 2.8348608e-14 1.1375188e-16          0.1 0.0090000366 0.0011176372  0.029899939 
number of iterations: 36340 
   24000    75.880869       31           29            2 2.8826806e-14 1.1365688e-16          0.1  0.009000037 0.0011369036  0.029899938 
number of iterations: 38698 
   24100    76.344659       31           29            2 2.9313072e-14  1.13562e-16          0.1 0.0090000377 0.0011564951  0.029899937 
number of iterations: 32411 
   24200    76.691548       31           29            2 2.9807539e-14 1.1346723e-16          0.1 0.0090000384  0.001176417  0.029899936 
number of iterations: 32639 
   24300    77.065361       32           30            2 3.0310348e-14 1.1337259e-16          0.1  0.009000039 0.0011966749  0.029899935 
number of iterations: 32814 
   24400    77.467428       32           30            2 3.0821639e-14 1.1327806e-16          0.1 0.0090000397 0.0012172746  0.029899934 
number of iterations: 32988 
   24500    77.823755       33           31            2 3.1341554e-14 1.1318365e-16          0.1 0.0090000403 0.0012382218  0.029899933 
number of iterations: 33162 
   24600    78.170364       33           31            2 3.1870239e-14 1.1308937e-16          0.1  0.009000041 0.0012595223  0.029899932 
number of iterations: 33336 
   24700    78.525617       33           31            2 3.2407842e-14 1.129952e-16          0.1 0.0090000417 0.0012811821  0.029899931 
number of iterations: 33511 
   24800    78.872301       33           31            2 3.2954514e-14 1.1290116e-16          0.1 0.0090000424 0.0013032073   0.02989993 
number of iterations: 38900 
   24900    79.289409       35           33            2 3.3510408e-14 1.1280724e-16          0.1 0.0090000433 0.0013256041  0.029899928 
number of iterations: 33949 
   25000    80.046662       35           33            2 3.4075678e-14 1.1271344e-16          0.1  0.009000044 0.0013483786  0.029899927 
number of iterations: 34155 
   25100    80.417889       35           33            2 3.4650484e-14 1.1261977e-16          0.1 0.0090000447 0.0013715373  0.029899926 
number of iterations: 34331 
   25200    80.794632       36           34            2 3.5234986e-14 1.1252622e-16          0.1 0.0090000455 0.0013950867  0.029899924 
number of iterations: 34507 
   25300    81.161831       36           34            2 3.5829347e-14 1.1243279e-16          0.1 0.0090000463 0.0014190333  0.029899923 
number of iterations: 34683 
   25400    81.550488       36           34            2 3.6433735e-14 1.1233949e-16          0.1  0.009000047 0.0014433838  0.029899922 
number of iterations: 36035 
   25500    81.935192       37           35            2 3.7048318e-14 1.1224632e-16          0.1 0.0090000477 0.0014681451  0.029899921 
number of iterations: 34617 
   25600    82.330157       38           36            2 3.7673268e-14 1.1215327e-16          0.1 0.0090000485 0.0014933241  0.029899919 
number of iterations: 35087 
   25700    82.712535       38           36            2 3.8308759e-14 1.1206035e-16          0.1 0.0090000493 0.0015189278  0.029899918 
number of iterations: 35271 
   25800    83.085708       41           39            2 3.8954971e-14 1.1196756e-16          0.1 0.0090000501 0.0015449634  0.029899917 
number of iterations: 35449 
   25900    83.520598       41           39            2 3.9612083e-14 1.1187489e-16          0.1  0.009000051 0.0015714382  0.029899915 
number of iterations: 35627 
   26000    84.307464       42           40            2 4.028028e-14 1.1178236e-16          0.1 0.0090000518 0.0015983596  0.029899914 
number of iterations: 35805 
   26100    84.698833       42           40            2 4.0959748e-14 1.1168995e-16          0.1 0.0090000527 0.0016257351  0.029899912 
number of iterations: 35984 
   26200    85.120939       42           40            2 4.1650678e-14 1.1159768e-16          0.1 0.0090000536 0.0016535723  0.029899911 
number of iterations: 36162 
   26300    85.493526       43           41            2 4.2353262e-14 1.1150553e-16          0.1 0.0090000545 0.0016818792  0.029899909 
number of iterations: 41556 
   26400    85.972924       43           41            2 4.3067698e-14 1.1141352e-16          0.1 0.0090000556 0.0017106636  0.029899907 
number of iterations: 36618 
   26500     86.35289       43           41            2 4.3794186e-14 1.1132164e-16          0.1 0.0090000566 0.0017399335  0.029899906 
number of iterations: 36818 
   26600    86.752806       43           41            2 4.4532929e-14 1.112299e-16          0.1 0.0090000575 0.0017696971  0.029899904 
number of iterations: 36998 
   26700    87.146792       44           42            2 4.5284133e-14 1.1113829e-16          0.1 0.0090000585 0.0017999628  0.029899903 
number of iterations: 37177 
   26800    87.547162       45           43            2 4.6048008e-14 1.1104681e-16          0.1 0.0090000595 0.0018307391  0.029899901 
number of iterations: 37358 
   26900    87.956081       48           46            2 4.6824769e-14 1.1095547e-16          0.1 0.0090000605 0.0018620345  0.029899899 
number of iterations: 37538 
   27000    88.842723       51           49            2 4.7614633e-14 1.1086426e-16          0.1 0.0090000615 0.0018938578  0.029899898 
number of iterations: 39073 
   27100     89.30124       52           50            2 4.8417821e-14 1.1077323e-16          0.1 0.0090000625 0.0019262179  0.029899896 
number of iterations: 37205 
   27200    89.710744       52           50            2 4.9234557e-14 1.1068234e-16          0.1 0.0090000636 0.0019591239  0.029899894 
number of iterations: 37875 
   27300    90.126253       53           51            2 5.006507e-14 1.1059159e-16          0.1 0.0090000647 0.0019925849  0.029899892 
number of iterations: 38067 
   27400      90.6591       54           52            2 5.0909593e-14 1.1050097e-16          0.1 0.0090000658 0.0020266104  0.029899891 
number of iterations: 40553 
   27500    91.145801       55           53            2 5.1768362e-14 1.104105e-16          0.1 0.0090000665 0.0020612099  0.029899889 
number of iterations: 37769 
   27600    91.648158       56           54            2 5.2641617e-14 1.1032017e-16          0.1 0.0090000676  0.002096393  0.029899888 
number of iterations: 38380 
   27700    92.086624       56           54            2 5.3529602e-14 1.1022999e-16          0.1 0.0090000687 0.0021321696  0.029899886 
number of iterations: 38571 
   27800      92.5461       56           54            2 5.4432566e-14 1.1013995e-16          0.1 0.0090000699 0.0021685496  0.029899884 
number of iterations: 35719 
   27900    92.963587       57           55            2 5.5350762e-14 1.1005009e-16          0.1  0.009000071 0.0022055434  0.029899882 
number of iterations: 38621 
   28000    93.905759       59           57            2 5.6284447e-14 1.0996039e-16          0.1 0.0090000723 0.0022431612   0.02989988 
number of iterations: 42570 
   28100    94.437541       59           57            2 5.7233881e-14 1.0987083e-16          0.1 0.0090000736 0.0022814135  0.029899878 
number of iterations: 39263 
   28200    94.928606       59           57            2 5.8199331e-14 1.0978142e-16          0.1 0.0090000749 0.0023203111  0.029899875 
number of iterations: 39460 
   28300    95.367314       60           58            2 5.9181067e-14 1.0969216e-16          0.1 0.0090000761 0.0023598648  0.029899873 
number of iterations: 39968 
   28400     95.86318       60           58            2 6.0179363e-14 1.0960312e-16          0.1 0.0090000774 0.0024000858  0.029899871 
number of iterations: 42884 
   28500    96.336442       61           59            2 6.1194499e-14 1.0951423e-16          0.1 0.0090000789 0.0024409852  0.029899869 
number of iterations: 39308 
   28600    96.851378       63           61            2 6.2226758e-14 1.094255e-16          0.1 0.0090000801 0.0024825745  0.029899867 
number of iterations: 39944 
   28700    97.403356       63           61            2 6.3276431e-14 1.0933692e-16          0.1 0.0090000814 0.0025248654  0.029899865 
number of iterations: 40232 
   28800    97.842485       64           62            2 6.4343809e-14 1.092485e-16          0.1 0.0090000828 0.0025678697  0.029899862 
number of iterations: 40419 
   28900    98.344201       66           64            2 6.5429193e-14 1.0916023e-16          0.1 0.0090000842 0.0026115994   0.02989986 
number of iterations: 41480 
   29000    99.262814       68           66            2 6.6532885e-14 1.0907217e-16          0.1 0.0090000857 0.0026560667  0.029899857 
number of iterations: 40740 
   29100    99.784613       68           66            2 6.7655196e-14 1.0898426e-16          0.1  0.009000087 0.0027012841  0.029899855 
number of iterations: 40531 
   29200    100.20779       69           67            2 6.8796437e-14 1.0889652e-16          0.1 0.0090000884 0.0027472643  0.029899853 
number of iterations: 45812 
   29300    100.73607       70           68            2 6.995693e-14  1.08809e-16          0.1 0.0090000899 0.0027940201   0.02989985 
number of iterations: 48852 
   29400    101.29829       71           69            2 7.1136999e-14 1.087216e-16          0.1 0.0090000914 0.0028415646  0.029899848 
number of iterations: 43188 
   29500    101.82319       71           69            2 7.2336974e-14 1.0863441e-16          0.1  0.009000093 0.0028899111  0.029899845 
number of iterations: 43774 
   29600    102.30566       73           71            2 7.355719e-14 1.0854739e-16          0.1 0.0090000947 0.0029390732  0.029899843 
number of iterations: 41450 
   29700    102.80243       76           74            2 7.479799e-14 1.0846054e-16          0.1 0.0090000962 0.0029890645   0.02989984 
number of iterations: 41041 
   29800    103.29064       77           75            2 7.605972e-14 1.0837386e-16          0.1 0.0090000977 0.0030398991  0.029899837 
number of iterations: 41661 
   29900    103.71454       78           76            2 7.7342733e-14 1.0828735e-16          0.1 0.0090000993 0.0030915912  0.029899835 
number of iterations: 41339 
   30000    104.53324       80           78            2 7.8647389e-14 1.0820102e-16          0.1 0.0090001008 0.0031441553  0.029899832 
number of iterations: 45570 
   30100    105.09017       80           78            2 7.9974053e-14 1.0811485e-16          0.1 0.0090001027  0.003197606  0.029899829 
number of iterations: 41630 
   30200    105.52702       82           80            2 8.1323095e-14 1.0802887e-16          0.1 0.0090001043 0.0032519584  0.029899827 
number of iterations: 42346 
   30300    106.01918       82           80            2 8.2694894e-14 1.0794307e-16          0.1  0.009000106 0.0033072276  0.029899824 
number of iterations: 42628 
   30400    106.45136       84           82            2 8.4089833e-14 1.0785744e-16          0.1 0.0090001078 0.0033634291  0.029899821 
number of iterations: 46468 
   30500    106.98007       85           83            2 8.5508302e-14 1.0777199e-16          0.1 0.0090001098 0.0034205787  0.029899817 
number of iterations: 43073 
   30600    107.44284       85           83            2 8.6950699e-14 1.0768673e-16          0.1 0.0090001117 0.0034786923  0.029899814 
number of iterations: 43268 
   30700    107.87998       88           86            2 8.8417427e-14 1.0760165e-16          0.1 0.0090001136 0.0035377862  0.029899811 
number of iterations: 44476 
   30800    108.38848       92           90            2 8.9908896e-14 1.0751676e-16          0.1  0.009000115 0.0035978769  0.029899809 
number of iterations: 45660 
   30900    108.92254       92           90            2 9.1425524e-14 1.0743205e-16          0.1  0.009000117 0.0036589812  0.029899805 
number of iterations: 43694 
   31000    109.82386       94           92            2 9.2967736e-14 1.0734753e-16          0.1  0.009000119 0.0037211163  0.029899802 
number of iterations: 43892 
   31100    110.34721       95           93            2 9.4535962e-14 1.0726321e-16          0.1  0.009000121 0.0037842995  0.029899799 
number of iterations: 44082 
   31200    110.80039       97           95            2 9.6130641e-14 1.0717909e-16          0.1 0.0090001229 0.0038485485  0.029899796 
number of iterations: 44272 
   31300    111.25372      101           99            2 9.7752221e-14 1.0709517e-16          0.1 0.0090001249 0.0039138813  0.029899792 
number of iterations: 44463 
   31400    111.75694      103          101            2 9.9401154e-14 1.0701144e-16          0.1 0.0090001271 0.0039803162  0.029899789 
number of iterations: 44653 
   31500    112.24607      103          101            2 1.010779e-13 1.0692791e-16          0.1 0.0090001292 0.0040478717  0.029899785 
number of iterations: 44844 
   31600    112.72089      103          101            2 1.0278293e-13 1.0684458e-16          0.1 0.0090001314 0.0041165668  0.029899781 
number of iterations: 47622 
   31700    113.17884      105          103            2 1.0451673e-13 1.0676145e-16          0.1 0.0090001338 0.0041864206  0.029899777 
number of iterations: 48792 
   31800    113.73117      106          104            2 1.0627977e-13 1.0667853e-16          0.1 0.0090001363 0.0042574528  0.029899773 
number of iterations: 44357 
   31900    114.16817      107          105            2 1.0807255e-13 1.0659581e-16          0.1 0.0090001383 0.0043296832   0.02989977 
number of iterations: 45588 
   32000    115.05173      109          107            2 1.0989557e-13 1.065133e-16          0.1 0.0090001407  0.004403132  0.029899766 
number of iterations: 41744 
   32100    115.52476      111          109            2 1.1174934e-13 1.0643105e-16          0.1  0.009000143 0.0044778198  0.029899762 
number of iterations: 45959 
   32200     116.0425      112          110            2 1.1363439e-13  1.06349e-16          0.1 0.0090001454 0.0045537674  0.029899758 
number of iterations: 46173 
   32300    116.57913      114          112            2 1.1555123e-13 1.0626717e-16          0.1 0.0090001479 0.0046309962  0.029899754 
number of iterations: 49118 
   32400    117.15635      116          114            2 1.175004e-13 1.0618553e-16          0.1 0.0090001498 0.0047095277  0.029899751 
number of iterations: 44191 
   32500    117.61058      119          117            2 1.1948246e-13 1.0610419e-16          0.1 0.0090001521 0.0047893839  0.029899747 
number of iterations: 49827 
   32600     118.1707      120          118            2 1.2149795e-13 1.0602308e-16          0.1  0.009000155 0.0048705871  0.029899742 
number of iterations: 49162 
   32700    118.73772      122          120            2 1.2354744e-13 1.0594219e-16          0.1 0.0090001578 0.0049531602  0.029899737 
number of iterations: 46339 
   32800     119.2097      125          123            2 1.2563149e-13 1.0586153e-16          0.1 0.0090001604 0.0050371261  0.029899733 
number of iterations: 47209 
   32900    119.74307      127          125            2 1.2775071e-13 1.0578109e-16          0.1 0.0090001631 0.0051225084  0.029899729 
number of iterations: 45688 
   33000     120.6535      130          128            2 1.2990567e-13 1.0570089e-16          0.1 0.0090001657 0.0052093309  0.029899724 
number of iterations: 46498 
   33100    121.16108      132          130            2 1.3209698e-13 1.0562092e-16          0.1 0.0090001681  0.005297618   0.02989972 
number of iterations: 46222 
   33200    121.71853      135          133            2 1.3432526e-13 1.0554125e-16          0.1 0.0090001711 0.0053873944  0.029899715 
number of iterations: 51539 
   33300    122.34708      139          137            2 1.3659113e-13 1.0546176e-16          0.1  0.009000174 0.0054786852   0.02989971 
number of iterations: 48103 
   33400    122.88268      140          138            2 1.3889521e-13 1.0538251e-16          0.1 0.0090001769 0.0055715159  0.029899706 
number of iterations: 50658 
   33500    123.43056      142          140            2 1.4123817e-13 1.053035e-16          0.1 0.0090001801 0.0056659125    0.0298997 
number of iterations: 48522 
   33600     123.9215      145          143            2 1.4362064e-13 1.0522474e-16          0.1 0.0090001832 0.0057619015  0.029899695 
number of iterations: 41743 
   33700    124.41823      149          147            2 1.460433e-13 1.0514628e-16          0.1  0.009000186 0.0058595096   0.02989969 
number of iterations: 50552 
   33800    125.00929      149          147            2 1.4850683e-13 1.0506808e-16          0.1 0.0090001894 0.0059587643  0.029899685 
number of iterations: 49049 
   33900    125.50224      149          147            2 1.5101192e-13 1.0499013e-16          0.1 0.0090001926 0.0060596932   0.02989968 
number of iterations: 49246 
   34000    126.40862      150          148            2 1.5355926e-13 1.0491244e-16          0.1 0.0090001958 0.0061623246  0.029899674 
number of iterations: 45447 
   34100    126.87325      152          150            2 1.5614958e-13 1.0483506e-16          0.1 0.0090001991 0.0062666873  0.029899669 
number of iterations: 49564 
   34200    127.44317      153          151            2 1.5878358e-13 1.0475795e-16          0.1 0.0090002025 0.0063728104  0.029899663 
number of iterations: 48311 
   34300    127.95665      154          152            2 1.6146202e-13 1.0468111e-16          0.1 0.0090002058 0.0064807236  0.029899658 
number of iterations: 49951 
   34400    128.50986      157          155            2 1.6418564e-13 1.0460454e-16          0.1 0.0090002093 0.0065904572  0.029899652 
number of iterations: 50145 
   34500     129.0821      161          159            2 1.6695521e-13 1.0452825e-16          0.1 0.0090002128 0.0067020418  0.029899646 
number of iterations: 49680 
   34600    129.61681      168          166            2 1.6977149e-13 1.0445222e-16          0.1 0.0090002165 0.0068155087   0.02989964 
number of iterations: 51536 
   34700    130.21774      176          174            2 1.7263528e-13 1.0437656e-16          0.1 0.0090002202 0.0069308896  0.029899633 
number of iterations: 45175 
   34800    130.74262      179          177            2 1.7554738e-13 1.0430127e-16          0.1 0.0090002237 0.0070482168  0.029899628 
number of iterations: 49865 
   34900    131.29895      182          180            2 1.7850859e-13 1.0422628e-16          0.1 0.0090002275 0.0071675231  0.029899621 
number of iterations: 48828 
   35000    132.36103      184          182            2 1.8151976e-13 1.0415159e-16          0.1 0.0090002311 0.0072888419  0.029899615 
Loop time of 132.361 on 6 procs for 35000 steps with 184 atoms

Performance: 228465960.936 tau/day, 264.428 timesteps/s
94.3% CPU use with 6 MPI tasks x no OpenMP threads

MPI task timing breakdown:
Section |  min time  |  avg time  |  max time  |%varavg| %total
---------------------------------------------------------------
Pair    | 0.024172   | 0.031437   | 0.059359   |   7.2 |  0.02
Neigh   | 14.737     | 15.642     | 17.344     |  29.7 | 11.82
Comm    | 15.035     | 15.051     | 15.084     |   0.6 | 11.37
Output  | 10.857     | 10.859     | 10.859     |   0.0 |  8.20
Modify  | 88.766     | 90.212     | 91.052     |  10.8 | 68.16
Other   |            | 0.565      |            |       |  0.43

Nlocal:    30.6667 ave 147 max 0 min
Histogram: 4 0 1 0 0 0 0 0 0 1
Nghost:    12.5 ave 45 max 0 min
Histogram: 4 0 0 0 0 0 1 0 0 1
Neighs:    108.333 ave 524 max 0 min
Histogram: 4 0 1 0 0 0 0 0 0 1

Total # of neighbors = 650
Ave neighs/atom = 3.53261
Neighbor list builds = 408
Dangerous builds = 0
Total wall time: 0:02:13
