LAMMPS (20 Nov 2019)
Reading data file ...
  orthogonal box = (0 0 0) to (0.0001 0.0001 0.0001)
  2 by 4 by 4 MPI processor grid
  reading atoms ...
  100 atoms
  4 nutrients
Lattice spacing in x,y,z = 100 100 100
100 atoms in group CYANO
0 atoms in group ECW
Model is defined as a closed system. 
Neighbor list info ...
  update every 1 steps, delay 0 steps, check yes
  max neighbors/atom: 5000, page size: 100000
  master list distance cutoff = 2.44e-06
  ghost atom cutoff = 2.44e-06
  binsize = 1.22e-06, bins = 82 82 82
  1 neighbor lists, perpetual/occasional/extra = 1 0 0
  (1) pair gran/hooke/history, perpetual
      attributes: half, newton off, size, history
      pair build: half/size/bin/newtoff
      stencil: half/bin/3d/newtoff
      bin: standard
Setting up Verlet run ...
  Unit style    : lj
  Current step  : 0
  Time step     : 10
Per MPI rank memory allocation (min/avg/max) = 5.856 | 9.727 | 10.91 Mbytes
Step CPU Atoms c_myNtypes[1] c_myNtypes[2] c_myMass[1] c_myMass[2] c_myCon[1] c_myCon[2] c_myCon[3] c_myCon[4] 
       0            0      100          100            0 9.1501399e-14            0          0.1        0.009     3.42e-20       0.0299 
number of iterations: 124700 
     100    1.3281182      100          100            0 9.3094072e-14            0          0.1 0.0090010449 1.3650383e-05   0.02989826 
number of iterations: 107923 
     200    2.4335732      100          100            0 9.4714466e-14            0          0.1 0.0090010631 3.6270821e-05   0.02989823 
number of iterations: 96671 
     300    3.4425489      103          103            0 9.6363065e-14            0          0.1 0.0090010816 7.059909e-05  0.029898199 
number of iterations: 86580 
     400    4.3797165      106          106            0 9.8040359e-14            0          0.1 0.0090011004 0.00012248864  0.029898168 
number of iterations: 77153 
     500    5.2072953      107          107            0 9.9746849e-14            0          0.1 0.0090011196 0.00020070104  0.029898136 
number of iterations: 68124 
     600     5.941539      109          109            0 1.0148304e-13            0          0.1  0.009001139 0.00031840656  0.029898103 
number of iterations: 59317 
     700    6.5949041      111          111            0 1.0324945e-13            0          0.1 0.0090011589 0.00049565568   0.02989807 
number of iterations: 50576 
     800    7.1987026      112          112            0 1.0504661e-13            0          0.1  0.009001179 0.00076383142  0.029898037 
number of iterations: 41603 
     900    7.6864362      115          115            0 1.0687505e-13            0          0.1 0.0090011989 0.0011756115  0.029898004 
number of iterations: 31999 
    1000    8.0888827      116          116            0 1.0873532e-13            0          0.1 0.0090012198 0.0018347943  0.029897969 
number of iterations: 20761 
    1100    8.3749512      116          116            0 1.1062796e-13            0          0.1  0.009001241 0.0030009838  0.029897934 
number of iterations: 16422 
    1200    8.6169546      119          119            0 1.1255355e-13            0          0.1  0.009001265 0.0046196937  0.029897894 
number of iterations: 17776 
    1300    8.8603208      123          123            0 1.1451266e-13            0          0.1 0.0090012881  0.006748365  0.029897855 
number of iterations: 16673 
    1400    9.0852679      123          123            0 1.1650586e-13            0          0.1 0.0090013105  0.009291304  0.029897818 
number of iterations: 16729 
    1500    9.3099595      128          128            0 1.1853376e-13            0          0.1 0.0090013333  0.012218273   0.02989778 
number of iterations: 16784 
    1600    9.5306913      128          128            0 1.2059696e-13            0          0.1 0.0090013565  0.015482838  0.029897741 
number of iterations: 16840 
    1700    9.7520321      129          129            0 1.2269607e-13            0          0.1 0.0090013801  0.018969998  0.029897702 
number of iterations: 16895 
    1800    9.9727269      132          132            0 1.2483172e-13            0          0.1 0.0090014042  0.022675883  0.029897662 
number of iterations: 16951 
    1900    10.190703      132          132            0 1.2700454e-13            0          0.1 0.0090014286  0.026599276  0.029897621 
number of iterations: 17007 
    2000    10.409242      133          133            0 1.2921518e-13            0          0.1 0.0090014535  0.030740552   0.02989758 
number of iterations: 17062 
    2100    10.627868      137          137            0 1.3146429e-13            0          0.1 0.0090014788  0.035101274  0.029897538 
number of iterations: 17147 
    2200    10.849541      141          141            0 1.3375256e-13            0          0.1 0.0090015085  0.039693967  0.029897488 
number of iterations: 17174 
    2300      11.0694      141          141            0 1.3608065e-13            0          0.1 0.0090015347   0.04451233  0.029897445 
number of iterations: 17229 
    2400    11.291838      142          142            0 1.3844927e-13            0          0.1 0.0090015614  0.049559696    0.0298974 
number of iterations: 17285 
    2500     11.51068      142          142            0 1.4085912e-13            0          0.1 0.0090015886  0.054840613  0.029897355 
number of iterations: 17341 
    2600    11.731754      142          142            0 1.4331091e-13            0          0.1 0.0090016163  0.060359937  0.029897309 
number of iterations: 17396 
    2700    11.951385      145          145            0 1.4580538e-13            0          0.1 0.0090016444   0.06612309  0.029897262 
number of iterations: 17452 
    2800    12.169941      148          148            0 1.4834326e-13            0          0.1  0.009001673  0.072135477  0.029897214 
number of iterations: 17507 
    2900    12.389326      150          150            0 1.5092532e-13            0          0.1 0.0090017022  0.078402587  0.029897166 
number of iterations: 17563 
    3000    12.613117      151          151            0 1.5355233e-13            0          0.1 0.0090017318   0.08493112  0.029897116 
number of iterations: 17619 
    3100    12.832411      151          151            0 1.5622506e-13            0          0.1 0.0090017619  0.091728317  0.029897066 
number of iterations: 17674 
    3200    13.051426      152          152            0 1.5894431e-13            0          0.1 0.0090017926  0.098799857  0.029897015 
number of iterations: 17730 
    3300     13.27316      152          152            0 1.6171089e-13            0          0.1 0.0090018238   0.10609195  0.029896963 
number of iterations: 17785 
    3400    13.495059      154          154            0 1.6452563e-13            0          0.1 0.0090018555   0.11359048   0.02989691 
number of iterations: 17841 
    3500    13.717556      156          156            0 1.6738936e-13            0          0.1 0.0090018878   0.12129697  0.029896857 
number of iterations: 17897 
    3600    13.938391      156          156            0 1.7030293e-13            0          0.1 0.0090019207   0.12921264  0.029896802 
number of iterations: 17952 
    3700    14.161725      159          159            0 1.7326722e-13            0          0.1 0.0090019541   0.13733973  0.029896746 
number of iterations: 18008 
    3800    14.416771      163          163            0 1.7628311e-13            0          0.1 0.0090019882   0.14568166   0.02989669 
number of iterations: 18063 
    3900    14.641163      164          164            0 1.7935149e-13            0          0.1 0.0090020228   0.15424032  0.029896632 
number of iterations: 18084 
    4000    14.868485      169          169            0 1.8247328e-13            0          0.1 0.0090020562   0.16301951  0.029896576 
number of iterations: 18719 
    4100    15.103889      172          172            0 1.8564941e-13            0          0.1 0.0090021004   0.17202127  0.029896503 
number of iterations: 18240 
    4200    15.331942      172          172            0 1.8888082e-13            0          0.1  0.009002137   0.18124726  0.029896442 
number of iterations: 17117 
    4300    15.566327      178          178            0 1.9216847e-13            0          0.1  0.009002173    0.1907019  0.029896382 
number of iterations: 18335 
    4400    15.796375      183          183            0 1.9551336e-13            0          0.1 0.0090022108   0.20038609  0.029896319 
number of iterations: 18390 
    4500    16.027475      185          185            0 1.9891646e-13            0          0.1 0.0090022493    0.2103058  0.029896255 
number of iterations: 18445 
    4600    16.274361      189          189            0 2.0237879e-13            0          0.1 0.0090022884   0.22046168   0.02989619 
number of iterations: 18836 
    4700    16.509086      197          197            0 2.0590139e-13            0          0.1 0.0090023325    0.2308623  0.029896116 
number of iterations: 18724 
    4800    16.741338      207          207            0 2.0948531e-13            0          0.1 0.0090023724    0.2415071   0.02989605 
number of iterations: 18451 
    4900     17.01061      213          213            0 2.1313161e-13            0          0.1 0.0090024144    0.2523989   0.02989598 
number of iterations: 18509 
    5000    17.246471      216          216            0 2.1684137e-13            0          0.1 0.0090024552   0.26354315  0.029895912 
number of iterations: 18184 
    5100    17.477222      219          219            0 2.2061571e-13            0          0.1 0.0090024962   0.27494399  0.029895844 
number of iterations: 18550 
    5200    17.710032      223          223            0 2.2445574e-13            0          0.1 0.0090025346   0.28660386   0.02989578 
number of iterations: 18826 
    5300    17.944313      227          227            0 2.2836261e-13            0          0.1 0.0090025787   0.29852848  0.029895706 
number of iterations: 18882 
    5400    18.179905      232          232            0 2.3233749e-13            0          0.1 0.0090026236    0.3107196  0.029895632 
number of iterations: 19098 
    5500    18.419716      243          243            0 2.3638155e-13            0          0.1 0.0090026685   0.32318314  0.029895557 
number of iterations: 18996 
    5600    18.654077      248          248            0  2.40496e-13            0          0.1  0.009002715   0.33592333  0.029895479 
number of iterations: 19051 
    5700    18.892772      253          253            0 2.4468207e-13            0          0.1 0.0090027622   0.34894409  0.029895401 
number of iterations: 18927 
    5800     19.13722      259          259            0  2.48941e-13            0          0.1 0.0090027996   0.36224315  0.029895338 
number of iterations: 19159 
    5900    19.393118      264          264            0 2.5327406e-13            0          0.1 0.0090028489   0.37583591  0.029895256 
number of iterations: 19215 
    6000    19.633276      266          266            0 2.5768255e-13            0          0.1 0.0090028985   0.38972087  0.029895174 
number of iterations: 19271 
    6100    19.871219      268          268            0 2.6216776e-13            0          0.1 0.0090029489   0.40390723   0.02989509 
number of iterations: 19376 
    6200    20.117262      272          272            0 2.6673105e-13            0          0.1 0.0090030024   0.41839395  0.029895001 
number of iterations: 18580 
    6300    20.365358      276          276            0 2.7137376e-13            0          0.1 0.0090030475   0.43319002  0.029894926 
number of iterations: 19426 
    6400     20.60858      282          282            0 2.7609729e-13            0          0.1 0.0090031006   0.44830209  0.029894837 
number of iterations: 19482 
    6500    20.851055      283          283            0 2.8090303e-13            0          0.1 0.0090031546   0.46373407  0.029894747 
number of iterations: 19538 
    6600    21.112218      283          283            0 2.8579242e-13            0          0.1 0.0090032085   0.47948608  0.029894658 
number of iterations: 19593 
    6700    21.355502      287          287            0 2.9076692e-13            0          0.1 0.0090032644    0.4955689  0.029894565 
number of iterations: 20532 
    6800    21.608673      293          293            0  2.95828e-13            0          0.1  0.009003322   0.51198963  0.029894469 
number of iterations: 19722 
    6900     21.85384      299          299            0 3.0097718e-13            0          0.1 0.0090033798   0.52875223  0.029894372 
number of iterations: 19778 
    7000    22.099215      299          299            0 3.0621598e-13            0          0.1 0.0090034387   0.54586057  0.029894274 
number of iterations: 19833 
    7100      22.3455      300          300            0 3.1154596e-13            0          0.1 0.0090034985   0.56332192  0.029894175 
number of iterations: 20022 
    7200    22.593257      302          302            0 3.1696872e-13            0          0.1 0.0090035595   0.58114371  0.029894073 
number of iterations: 19947 
    7300    22.842932      308          308            0 3.2248587e-13            0          0.1 0.0090036215   0.59932989   0.02989397 
number of iterations: 20175 
    7400    23.090643      311          311            0 3.2809905e-13            0          0.1 0.0090036847   0.61788803  0.029893865 
number of iterations: 19172 
    7500    23.330392      316          316            0 3.3380994e-13            0          0.1 0.0090037439   0.63682568  0.029893766 
number of iterations: 20798 
    7600    23.589183      323          323            0 3.3962022e-13            0          0.1 0.0090038146   0.65614865  0.029893648 
number of iterations: 20216 
    7700    23.847318      331          331            0 3.4553164e-13            0          0.1 0.0090038837   0.67586152  0.029893533 
number of iterations: 20229 
    7800    24.120932      340          340            0 3.5154596e-13            0          0.1 0.0090039513   0.69597003  0.029893421 
number of iterations: 20209 
    7900    24.408494      344          344            0 3.5766496e-13            0          0.1 0.0090040284   0.71648878  0.029893292 
number of iterations: 20783 
    8000    24.668852      350          350            0 3.6389046e-13            0          0.1 0.0090040942   0.73770805  0.029893183 
number of iterations: 19808 
    8100    24.914997      358          358            0 3.7022433e-13            0          0.1 0.0090041676   0.75935483  0.029893061 
number of iterations: 20449 
    8200    25.166921      362          362            0 3.7666844e-13            0          0.1 0.0090042402   0.78143711   0.02989294 
number of iterations: 20505 
    8300    25.419199      366          366            0 3.8322472e-13            0          0.1  0.009004314   0.80395913  0.029892817 
number of iterations: 20864 
    8400    25.676395      372          372            0 3.8989512e-13            0          0.1 0.0090043894   0.82692977  0.029892691 
number of iterations: 20621 
    8500    25.933251      380          380            0 3.9668162e-13            0          0.1 0.0090044654   0.85035729  0.029892565 
number of iterations: 20746 
    8600    26.189263      392          392            0 4.0358625e-13            0          0.1  0.009004544   0.87425177  0.029892434 
number of iterations: 20734 
    8700    26.448136      398          398            0 4.1061106e-13            0          0.1 0.0090046227   0.89861721  0.029892303 
Loop time of 26.4482 on 32 procs for 8700 steps with 398 atoms

Performance: 284208837.073 tau/day, 328.945 timesteps/s
98.5% CPU use with 32 MPI tasks x no OpenMP threads

MPI task timing breakdown:
Section |  min time  |  avg time  |  max time  |%varavg| %total
---------------------------------------------------------------
Pair    | 0.00043887 | 0.002314   | 0.0045787  |   2.3 |  0.01
Neigh   | 0.0011055  | 0.0018955  | 0.0044071  |   1.7 |  0.01
Comm    | 0.016679   | 0.034823   | 0.049404   |   4.3 |  0.13
Output  | 0.87832    | 0.87864    | 0.88039    |   0.0 |  3.32
Modify  | 25.484     | 25.488     | 25.492     |   0.0 | 96.37
Other   |            | 0.04251    |            |       |  0.16

Nlocal:    12.4375 ave 28 max 0 min
Histogram: 3 3 5 5 4 4 1 1 4 2
Nghost:    6.40625 ave 18 max 0 min
Histogram: 3 5 8 8 0 1 3 3 0 1
Neighs:    12.8125 ave 39 max 0 min
Histogram: 4 6 6 6 2 4 3 0 0 1

Total # of neighbors = 410
Ave neighs/atom = 1.03015
Neighbor list builds = 99
Dangerous builds = 0
Total wall time: 0:00:26
