 NUFEB Simulation

     50 atoms 
     2 atom types 
     4 nutrients 

  0.0e-4   1.00e-04  xlo xhi 
  0.0e-4   1.00e-04  ylo yhi 
  0.0e-4   5.00e-05  zlo zhi 

 Atoms 

     1 1 1.49e-06  370 9.38e-05 8.72e-05 1.04e-05 1.49e-06 
     2 1 1.44e-06  370 3.53e-06 2.37e-05 5.44e-06 1.44e-06 
     3 1 1.61e-06  370 4.31e-05 1.28e-05 4.82e-05 1.61e-06 
     4 1 1.52e-06  370 8.65e-05 6.88e-05 8.70e-06 1.52e-06 
     5 1 1.67e-06  370 4.71e-05 3.73e-05 6.25e-06 1.67e-06 
     6 1 1.38e-06  370 5.91e-05 8.39e-05 2.37e-05 1.38e-06 
     7 1 1.46e-06  370 2.15e-05 4.96e-05 3.47e-05 1.46e-06 
     8 1 1.51e-06  370 2.69e-05 8.39e-05 1.66e-05 1.51e-06 
     9 1 1.91e-06  370 4.53e-05 8.83e-05 1.93e-06 1.91e-06 
     10 1 1.74e-06  370 2.66e-05 3.84e-06 3.19e-06 1.74e-06 
     11 1 1.78e-06  370 8.28e-05 9.59e-05 4.38e-05 1.78e-06 
     12 1 1.65e-06  370 2.11e-05 6.00e-05 2.83e-05 1.65e-06 
     13 1 1.57e-06  370 3.56e-05 8.96e-05 3.41e-05 1.57e-06 
     14 1 1.45e-06  370 4.06e-05 6.62e-05 9.41e-06 1.45e-06 
     15 1 1.51e-06  370 7.77e-05 2.91e-05 3.64e-05 1.51e-06 
     16 1 1.68e-06  370 7.40e-05 4.80e-05 1.57e-05 1.68e-06 
     17 1 1.49e-06  370 6.87e-05 6.32e-05 1.76e-05 1.49e-06 
     18 1 1.52e-06  370 8.38e-05 6.19e-05 4.29e-05 1.52e-06 
     19 1 1.64e-06  370 6.07e-05 6.79e-06 3.56e-05 1.64e-06 
     20 1 1.88e-06  370 4.07e-05 5.93e-05 1.40e-05 1.88e-06 
     21 1 1.39e-06  370 3.59e-05 7.03e-05 3.69e-05 1.39e-06 
     22 1 1.50e-06  370 5.50e-05 4.98e-05 6.76e-06 1.50e-06 
     23 1 1.50e-06  370 8.32e-05 4.19e-05 1.55e-05 1.50e-06 
     24 1 1.77e-06  370 4.66e-05 5.09e-05 1.21e-05 1.77e-06 
     25 1 1.83e-06  370 6.36e-05 2.95e-06 4.70e-05 1.83e-06 
     26 1 1.63e-06  370 9.48e-06 5.65e-05 4.38e-05 1.63e-06 
     27 1 1.77e-06  370 4.79e-05 4.52e-05 1.77e-05 1.77e-06 
     28 1 1.40e-06  370 4.66e-05 9.72e-06 1.11e-05 1.40e-06 
     29 1 1.75e-06  370 3.05e-05 4.81e-05 2.24e-05 1.75e-06 
     30 1 1.64e-06  370 1.21e-05 2.32e-05 3.17e-05 1.64e-06 
     31 1 1.73e-06  370 6.16e-05 6.19e-05 2.47e-05 1.73e-06 
     32 1 1.92e-06  370 2.97e-05 7.73e-05 3.08e-05 1.92e-06 
     33 1 1.47e-06  370 6.42e-05 4.34e-05 1.58e-05 1.47e-06 
     34 1 1.88e-06  370 5.53e-05 6.93e-06 4.43e-05 1.88e-06 
     35 1 1.92e-06  370 6.64e-05 5.49e-05 1.19e-05 1.92e-06 
     36 1 1.44e-06  370 9.73e-05 9.06e-05 5.52e-06 1.44e-06 
     37 1 1.60e-06  370 1.43e-05 8.43e-05 3.36e-05 1.60e-06 
     38 1 1.56e-06  370 8.42e-05 8.35e-05 2.45e-05 1.56e-06 
     39 1 1.88e-06  370 9.01e-05 5.88e-05 2.44e-05 1.88e-06 
     40 1 1.78e-06  370 8.68e-05 4.07e-05 1.23e-05 1.78e-06 
     41 1 1.83e-06  370 2.48e-05 8.05e-05 4.54e-05 1.83e-06 
     42 1 1.53e-06  370 8.91e-06 9.39e-05 9.53e-06 1.53e-06 
     43 1 1.45e-06  370 2.05e-05 9.71e-05 1.96e-05 1.45e-06 
     44 1 1.48e-06  370 4.26e-05 4.57e-05 2.62e-06 1.48e-06 
     45 1 1.89e-06  370 5.58e-05 5.82e-05 3.18e-05 1.89e-06 
     46 1 1.77e-06  370 5.76e-05 5.47e-05 4.33e-05 1.77e-06 
     47 1 1.67e-06  370 4.62e-05 8.72e-05 4.71e-05 1.67e-06 
     48 1 1.81e-06  370 7.13e-05 6.50e-05 3.62e-05 1.81e-06 
     49 1 1.85e-06  370 9.96e-06 8.79e-05 1.13e-05 1.85e-06 
     50 1 1.68e-06  370 7.65e-05 9.48e-05 1.19e-05 1.68e-06 

 Nutrients 

     1 sub g nn nn nn 1.00e-01 1.00e-01 
     2 o2 l nn nn nd 9.00e-03 9.00e-03 
     3 suc l nn nn nn 3.42e-20 3.42e-20 
     4 co2 l nn nn nd 2.99e-02 2.99e-02 

 Type Name 

     1 cyano  
     2 ecw  

 Diffusion Coeffs 

     sub 0 
     o2 2.3e-09 
     suc 5.2e-10 
     co2 1.9e-09 

 Growth Rate 

     cyano 2.047e-05 
     ecw 6.71e-05 

 Ks 

     cyano 0.00035 0.0002 0.01 0.000138 
     ecw 0 0.001 3.6 0.05 

 Yield 

     cyano 0.55 
     ecw 0.43 

 Maintenance 

     cyano 0 
     ecw 9.5e-07 

 Decay 

     cyano 0 
     ecw 0 



