LAMMPS (20 Nov 2019)
Reading data file ...
  orthogonal box = (0 0 0) to (0.0001 0.0001 0.0001)
  2 by 4 by 4 MPI processor grid
  reading atoms ...
  100 atoms
  4 nutrients
Lattice spacing in x,y,z = 100 100 100
100 atoms in group CYANO
0 atoms in group ECW
Model is defined as a closed system. 
Neighbor list info ...
  update every 1 steps, delay 0 steps, check yes
  max neighbors/atom: 5000, page size: 100000
  master list distance cutoff = 2.44e-06
  ghost atom cutoff = 2.44e-06
  binsize = 1.22e-06, bins = 82 82 82
  1 neighbor lists, perpetual/occasional/extra = 1 0 0
  (1) pair gran/hooke/history, perpetual
      attributes: half, newton off, size, history
      pair build: half/size/bin/newtoff
      stencil: half/bin/3d/newtoff
      bin: standard
Setting up Verlet run ...
  Unit style    : lj
  Current step  : 0
  Time step     : 10
Per MPI rank memory allocation (min/avg/max) = 5.856 | 9.05 | 10.91 Mbytes
Step CPU Atoms c_myNtypes[1] c_myNtypes[2] c_myMass[1] c_myMass[2] c_myCon[1] c_myCon[2] c_myCon[3] c_myCon[4] 
       0            0      100          100            0 8.6721712e-14            0          0.1        0.009     3.42e-20       0.0299 
number of iterations: 123516 
     100    1.3120528      100          100            0 8.8287935e-14            0          0.1  0.009000903 1.0788805e-05  0.029898496 
number of iterations: 108968 
     200    2.4227626      100          100            0 8.9882444e-14            0          0.1 0.0090009194 2.755117e-05  0.029898469 
number of iterations: 97157 
     300    3.4349553      101          101            0 9.150575e-14            0          0.1  0.009000936 5.3418638e-05  0.029898442 
number of iterations: 86485 
     400    4.3370565      101          101            0 9.3158374e-14            0          0.1 0.0090009529 9.3446192e-05  0.029898413 
number of iterations: 76356 
     500    5.1493257      102          102            0 9.4840845e-14            0          0.1 0.0090009701 0.00015575255  0.029898385 
number of iterations: 66414 
     600    5.8626369      102          102            0 9.6553702e-14            0          0.1 0.0090009876 0.00025375337  0.029898356 
number of iterations: 56360 
     700    6.5128493      103          103            0 9.8297494e-14            0          0.1 0.0090010054 0.00041071761  0.029898326 
number of iterations: 47098 
     800    7.0832337      106          106            0 1.0007278e-13            0          0.1 0.0090010236 0.0006555737  0.029898296 
number of iterations: 38766 
     900    7.5377634      106          106            0 1.0188013e-13            0          0.1 0.0090010421 0.0010242255  0.029898265 
number of iterations: 30707 
    1000    7.9138034      106          106            0 1.0372011e-13            0          0.1 0.0090010609 0.0015767719  0.029898234 
number of iterations: 22297 
    1100    8.2099331      108          108            0 1.0559333e-13            0          0.1 0.0090010715 0.0024266418  0.029898216 
number of iterations: 15659 
    1200    8.4411939      111          111            0 1.0750038e-13            0          0.1 0.0090010909 0.0036540108  0.029898184 
number of iterations: 14895 
    1300    8.6585283      114          114            0 1.0944188e-13            0          0.1 0.0090011106 0.0051992015  0.029898151 
number of iterations: 14594 
    1400    8.8645567      115          115            0 1.1141843e-13            0          0.1 0.0090011301 0.0071532007  0.029898118 
number of iterations: 15007 
    1500    9.0701662      116          116            0 1.1343069e-13            0          0.1 0.0090011505  0.009525989  0.029898084 
number of iterations: 15066 
    1600    9.2749144      117          117            0 1.1547928e-13            0          0.1 0.0090011713  0.012152536   0.02989805 
number of iterations: 15125 
    1700    9.4777245      118          118            0 1.1756488e-13            0          0.1 0.0090011925   0.01500694  0.029898015 
number of iterations: 15184 
    1800    9.6781402      120          120            0 1.1968814e-13            0          0.1  0.009001214  0.018070668  0.029897979 
number of iterations: 15242 
    1900    9.8780651      121          121            0 1.2184974e-13            0          0.1 0.0090012359  0.021330639  0.029897942 
number of iterations: 16115 
    2000    10.086457      129          129            0 1.2405039e-13            0          0.1 0.0090012572  0.024753193  0.029897907 
number of iterations: 15226 
    2100    10.284413      131          131            0 1.2629078e-13            0          0.1 0.0090012799  0.028357271  0.029897869 
number of iterations: 17060 
    2200    10.503553      135          135            0 1.2857163e-13            0          0.1 0.0090013078   0.03214527  0.029897822 
number of iterations: 15423 
    2300    10.702703      136          136            0 1.3089368e-13            0          0.1 0.0090013315  0.036106612  0.029897783 
number of iterations: 15484 
    2400    10.902223      137          137            0 1.3325766e-13            0          0.1 0.0090013555  0.040238711  0.029897743 
number of iterations: 15543 
    2500    11.102387      137          137            0 1.3566434e-13            0          0.1   0.00900138  0.044539239  0.029897702 
number of iterations: 15601 
    2600    11.303434      140          140            0 1.3811448e-13            0          0.1 0.0090014045  0.049003768  0.029897661 
number of iterations: 15976 
    2700    11.508174      143          143            0 1.4060887e-13            0          0.1 0.0090014327  0.053644458  0.029897615 
number of iterations: 15964 
    2800    11.714671      145          145            0 1.4314831e-13            0          0.1 0.0090014639  0.058461436  0.029897563 
number of iterations: 18296 
    2900     11.94399      147          147            0 1.4573362e-13            0          0.1 0.0090014912  0.063441402  0.029897517 
number of iterations: 15913 
    3000    12.146001      150          150            0 1.4836562e-13            0          0.1 0.0090015178    0.0685858  0.029897473 
number of iterations: 15974 
    3100    12.349567      153          153            0 1.5104515e-13            0          0.1 0.0090015452  0.073899226  0.029897427 
number of iterations: 16033 
    3200    12.558268      156          156            0 1.5377307e-13            0          0.1 0.0090015731   0.07938272  0.029897381 
number of iterations: 16092 
    3300    12.765002      157          157            0 1.5655026e-13            0          0.1 0.0090016015  0.085037697  0.029897333 
number of iterations: 16151 
    3400    12.968294      157          157            0 1.5937761e-13            0          0.1 0.0090016305   0.09086518  0.029897285 
number of iterations: 16210 
    3500    13.173353      157          157            0 1.6225602e-13            0          0.1 0.0090016599  0.096866702  0.029897236 
number of iterations: 16269 
    3600    13.379168      157          157            0 1.6518642e-13            0          0.1 0.0090016899   0.10304443  0.029897186 
number of iterations: 16328 
    3700    13.584537      160          160            0 1.6816974e-13            0          0.1 0.0090017204   0.10940132  0.029897135 
number of iterations: 16273 
    3800    13.790078      163          163            0 1.7120694e-13            0          0.1 0.0090017511   0.11593784  0.029897084 
number of iterations: 16444 
    3900    13.996094      167          167            0 1.7429899e-13            0          0.1 0.0090017827   0.12265678  0.029897032 
number of iterations: 17269 
    4000    14.213619      168          168            0 1.7744689e-13            0          0.1 0.0090018148    0.1295578  0.029896978 
number of iterations: 16965 
    4100    14.425157      173          173            0 1.8065164e-13            0          0.1 0.0090018561   0.13667483  0.029896909 
number of iterations: 16643 
    4200     14.63242      177          177            0 1.8391426e-13            0          0.1 0.0090018897   0.14398387  0.029896854 
number of iterations: 16702 
    4300    14.841107      178          178            0 1.8723581e-13            0          0.1 0.0090019238   0.15148817  0.029896797 
number of iterations: 17382 
    4400    15.057778      180          180            0 1.9061735e-13            0          0.1 0.0090019662   0.15921802  0.029896726 
number of iterations: 16831 
    4500    15.269212      183          183            0 1.9405996e-13            0          0.1 0.0090020017   0.16715165  0.029896667 
number of iterations: 16890 
    4600    15.479363      185          185            0 1.9756475e-13            0          0.1 0.0090020379   0.17529215  0.029896607 
number of iterations: 16801 
    4700    15.688496      190          190            0 2.0113283e-13            0          0.1 0.0090020746   0.18363389  0.029896546 
number of iterations: 17005 
    4800    15.898868      192          192            0 2.0476536e-13            0          0.1  0.009002112   0.19218813  0.029896483 
number of iterations: 17064 
    4900    16.111282      195          195            0 2.0846348e-13            0          0.1 0.0090021502    0.2009607   0.02989642 
number of iterations: 17123 
    5000    16.334846      202          202            0 2.122284e-13            0          0.1  0.009002189   0.20995287  0.029896355 
number of iterations: 17182 
    5100    16.567651      207          207            0 2.1606131e-13            0          0.1 0.0090022287   0.21917009  0.029896289 
number of iterations: 19313 
    5200    16.826487      216          216            0 2.1996345e-13            0          0.1 0.0090022701   0.22856869   0.02989622 
number of iterations: 16040 
    5300    17.034725      219          219            0 2.2393606e-13            0          0.1 0.0090023073   0.23819517  0.029896158 
number of iterations: 17392 
    5400    17.249835      222          222            0 2.2798042e-13            0          0.1 0.0090023489   0.24805341  0.029896089 
number of iterations: 17450 
    5500    17.465639      227          227            0 2.3209782e-13            0          0.1 0.0090023914   0.25814931  0.029896018 
number of iterations: 17384 
    5600    17.682309      235          235            0 2.3628958e-13            0          0.1 0.0090024324   0.26848683   0.02989595 
number of iterations: 17772 
    5700    17.903655      242          242            0 2.4055704e-13            0          0.1 0.0090024855   0.27906983  0.029895861 
number of iterations: 17222 
    5800    18.119113      247          247            0 2.4490158e-13            0          0.1  0.009002526   0.28939576  0.029895794 
number of iterations: 17628 
    5900    18.338912      251          251            0 2.4932458e-13            0          0.1  0.009002569   0.29995836  0.029895722 
number of iterations: 16177 
    6000    18.542579      257          257            0 2.5382746e-13            0          0.1 0.0090026117   0.31075881  0.029895651 
number of iterations: 17775 
    6100    18.765188      261          261            0 2.5841167e-13            0          0.1 0.0090026588   0.32180286  0.029895573 
number of iterations: 17833 
    6200    18.987032      266          266            0 2.6307866e-13            0          0.1 0.0090027069    0.3330942  0.029895493 
number of iterations: 17892 
    6300    19.208297      268          268            0 2.6782995e-13            0          0.1 0.0090027558   0.34463856  0.029895411 
number of iterations: 17951 
    6400    19.431744      274          274            0 2.7266704e-13            0          0.1 0.0090028055   0.35643758  0.029895329 
number of iterations: 18009 
    6500    19.653647      281          281            0 2.7759149e-13            0          0.1 0.0090028562   0.36849705  0.029895244 
number of iterations: 18068 
    6600    19.877063      283          283            0 2.8260488e-13            0          0.1 0.0090029078   0.38082289  0.029895158 
number of iterations: 18127 
    6700    20.102464      286          286            0 2.8770881e-13            0          0.1 0.0090029603   0.39341888  0.029895071 
number of iterations: 18005 
    6800    20.325883      292          292            0 2.9290493e-13            0          0.1 0.0090030107   0.40628642  0.029894987 
number of iterations: 18761 
    6900    20.558954      296          296            0 2.9819488e-13            0          0.1 0.0090030681    0.4194331  0.029894891 
number of iterations: 18309 
    7000    20.785119      299          299            0 3.0358037e-13            0          0.1 0.0090031235   0.43286361  0.029894799 
number of iterations: 18368 
    7100    21.011001      307          307            0 3.0906313e-13            0          0.1 0.0090031799   0.44658422  0.029894705 
number of iterations: 18427 
    7200    21.237454      313          313            0 3.1464491e-13            0          0.1 0.0090032373   0.46060133   0.02989461 
number of iterations: 18485 
    7300     21.46578      314          314            0 3.2032749e-13            0          0.1 0.0090032958   0.47491887  0.029894512 
number of iterations: 18163 
    7400    21.688917      317          317            0 3.2611271e-13            0          0.1 0.0090033484   0.48950305  0.029894425 
number of iterations: 17997 
    7500    21.912496      325          325            0 3.320024e-13            0          0.1 0.0090034074   0.50439722  0.029894326 
number of iterations: 18426 
    7600    22.140689      328          328            0 3.3799847e-13            0          0.1 0.0090034597   0.51960724  0.029894239 
number of iterations: 18747 
    7700    22.371466      333          333            0 3.4410283e-13            0          0.1 0.0090035243   0.53513843  0.029894132 
number of iterations: 19787 
    7800    22.617703      338          338            0 3.5031743e-13            0          0.1 0.0090035939   0.55099455  0.029894016 
number of iterations: 18839 
    7900    22.849885      343          343            0 3.5664427e-13            0          0.1 0.0090036588   0.56718526  0.029893908 
number of iterations: 18898 
    8000    23.084899      348          348            0 3.6308538e-13            0          0.1 0.0090037248   0.58371155  0.029893798 
number of iterations: 17711 
    8100    23.303218      354          354            0 3.6964281e-13            0          0.1 0.0090037912   0.60056783  0.029893687 
number of iterations: 18990 
    8200    23.535845      360          360            0 3.7631868e-13            0          0.1 0.0090038597   0.61772854  0.029893573 
number of iterations: 18934 
    8300    23.769192      366          366            0 3.8311511e-13            0          0.1 0.0090039305   0.63519918  0.029893455 
number of iterations: 19106 
    8400    24.005487      374          374            0 3.9003429e-13            0          0.1 0.0090040015   0.65298534  0.029893337 
number of iterations: 19118 
    8500    24.242328      377          377            0 3.9707842e-13            0          0.1 0.0090040719   0.67109273   0.02989322 
number of iterations: 18881 
    8600    24.475156      384          384            0 4.0424978e-13            0          0.1 0.0090041508   0.68952716  0.029893089 
number of iterations: 19634 
    8700    24.716182      390          390            0 4.1155066e-13            0          0.1 0.0090042358   0.70829452  0.029892947 
Loop time of 24.7162 on 32 procs for 8700 steps with 390 atoms

Performance: 304124400.154 tau/day, 351.996 timesteps/s
98.5% CPU use with 32 MPI tasks x no OpenMP threads

MPI task timing breakdown:
Section |  min time  |  avg time  |  max time  |%varavg| %total
---------------------------------------------------------------
Pair    | 0.00042738 | 0.0021832  | 0.0053923  |   2.7 |  0.01
Neigh   | 0.0011796  | 0.0020033  | 0.0047415  |   1.7 |  0.01
Comm    | 0.016628   | 0.03084    | 0.049413   |   5.6 |  0.12
Output  | 0.95359    | 0.954      | 0.95602    |   0.0 |  3.86
Modify  | 23.673     | 23.678     | 23.683     |   0.0 | 95.80
Other   |            | 0.04959    |            |       |  0.20

Nlocal:    12.1875 ave 36 max 0 min
Histogram: 4 5 9 5 5 0 0 0 1 3
Nghost:    4.96875 ave 21 max 0 min
Histogram: 9 8 7 5 0 1 1 0 0 1
Neighs:    12 ave 41 max 0 min
Histogram: 7 6 10 4 1 0 0 1 2 1

Total # of neighbors = 384
Ave neighs/atom = 0.984615
Neighbor list builds = 106
Dangerous builds = 0
Total wall time: 0:00:24
