 NUFEB Simulation

     50 atoms 
     2 atom types 
     4 nutrients 

  0.0e-4   1.00e-04  xlo xhi 
  0.0e-4   1.00e-04  ylo yhi 
  0.0e-4   5.00e-05  zlo zhi 

 Atoms 

     1 1 1.92e-06  370 4.10e-05 5.33e-05 1.46e-05 1.92e-06 
     2 1 1.45e-06  370 8.23e-05 4.51e-05 3.61e-05 1.45e-06 
     3 1 1.38e-06  370 2.64e-05 5.04e-05 1.24e-05 1.38e-06 
     4 1 1.61e-06  370 1.45e-05 5.16e-05 4.25e-05 1.61e-06 
     5 1 1.61e-06  370 5.17e-05 9.22e-05 4.80e-05 1.61e-06 
     6 1 1.44e-06  370 8.25e-05 2.69e-05 2.95e-05 1.44e-06 
     7 1 1.50e-06  370 8.37e-05 8.01e-06 2.11e-05 1.50e-06 
     8 1 1.76e-06  370 8.15e-05 5.97e-05 7.40e-06 1.76e-06 
     9 1 1.53e-06  370 5.61e-05 8.05e-05 1.45e-05 1.53e-06 
     10 1 1.61e-06  370 7.84e-05 1.46e-05 3.73e-05 1.61e-06 
     11 1 1.42e-06  370 7.13e-05 3.29e-05 4.66e-05 1.42e-06 
     12 1 1.45e-06  370 9.24e-05 4.82e-05 3.35e-05 1.45e-06 
     13 1 1.42e-06  370 6.84e-05 3.87e-05 4.76e-06 1.42e-06 
     14 1 1.90e-06  370 9.13e-05 8.37e-05 2.35e-05 1.90e-06 
     15 1 1.47e-06  370 1.05e-05 4.68e-05 1.08e-05 1.47e-06 
     16 1 1.82e-06  370 2.54e-05 8.13e-05 3.35e-05 1.82e-06 
     17 1 1.64e-06  370 9.67e-05 7.09e-05 4.02e-05 1.64e-06 
     18 1 1.56e-06  370 3.45e-05 4.04e-05 1.30e-05 1.56e-06 
     19 1 1.39e-06  370 5.43e-05 8.41e-05 7.92e-06 1.39e-06 
     20 1 1.65e-06  370 4.61e-05 6.12e-05 2.77e-05 1.65e-06 
     21 1 1.55e-06  370 9.17e-05 8.99e-05 4.04e-05 1.55e-06 
     22 1 1.54e-06  370 2.74e-06 6.21e-05 1.43e-05 1.54e-06 
     23 1 1.45e-06  370 2.93e-05 7.60e-06 1.66e-05 1.45e-06 
     24 1 1.40e-06  370 9.71e-05 3.37e-05 2.03e-05 1.40e-06 
     25 1 1.38e-06  370 4.22e-05 7.29e-05 4.12e-05 1.38e-06 
     26 1 1.88e-06  370 7.59e-05 6.90e-05 3.02e-05 1.88e-06 
     27 1 1.62e-06  370 1.16e-05 3.62e-05 3.29e-05 1.62e-06 
     28 1 1.90e-06  370 6.44e-05 5.50e-05 3.65e-05 1.90e-06 
     29 1 1.70e-06  370 4.83e-05 1.33e-05 9.28e-06 1.70e-06 
     30 1 1.90e-06  370 4.58e-05 2.42e-05 4.10e-05 1.90e-06 
     31 1 1.41e-06  370 9.36e-05 4.97e-05 4.61e-05 1.41e-06 
     32 1 1.64e-06  370 4.53e-05 5.89e-05 4.58e-06 1.64e-06 
     33 1 1.52e-06  370 3.67e-05 8.36e-05 3.18e-05 1.52e-06 
     34 1 1.58e-06  370 4.32e-05 3.14e-05 3.63e-05 1.58e-06 
     35 1 1.47e-06  370 3.35e-05 4.97e-05 4.10e-05 1.47e-06 
     36 1 1.87e-06  370 2.27e-05 4.27e-05 4.61e-05 1.87e-06 
     37 1 1.77e-06  370 8.08e-05 9.01e-05 1.13e-05 1.77e-06 
     38 1 1.92e-06  370 9.16e-05 8.03e-05 4.80e-06 1.92e-06 
     39 1 1.38e-06  370 1.71e-05 5.64e-05 1.55e-06 1.38e-06 
     40 1 1.59e-06  370 3.35e-05 1.04e-05 2.96e-05 1.59e-06 
     41 1 1.46e-06  370 2.71e-05 7.00e-05 2.16e-05 1.46e-06 
     42 1 1.68e-06  370 5.81e-05 3.55e-05 2.01e-05 1.68e-06 
     43 1 1.46e-06  370 2.97e-05 1.18e-05 7.70e-06 1.46e-06 
     44 1 1.47e-06  370 8.10e-05 5.68e-05 3.82e-05 1.47e-06 
     45 1 1.48e-06  370 5.13e-06 2.27e-05 2.51e-05 1.48e-06 
     46 1 1.38e-06  370 4.17e-05 7.72e-05 3.32e-05 1.38e-06 
     47 1 1.45e-06  370 1.45e-05 4.42e-05 2.61e-06 1.45e-06 
     48 1 1.57e-06  370 3.77e-06 7.83e-05 2.85e-05 1.57e-06 
     49 1 1.56e-06  370 2.59e-05 7.58e-05 6.11e-06 1.56e-06 
     50 1 1.64e-06  370 9.49e-06 2.10e-05 1.98e-05 1.64e-06 

 Nutrients 

     1 sub g nn nn nn 1.00e-01 1.00e-01 
     2 o2 l nn nn nd 9.00e-03 9.00e-03 
     3 suc l nn nn nn 3.42e-20 3.42e-20 
     4 co2 l nn nn nd 2.99e-02 2.99e-02 

 Type Name 

     1 cyano  
     2 ecw  

 Diffusion Coeffs 

     sub 0 
     o2 2.3e-09 
     suc 5.2e-10 
     co2 1.9e-09 

 Growth Rate 

     cyano 2.047e-05 
     ecw 6.71e-05 

 Ks 

     cyano 0.00035 0.0002 0.01 0.000138 
     ecw 0 0.001 3.6 0.05 

 Yield 

     cyano 0.55 
     ecw 0.43 

 Maintenance 

     cyano 0 
     ecw 9.5e-07 

 Decay 

     cyano 0 
     ecw 0 



