LAMMPS (20 Nov 2019)
Reading data file ...
  orthogonal box = (0 0 0) to (0.0001 0.0001 0.0001)
  2 by 4 by 4 MPI processor grid
  reading atoms ...
  100 atoms
  4 nutrients
Lattice spacing in x,y,z = 100 100 100
100 atoms in group CYANO
0 atoms in group ECW
Model is defined as a closed system. 
Neighbor list info ...
  update every 1 steps, delay 0 steps, check yes
  max neighbors/atom: 5000, page size: 100000
  master list distance cutoff = 2.43e-06
  ghost atom cutoff = 2.43e-06
  binsize = 1.215e-06, bins = 83 83 83
  1 neighbor lists, perpetual/occasional/extra = 1 0 0
  (1) pair gran/hooke/history, perpetual
      attributes: half, newton off, size, history
      pair build: half/size/bin/newtoff
      stencil: half/bin/3d/newtoff
      bin: standard
Setting up Verlet run ...
  Unit style    : lj
  Current step  : 0
  Time step     : 10
Per MPI rank memory allocation (min/avg/max) = 5.863 | 10.03 | 10.91 Mbytes
Step CPU Atoms c_myNtypes[1] c_myNtypes[2] c_myMass[1] c_myMass[2] c_myCon[1] c_myCon[2] c_myCon[3] c_myCon[4] 
       0            0      100          100            0 9.0509838e-14            0          0.1        0.009     3.42e-20       0.0299 
number of iterations: 123262 
     100    1.2834087      100          100            0 9.2257488e-14            0          0.1 0.0090003546 1.3387394e-06   0.02989941 
number of iterations: 107459 
     200    2.3938092      100          100            0 9.4038883e-14            0          0.1 0.0090003614 3.4934338e-06  0.029899398 
number of iterations: 95734 
     300    3.3556057      100          100            0 9.5854674e-14            0          0.1 0.0090003684 6.8173472e-06  0.029899387 
number of iterations: 85134 
     400    4.2205381      102          102            0 9.7705527e-14            0          0.1 0.0090003755 1.1956182e-05  0.029899375 
number of iterations: 75072 
     500    5.0024466      104          104            0 9.9592118e-14            0          0.1 0.0090003828 1.9945333e-05  0.029899363 
number of iterations: 65192 
     600    5.6821499      107          107            0 1.0151514e-13            0          0.1 0.0090003902 3.2495916e-05   0.02989935 
number of iterations: 55180 
     700    6.2674264      110          110            0 1.0347529e-13            0          0.1 0.0090003977 5.2594182e-05  0.029899338 
number of iterations: 45412 
     800     6.762338      113          113            0 1.0547329e-13            0          0.1 0.0090004054 8.4774132e-05  0.029899325 
number of iterations: 36706 
     900    7.1753028      115          115            0 1.0750986e-13            0          0.1 0.0090004132 0.00013431472  0.029899312 
number of iterations: 28013 
    1000    7.5103267      116          116            0 1.0958577e-13            0          0.1 0.0090004212 0.00021158942  0.029899299 
number of iterations: 18016 
    1100    7.7506305      119          119            0 1.1170175e-13            0          0.1 0.0090004293 0.0003445657  0.029899285 
number of iterations: 13196 
    1200    7.9487118      121          121            0 1.1385859e-13            0          0.1 0.0090004376 0.00052434123  0.029899271 
number of iterations: 12762 
    1300    8.1351996      121          121            0 1.1605708e-13            0          0.1 0.0090004461 0.00073606445  0.029899257 
number of iterations: 12813 
    1400    8.3165579      124          124            0 1.1829802e-13            0          0.1 0.0090004547 0.00097978837  0.029899243 
number of iterations: 12865 
    1500    8.5423916      128          128            0 1.2058223e-13            0          0.1 0.0090004635  0.001253018  0.029899228 
number of iterations: 12916 
    1600     8.732373      131          131            0 1.2291055e-13            0          0.1 0.0090004724  0.001548143  0.029899213 
number of iterations: 15694 
    1700    8.9406957      133          133            0 1.2528382e-13            0          0.1 0.0090004847 0.0018657459  0.029899193 
number of iterations: 13088 
    1800    9.1171958      133          133            0 1.2770292e-13            0          0.1  0.009000494  0.002204199  0.029899177 
number of iterations: 13140 
    1900     9.293989      135          135            0 1.3016873e-13            0          0.1 0.0090005036 0.0025632741  0.029899162 
number of iterations: 13191 
    2000    9.4744926      136          136            0 1.3268215e-13            0          0.1 0.0090005133 0.0029428846  0.029899145 
number of iterations: 12180 
    2100    9.6397194      137          137            0 1.352441e-13            0          0.1 0.0090005235 0.0033441355  0.029899128 
number of iterations: 13278 
    2200    9.8198364      137          137            0 1.3785552e-13            0          0.1 0.0090005336 0.0037660539  0.029899112 
number of iterations: 13328 
    2300    9.9961352      140          140            0 1.4051737e-13            0          0.1  0.009000544 0.0042087561  0.029899094 
number of iterations: 13204 
    2400    10.173557      141          141            0 1.4323061e-13            0          0.1 0.0090005526 0.0046710543   0.02989908 
number of iterations: 13427 
    2500    10.350546      142          142            0 1.4599624e-13            0          0.1 0.0090005633  0.005154504  0.029899062 
number of iterations: 13478 
    2600    10.529919      144          144            0 1.4881528e-13            0          0.1 0.0090005742 0.0056594081  0.029899044 
number of iterations: 13515 
    2700    10.710827      148          148            0 1.5168874e-13            0          0.1 0.0090005845 0.0061853406  0.029899027 
number of iterations: 13587 
    2800    10.888565      149          149            0 1.5461769e-13            0          0.1 0.0090005958 0.0067333396  0.029899008 
number of iterations: 13649 
    2900    11.066765      150          150            0 1.576032e-13            0          0.1 0.0090006073 0.0073037549  0.029898989 
number of iterations: 16433 
    3000    11.275981      154          154            0 1.6064635e-13            0          0.1 0.0090006196 0.0078969392  0.029898968 
number of iterations: 13852 
    3100     11.45778      156          156            0 1.6374826e-13            0          0.1 0.0090006316 0.0085134025  0.029898948 
number of iterations: 13917 
    3200    11.670982      160          160            0 1.6691007e-13            0          0.1 0.0090006438  0.009153537  0.029898928 
number of iterations: 13978 
    3300     11.85058      165          165            0 1.7013292e-13            0          0.1 0.0090006562 0.0098177645  0.029898907 
number of iterations: 14040 
    3400    12.031457      166          166            0 1.7341801e-13            0          0.1 0.0090006689  0.010506641  0.029898886 
number of iterations: 14102 
    3500    12.210673      171          171            0 1.7676653e-13            0          0.1 0.0090006818  0.011220657  0.029898865 
number of iterations: 12208 
    3600    12.368927      178          178            0 1.801797e-13            0          0.1 0.0090006933  0.011959296  0.029898846 
number of iterations: 14239 
    3700    12.551277      182          182            0 1.8365878e-13            0          0.1  0.009000708  0.012724685  0.029898821 
number of iterations: 14254 
    3800    12.733874      186          186            0 1.8720504e-13            0          0.1 0.0090007217  0.013516725  0.029898798 
number of iterations: 14315 
    3900    12.916349      193          193            0 1.9081977e-13            0          0.1 0.0090007356  0.014335922  0.029898775 
number of iterations: 14377 
    4000    13.099172      194          194            0 1.945043e-13            0          0.1 0.0090007498  0.015182998  0.029898752 
number of iterations: 14438 
    4100    13.282437      196          196            0 1.9825997e-13            0          0.1 0.0090007643  0.016058416  0.029898727 
number of iterations: 14500 
    4200     13.46472      201          201            0 2.0208816e-13            0          0.1  0.009000779  0.016962871  0.029898703 
number of iterations: 14562 
    4300    13.648747      205          205            0 2.0599027e-13            0          0.1 0.0090007941   0.01789691  0.029898678 
number of iterations: 14624 
    4400    13.833466      207          207            0 2.0996773e-13            0          0.1 0.0090008094  0.018861202  0.029898652 
number of iterations: 14685 
    4500    14.019103      211          211            0 2.1402198e-13            0          0.1 0.0090008251   0.01985656  0.029898626 
number of iterations: 14747 
    4600    14.206153      213          213            0 2.1815452e-13            0          0.1  0.009000841  0.020883483    0.0298986 
number of iterations: 14809 
    4700    14.394259      214          214            0 2.2236685e-13            0          0.1 0.0090008572   0.02194277  0.029898573 
number of iterations: 14871 
    4800       14.583      219          219            0 2.2666052e-13            0          0.1 0.0090008738  0.023035051  0.029898545 
number of iterations: 15424 
    4900    14.774806      224          224            0 2.310371e-13            0          0.1 0.0090008904  0.024160625  0.029898518 
number of iterations: 14838 
    5000    14.961242      229          229            0 2.3549818e-13            0          0.1 0.0090009063  0.025319291  0.029898491 
number of iterations: 15063 
    5100    15.151414      236          236            0 2.400454e-13            0          0.1 0.0090009238  0.026513374  0.029898462 
number of iterations: 14599 
    5200    15.332644      243          243            0 2.4468042e-13            0          0.1 0.0090009382  0.027743457  0.029898438 
number of iterations: 15177 
    5300    15.521772      250          250            0 2.4940494e-13            0          0.1 0.0090009565  0.029010763  0.029898407 
number of iterations: 15239 
    5400    15.711357      256          256            0 2.5422069e-13            0          0.1 0.0090009751  0.030316108  0.029898376 
number of iterations: 15301 
    5500    15.900264      264          264            0 2.5912942e-13            0          0.1  0.009000994  0.031659989  0.029898345 
number of iterations: 15363 
    5600    16.092277      264          264            0 2.6413294e-13            0          0.1 0.0090010132  0.033043417  0.029898313 
number of iterations: 15425 
    5700    16.282134      266          266            0 2.6923306e-13            0          0.1 0.0090010327  0.034466928   0.02989828 
number of iterations: 15486 
    5800    16.474585      273          273            0 2.7443167e-13            0          0.1 0.0090010527  0.035931787  0.029898247 
number of iterations: 15769 
    5900    16.669094      276          276            0 2.7973065e-13            0          0.1 0.0090010734  0.037438775  0.029898213 
number of iterations: 15614 
    6000    16.862248      281          281            0 2.8513196e-13            0          0.1 0.0090010941   0.03898866  0.029898178 
number of iterations: 15676 
    6100    17.055155      285          285            0 2.9063755e-13            0          0.1 0.0090011153   0.04058248  0.029898143 
number of iterations: 15738 
    6200    17.248837      290          290            0 2.9624946e-13            0          0.1 0.0090011368  0.042221576  0.029898107 
number of iterations: 15800 
    6300    17.444559      294          294            0 3.0196972e-13            0          0.1 0.0090011587   0.04390643  0.029898071 
number of iterations: 15862 
    6400    17.639735      300          300            0 3.0780044e-13            0          0.1 0.0090011814  0.045638657  0.029898033 
number of iterations: 15924 
    6500    17.834525      303          303            0 3.1374374e-13            0          0.1 0.0090012042   0.04741907  0.029897995 
number of iterations: 15985 
    6600    18.032227      306          306            0 3.1980179e-13            0          0.1 0.0090012275  0.049248436  0.029897956 
number of iterations: 15944 
    6700    18.231611      313          313            0 3.2597683e-13            0          0.1 0.0090012472  0.051127766  0.029897923 
number of iterations: 16106 
    6800     18.45972      320          320            0 3.322711e-13            0          0.1 0.0090012713  0.053058621  0.029897883 
number of iterations: 16169 
    6900    18.661289      327          327            0 3.386869e-13            0          0.1 0.0090012959  0.055041767  0.029897842 
number of iterations: 16231 
    7000    18.861983      333          333            0 3.4522658e-13            0          0.1 0.0090013209  0.057078705  0.029897801 
number of iterations: 16336 
    7100    19.063831      340          340            0 3.5189254e-13            0          0.1 0.0090013465   0.05915964  0.029897758 
number of iterations: 16356 
    7200    19.269687      347          347            0 3.5868721e-13            0          0.1 0.0090013725  0.061280755  0.029897715 
number of iterations: 16484 
    7300    19.472494      354          354            0 3.6561308e-13            0          0.1 0.0090013992  0.063442826   0.02989767 
number of iterations: 16513 
    7400    19.675009      362          362            0 3.7267268e-13            0          0.1 0.0090014277  0.065646645  0.029897623 
number of iterations: 16543 
    7500    19.877683      374          374            0 3.798686e-13            0          0.1 0.0090014552  0.067893018  0.029897577 
number of iterations: 14791 
    7600    20.061728      379          379            0 3.8720346e-13            0          0.1 0.0090014814  0.070182764  0.029897533 
number of iterations: 16594 
    7700    20.267299      387          387            0 3.9467995e-13            0          0.1 0.0090015085  0.072516722  0.029897488 
number of iterations: 16692 
    7800    20.472202      394          394            0 4.023008e-13            0          0.1 0.0090015377  0.074895746   0.02989744 
number of iterations: 16708 
    7900    20.681581      405          405            0 4.100688e-13            0          0.1 0.0090015675  0.077320706   0.02989739 
number of iterations: 16679 
    8000    20.886568      412          412            0 4.1798679e-13            0          0.1 0.0090015956  0.079792487  0.029897343 
number of iterations: 16828 
    8100    21.091984      425          425            0 4.2605767e-13            0          0.1 0.0090016257  0.082311995  0.029897293 
number of iterations: 16936 
    8200    21.299404      434          434            0 4.3428439e-13            0          0.1  0.009001657  0.084880152  0.029897241 
number of iterations: 16998 
    8300    21.538651      442          442            0 4.4266996e-13            0          0.1  0.009001689  0.087497897  0.029897188 
number of iterations: 17059 
    8400     21.75073      448          448            0 4.5121745e-13            0          0.1 0.0090017218  0.090166189  0.029897133 
number of iterations: 17121 
    8500    21.961228      462          462            0 4.5992998e-13            0          0.1 0.0090017551  0.092886003  0.029897078 
number of iterations: 17034 
    8600    22.170763      466          466            0 4.6881074e-13            0          0.1 0.0090017824   0.09565833  0.029897032 
number of iterations: 17241 
    8700    22.383711      475          475            0 4.7786298e-13            0          0.1 0.0090018163  0.098484188  0.029896976 
Loop time of 22.3837 on 32 procs for 8700 steps with 475 atoms

Performance: 335815325.962 tau/day, 388.675 timesteps/s
98.3% CPU use with 32 MPI tasks x no OpenMP threads

MPI task timing breakdown:
Section |  min time  |  avg time  |  max time  |%varavg| %total
---------------------------------------------------------------
Pair    | 0.00042187 | 0.0024542  | 0.0052606  |   2.4 |  0.01
Neigh   | 0.0010443  | 0.0019663  | 0.0044077  |   1.6 |  0.01
Comm    | 0.013449   | 0.028801   | 0.045793   |   5.1 |  0.13
Output  | 0.89314    | 0.89349    | 0.89381    |   0.0 |  3.99
Modify  | 21.41      | 21.414     | 21.418     |   0.0 | 95.67
Other   |            | 0.04275    |            |       |  0.19

Nlocal:    14.8438 ave 37 max 0 min
Histogram: 6 1 5 3 5 6 2 3 0 1
Nghost:    5.59375 ave 15 max 0 min
Histogram: 5 4 6 2 5 3 3 1 1 2
Neighs:    16.5625 ave 39 max 0 min
Histogram: 6 1 4 3 5 4 4 3 1 1

Total # of neighbors = 530
Ave neighs/atom = 1.11579
Neighbor list builds = 99
Dangerous builds = 0
Total wall time: 0:00:22
