LAMMPS (20 Nov 2019)
Reading data file ...
  orthogonal box = (0 0 0) to (0.0001 0.0001 1e-05)
  8 by 4 by 1 MPI processor grid
  reading atoms ...
  100 atoms
  4 nutrients
Lattice spacing in x,y,z = 100 100 100
50 atoms in group CYANO
50 atoms in group ECW
Model is defined as a closed system. 
Neighbor list info ...
  update every 1 steps, delay 0 steps, check yes
  max neighbors/atom: 5000, page size: 100000
  master list distance cutoff = 2.43e-06
  ghost atom cutoff = 2.43e-06
  binsize = 1.215e-06, bins = 83 83 9
  1 neighbor lists, perpetual/occasional/extra = 1 0 0
  (1) pair gran/hooke/history, perpetual
      attributes: half, newton off, size, history
      pair build: half/size/bin/newtoff
      stencil: half/bin/3d/newtoff
      bin: standard
Setting up Verlet run ...
  Unit style    : lj
  Current step  : 0
  Time step     : 10
Per MPI rank memory allocation (min/avg/max) = 5.791 | 11.06 | 12.11 Mbytes
Step CPU Atoms c_myNtypes[1] c_myNtypes[2] c_myMass[1] c_myMass[2] c_myCon[1] c_myCon[2] c_myCon[3] c_myCon[4] 
       0            0      100           50           50 4.8215012e-14 8.7591518e-15          0.1        0.009     3.42e-20       0.0299 
number of iterations: 324001 
     100    15.421604      129           50           79 4.8853968e-14 8.7528376e-15          0.1 0.0090008184  0.038737189  0.029898637 
number of iterations: 3722 
     200    15.775792      142           50           92 4.9501391e-14 8.7476509e-15          0.1 0.0090008292  0.076743211  0.029898619 
number of iterations: 2723 
     300    16.056558      142           50           92 5.0157394e-14 8.7435764e-15          0.1 0.0090008401   0.11522342    0.0298986 
number of iterations: 2145 
     400    16.314278      142           50           92 5.082209e-14 8.7406051e-15          0.1 0.0090008512   0.15418637  0.029898582 
number of iterations: 1704 
     500    16.676321      145           53           92 5.1495596e-14 8.738728e-15          0.1 0.0090008606   0.19363976  0.029898566 
number of iterations: 1434 
     600    16.866439      145           53           92 5.2178026e-14 8.7379354e-15          0.1 0.0090008719   0.23359109  0.029898547 
number of iterations: 1437 
     700    17.087209      146           54           92 5.2869501e-14 8.7382201e-15          0.1 0.0090008834    0.2740481  0.029898528 
number of iterations: 1440 
     800    17.298395      146           54           92 5.3570139e-14 8.7395738e-15          0.1 0.0090008951   0.31501813  0.029898509 
number of iterations: 1492 
     900    17.503699      147           55           92 5.4280062e-14 8.7419891e-15          0.1 0.0090009095   0.35650855  0.029898485 
number of iterations: 1627 
    1000    17.755168      151           59           92 5.4999393e-14 8.7454572e-15          0.1 0.0090009125   0.39852686   0.02989848 
number of iterations: 1448 
    1100    17.961069      153           61           92 5.5728257e-14 8.7499698e-15          0.1 0.0090009245   0.44108063  0.029898459 
number of iterations: 1450 
    1200    18.169294      153           61           92 5.646678e-14 8.7555194e-15          0.1 0.0090009367   0.48417735  0.029898439 
number of iterations: 1453 
    1300    18.340191      153           61           92 5.721509e-14 8.7620991e-15          0.1 0.0090009491   0.52782471  0.029898418 
number of iterations: 1456 
    1400    18.532881      153           61           92 5.7973316e-14 8.7697032e-15          0.1 0.0090009616   0.57203048  0.029898397 
number of iterations: 1459 
    1500    18.726528      153           61           92 5.8741591e-14 8.7783254e-15          0.1 0.0090009743   0.61680251  0.029898376 
number of iterations: 1462 
    1600    18.959752      155           63           92 5.9520047e-14 8.7879601e-15          0.1 0.0090009872   0.66214874  0.029898355 
number of iterations: 1583 
    1700    19.149837      157           65           92 6.030882e-14 8.7986021e-15          0.1 0.0090010047   0.70807721  0.029898326 
number of iterations: 1408 
    1800    19.332996      159           66           93 6.1108045e-14 8.8102457e-15          0.1 0.0090010165   0.75459594  0.029898306 
number of iterations: 1469 
    1900     19.53127      159           66           93 6.1917862e-14 8.8228865e-15          0.1   0.00900103   0.80171328  0.029898283 
number of iterations: 1480 
    2000    19.728955      161           68           93 6.2738411e-14 8.836524e-15          0.1 0.0090010436   0.84943758  0.029898261 
number of iterations: 1475 
    2100    19.906565      161           68           93 6.3569834e-14 8.8511503e-15          0.1 0.0090010574   0.89777725  0.029898238 
number of iterations: 1478 
    2200    20.108537      161           68           93 6.4412275e-14 8.8667617e-15          0.1 0.0090010713   0.94674083  0.029898214 
number of iterations: 1611 
    2300    20.300998      162           69           93 6.526588e-14 8.8833541e-15          0.1 0.0090010893   0.99633678  0.029898184 
number of iterations: 1483 
    2400    20.510378      162           69           93 6.6130797e-14 8.9009251e-15          0.1 0.0090011037     1.046574   0.02989816 
number of iterations: 1486 
    2500    20.686549      162           69           93 6.7007177e-14 8.9194718e-15          0.1 0.0090011182    1.0974614  0.029898136 
number of iterations: 1642 
    2600    20.902622      163           70           93 6.789517e-14 8.9389917e-15          0.1 0.0090011421    1.1490079  0.029898096 
number of iterations: 1493 
    2700    21.076248      164           70           94 6.8794931e-14 8.9594825e-15          0.1 0.0090011572    1.2012226  0.029898071 
number of iterations: 1496 
    2800    21.238974      164           70           94 6.9706616e-14 8.9809424e-15          0.1 0.0090011725    1.2541147  0.029898046 
number of iterations: 1623 
    2900    21.580981      167           73           94 7.0630383e-14 9.0033672e-15          0.1 0.0090011945    1.3076933  0.029898009 
number of iterations: 1505 
    3000    21.781324      171           76           95 7.1566392e-14 9.0267578e-15          0.1 0.0090012129    1.3619682  0.029897978 
number of iterations: 1505 
    3100    21.962535      171           76           95 7.2514805e-14 9.0511132e-15          0.1  0.009001229    1.4169488  0.029897951 
number of iterations: 1507 
    3200    22.134491      172           76           96 7.3475786e-14 9.076433e-15          0.1 0.0090012452    1.4726446  0.029897924 
number of iterations: 1510 
    3300    22.327167      172           76           96 7.4449503e-14 9.1027163e-15          0.1 0.0090012617    1.5290655  0.029897897 
number of iterations: 1483 
    3400    22.504541      174           78           96 7.5436124e-14 9.1299613e-15          0.1 0.0090012784    1.5862218  0.029897869 
number of iterations: 1516 
    3500    22.705616      174           78           96 7.6435819e-14 9.1581694e-15          0.1 0.0090012953    1.6441231  0.029897841 
number of iterations: 1518 
    3600    22.887764      174           78           96 7.7448763e-14 9.1873408e-15          0.1 0.0090013124    1.7027795  0.029897812 
number of iterations: 1552 
    3700    23.087411      175           79           96 7.847513e-14 9.2174773e-15          0.1 0.0090013298    1.7622014  0.029897783 
number of iterations: 1524 
    3800    23.264378      175           79           96 7.9515099e-14 9.2485782e-15          0.1 0.0090013474    1.8223992  0.029897754 
number of iterations: 1487 
    3900    23.457298      177           81           96 8.056885e-14 9.2806456e-15          0.1 0.0090013593    1.8833835  0.029897734 
number of iterations: 1529 
    4000    23.649062      177           81           96 8.1636565e-14 9.3136795e-15          0.1 0.0090013773    1.9451649  0.029897704 
number of iterations: 1531 
    4100     23.83514      179           82           97 8.271843e-14 9.3476798e-15          0.1 0.0090013955    2.0077544  0.029897673 
number of iterations: 1535 
    4200    24.031554      179           82           97 8.3814632e-14 9.3826496e-15          0.1  0.009001414    2.0711628  0.029897643 
number of iterations: 1538 
    4300    24.232491      180           82           98 8.4925361e-14 9.4185907e-15          0.1 0.0090014327    2.1354012  0.029897611 
number of iterations: 1488 
    4400    24.430748      181           83           98 8.6050809e-14 9.4555055e-15          0.1 0.0090014471    2.2004809  0.029897587 
number of iterations: 1542 
    4500    24.629093      182           83           99 8.7191173e-14 9.493396e-15          0.1 0.0090014663    2.2664132  0.029897555 
number of iterations: 1548 
    4600    24.833274      183           84           99 8.8346648e-14 9.5322632e-15          0.1 0.0090014857    2.3332096  0.029897523 
number of iterations: 1547 
    4700    25.032263      183           84           99 8.9517436e-14 9.5721109e-15          0.1 0.0090015054    2.4008819   0.02989749 
number of iterations: 1550 
    4800    25.213878      183           84           99 9.070374e-14 9.6129426e-15          0.1 0.0090015253    2.4694419  0.029897457 
number of iterations: 1676 
    4900    25.415008      184           85           99 9.1905765e-14 9.6547605e-15          0.1 0.0090015515    2.5389013  0.029897413 
number of iterations: 1580 
    5000    25.651891      184           85           99 9.3123719e-14 9.6975708e-15          0.1  0.009001572    2.6092724  0.029897379 
number of iterations: 1551 
    5100    25.833012      186           86          100 9.4357814e-14 9.7413752e-15          0.1 0.0090015928    2.6805677  0.029897344 
number of iterations: 1557 
    5200    26.010162      186           86          100 9.5608263e-14 9.7861779e-15          0.1 0.0090016071    2.7527995   0.02989732 
number of iterations: 1555 
    5300    26.204559      191           89          102 9.6875283e-14 9.8319796e-15          0.1 0.0090016283    2.8259801  0.029897285 
number of iterations: 1567 
    5400    26.553377      191           89          102 9.8159095e-14 9.8787875e-15          0.1 0.0090016499    2.9001227  0.029897249 
number of iterations: 1569 
    5500    26.741297      193           90          103 9.9459919e-14 9.9266048e-15          0.1 0.0090016718      2.97524  0.029897212 
number of iterations: 1573 
    5600    26.920244      196           92          104 1.0077798e-13 9.9754374e-15          0.1 0.0090016939    3.0513453  0.029897176 
number of iterations: 1682 
    5700     27.10516      201           96          105 1.0211351e-13 1.0025292e-14          0.1 0.0090017176    3.1284523  0.029897136 
number of iterations: 1613 
    5800    27.332674      204           96          108 1.0346674e-13 1.0076171e-14          0.1 0.0090017426    3.2065741  0.029897094 
number of iterations: 1583 
    5900    27.515716      206           98          108 1.048379e-13 1.0128082e-14          0.1 0.0090017635    3.2857242  0.029897059 
number of iterations: 1586 
    6000     27.69148      206           98          108 1.0622724e-13 1.0181029e-14          0.1 0.0090017869    3.3659166   0.02989702 
number of iterations: 1589 
    6100    27.866208      208          100          108 1.0763498e-13 1.0235018e-14          0.1 0.0090018118    3.4471652  0.029896979 
number of iterations: 1593 
    6200    28.056282      210          101          109 1.0906138e-13 1.0290052e-14          0.1 0.0090018358     3.529484  0.029896939 
number of iterations: 1524 
    6300    28.244102      216          106          110 1.1050669e-13 1.0346139e-14          0.1 0.0090018524    3.6128874  0.029896911 
number of iterations: 1599 
    6400    28.440196      218          107          111 1.1197115e-13 1.0403285e-14          0.1 0.0090018795    3.6973901  0.029896866 
number of iterations: 1584 
    6500    28.636984      222          110          112 1.1345501e-13 1.0461498e-14          0.1 0.0090018968     3.783007  0.029896837 
number of iterations: 1598 
    6600    28.836324      224          111          113 1.1495854e-13 1.0520785e-14          0.1 0.0090019151    3.8697532  0.029896807 
number of iterations: 1607 
    6700    29.033027      230          116          114 1.1648199e-13 1.0581148e-14          0.1 0.0090019349     3.957643  0.029896773 
number of iterations: 1606 
    6800    29.235102      234          120          114 1.1802564e-13 1.0642598e-14          0.1 0.0090019606    4.0466922  0.029896731 
number of iterations: 1627 
    6900    29.431166      240          125          115 1.1958974e-13 1.0705141e-14          0.1 0.0090019868    4.1369167  0.029896687 
number of iterations: 1611 
    7000    29.626847      243          126          117 1.2117456e-13 1.0768784e-14          0.1 0.0090020131    4.2283318  0.029896643 
number of iterations: 1616 
    7100    29.830609      243          126          117 1.2278039e-13 1.0833535e-14          0.1  0.009002035    4.3209536  0.029896606 
number of iterations: 1617 
    7200    30.033239      243          126          117 1.244075e-13 1.0899403e-14          0.1  0.009002062    4.4147982  0.029896562 
number of iterations: 1620 
    7300    30.253994      244          126          118 1.2605618e-13 1.0966395e-14          0.1 0.0090020893    4.5098819  0.029896516 
number of iterations: 1694 
    7400    30.451951      248          129          119 1.277267e-13 1.1034516e-14          0.1 0.0090021194    4.6062213  0.029896466 
number of iterations: 1663 
    7500    30.625967      252          131          121 1.2941936e-13 1.1103778e-14          0.1 0.0090021509     4.703833  0.029896413 
number of iterations: 1590 
    7600    30.826294      255          134          121 1.3113445e-13 1.1174189e-14          0.1 0.0090021794    4.8027343  0.029896366 
number of iterations: 1679 
    7700    31.001115      261          137          124 1.3287227e-13 1.1245759e-14          0.1 0.0090022104    4.9029422  0.029896314 
number of iterations: 1642 
    7800     31.21107      266          142          124 1.3463312e-13 1.1318494e-14          0.1 0.0090022423    5.0044744  0.029896261 
number of iterations: 1637 
    7900    31.515517      266          142          124 1.3641731e-13 1.1392406e-14          0.1  0.009002272    5.1073484  0.029896211 
number of iterations: 1586 
    8000    31.785003      268          143          125 1.3822514e-13 1.1467502e-14          0.1 0.0090022939    5.2115819  0.029896175 
number of iterations: 1641 
    8100    31.978291      269          144          125 1.4005692e-13 1.1543793e-14          0.1 0.0090023243    5.3171927  0.029896124 
number of iterations: 1644 
    8200    32.164199      270          144          126 1.4191299e-13 1.1621289e-14          0.1 0.0090023551       5.4242  0.029896073 
number of iterations: 1640 
    8300    32.359173      273          146          127 1.4379365e-13     1.17e-14          0.1 0.0090023849    5.5326222  0.029896023 
number of iterations: 1611 
    8400    32.549364      276          149          127 1.4569923e-13 1.1779935e-14          0.1 0.0090024085     5.642479  0.029895984 
number of iterations: 1652 
    8500    32.743712      277          150          127 1.4763006e-13 1.1861105e-14          0.1 0.0090024404    5.7537888   0.02989593 
number of iterations: 1654 
    8600      32.9473      279          150          129 1.4958649e-13 1.194352e-14          0.1 0.0090024728    5.8665712  0.029895876 
number of iterations: 1677 
    8700      33.1454      284          155          129 1.5156884e-13 1.2027189e-14          0.1 0.0090025055    5.9808456  0.029895822 
number of iterations: 1683 
    8800    33.330011      291          158          133 1.5357746e-13 1.2112124e-14          0.1 0.0090025387    6.0966319  0.029895766 
number of iterations: 1663 
    8900    33.511654      291          158          133 1.556127e-13 1.2198337e-14          0.1 0.0090025724    6.2139505   0.02989571 
number of iterations: 1666 
    9000    33.709448      292          158          134 1.5767491e-13 1.2285839e-14          0.1 0.0090026065    6.3328216  0.029895653 
number of iterations: 1684 
    9100    33.906545      293          159          134 1.5976444e-13 1.2374641e-14          0.1  0.009002641    6.4532661  0.029895596 
number of iterations: 1672 
    9200    34.098311      296          160          136 1.6188167e-13 1.2464755e-14          0.1  0.009002676    6.5753048  0.029895537 
number of iterations: 1674 
    9300    34.276457      296          160          136 1.6402696e-13 1.2556191e-14          0.1  0.009002714    6.6989597  0.029895474 
number of iterations: 1700 
    9400     34.47282      299          162          137 1.6620068e-13 1.2648962e-14          0.1 0.0090027537    6.8242517  0.029895408 
number of iterations: 1678 
    9500    34.663943      301          163          138 1.684032e-13 1.2743081e-14          0.1 0.0090027902    6.9512025  0.029895347 
number of iterations: 1683 
    9600    34.845265      302          163          139 1.7063492e-13 1.2838559e-14          0.1 0.0090028272    7.0798341  0.029895285 
number of iterations: 1684 
    9700    35.050313      306          165          141 1.728962e-13 1.2935414e-14          0.1 0.0090028588    7.2101684  0.029895233 
number of iterations: 1649 
    9800    35.236056      311          170          141 1.7518746e-13 1.3033656e-14          0.1 0.0090028952    7.3422285  0.029895172 
number of iterations: 1691 
    9900    35.421205      313          171          142 1.7750908e-13 1.3133296e-14          0.1 0.0090029313    7.4760378  0.029895112 
number of iterations: 1694 
   10000     35.64421      315          171          144 1.7986146e-13 1.323435e-14          0.1 0.0090029701    7.6116195  0.029895047 
number of iterations: 1697 
   10100    35.844086      317          171          146 1.8224502e-13 1.333683e-14          0.1 0.0090030095    7.7489971  0.029894981 
number of iterations: 1752 
   10200      36.0287      323          175          148 1.8466017e-13 1.3440749e-14          0.1  0.009003051    7.8881953  0.029894912 
number of iterations: 1733 
   10300    36.227198      328          178          150 1.8710732e-13 1.354612e-14          0.1 0.0090030948    8.0292377  0.029894839 
number of iterations: 1741 
   10400     36.40569      333          181          152 1.895869e-13 1.365296e-14          0.1 0.0090031419    8.1721492  0.029894761 
number of iterations: 1710 
   10500    36.699871      335          182          153 1.9209934e-13 1.3761283e-14          0.1 0.0090031835    8.3169544  0.029894691 
number of iterations: 1712 
   10600    36.889617      335          182          153 1.9464508e-13 1.3871104e-14          0.1 0.0090032257    8.4636785  0.029894621 
number of iterations: 1748 
   10700    37.071751      340          185          155 1.9722455e-13 1.3982437e-14          0.1 0.0090032734    8.6123473  0.029894541 
number of iterations: 1847 
   10800    37.267588      344          187          157 1.9983821e-13 1.4095297e-14          0.1 0.0090033217    8.7629862  0.029894461 
number of iterations: 1710 
   10900    37.441643      348          191          157 2.024865e-13 1.4209701e-14          0.1 0.0090033547    8.9156203  0.029894406 
number of iterations: 1730 
   11000    37.628678      349          192          157 2.0516989e-13 1.4325663e-14          0.1 0.0090033992    9.0702778  0.029894332 
number of iterations: 1792 
   11100    37.836025      357          198          159 2.0788884e-13 1.4443199e-14          0.1 0.0090034459    9.2269853  0.029894254 
number of iterations: 1784 
   11200    38.020048      359          200          159 2.1064383e-13 1.4562326e-14          0.1 0.0090034893    9.3857701  0.029894181 
number of iterations: 1748 
   11300    38.202295      365          205          160 2.1343532e-13 1.4683059e-14          0.1 0.0090035471    9.5466597  0.029894085 
number of iterations: 1745 
   11400    38.406872      369          209          160 2.162638e-13 1.4805414e-14          0.1  0.009003594    9.7096815  0.029894007 
number of iterations: 1741 
   11500    38.595259      373          213          160 2.1912977e-13 1.4929409e-14          0.1 0.0090036432    9.8748641  0.029893925 
number of iterations: 1744 
   11600    38.789196      376          214          162 2.2203372e-13 1.5055059e-14          0.1 0.0090036916    10.042237  0.029893844 
number of iterations: 1807 
   11700    39.052892      378          216          162 2.2497615e-13 1.5182384e-14          0.1 0.0090037445    10.211829  0.029893756 
number of iterations: 1752 
   11800    39.248089      381          219          162 2.2795758e-13 1.5311398e-14          0.1 0.0090037964    10.383669  0.029893669 
number of iterations: 1790 
   11900    39.435993      388          226          162 2.3097852e-13 1.5442121e-14          0.1 0.0090038505    10.557788  0.029893579 
number of iterations: 1715 
   12000    39.619627      393          230          163 2.3403949e-13 1.5574567e-14          0.1 0.0090039002    10.734218  0.029893496 
number of iterations: 1757 
   12100    39.803611      399          234          165 2.3714102e-13 1.5708757e-14          0.1 0.0090039518    10.912986   0.02989341 
number of iterations: 1740 
   12200    39.979993      401          235          166 2.4028366e-13 1.584471e-14          0.1 0.0090040101    11.094126  0.029893313 
number of iterations: 1744 
   12300    40.167632      406          239          167 2.4346794e-13 1.5982444e-14          0.1  0.009004058    11.277668  0.029893233 
number of iterations: 1778 
   12400    40.368862      415          247          168 2.4669442e-13 1.612198e-14          0.1 0.0090041049    11.463643  0.029893155 
number of iterations: 1815 
   12500    40.558091      427          257          170 2.4996366e-13 1.6263334e-14          0.1 0.0090041472    11.652084  0.029893084 
number of iterations: 1863 
   12600    40.769114      431          260          171 2.5327623e-13 1.6406526e-14          0.1 0.0090041978    11.843025     0.029893 
number of iterations: 1787 
   12700    40.993264      434          263          171 2.5663269e-13 1.6551577e-14          0.1 0.0090042488    12.036499  0.029892915 
number of iterations: 1781 
   12800    41.195795      440          267          173 2.6003363e-13 1.6698506e-14          0.1 0.0090043051    12.232538  0.029892821 
number of iterations: 1775 
   12900     41.39769      448          272          176 2.6347965e-13 1.6847333e-14          0.1 0.0090043582    12.431177  0.029892732 
number of iterations: 1796 
   13000     41.62998      453          274          179 2.6697133e-13 1.6998077e-14          0.1  0.009004419    12.632451  0.029892631 
number of iterations: 1790 
   13100    41.866403      457          278          179 2.7050928e-13 1.7150761e-14          0.1 0.0090044717    12.836395  0.029892543 
number of iterations: 1800 
   13200    42.047574      464          283          181 2.7409412e-13 1.7305405e-14          0.1 0.0090045345    13.043044  0.029892438 
number of iterations: 1762 
   13300    42.229411      467          284          183 2.7772646e-13 1.746203e-14          0.1 0.0090045959    13.252435  0.029892336 
number of iterations: 1781 
   13400    42.420583      474          289          185 2.8140695e-13 1.7620658e-14          0.1 0.0090046524    13.464603  0.029892242 
number of iterations: 1779 
   13500    42.630723      481          295          186 2.851362e-13 1.778131e-14          0.1 0.0090047084    13.679587  0.029892148 
number of iterations: 1823 
   13600    42.814948      483          296          187 2.8891488e-13 1.7944009e-14          0.1 0.0090047844    13.897422  0.029892022 
number of iterations: 1802 
   13700    43.001413      486          297          189 2.9274363e-13 1.8108777e-14          0.1 0.0090048546    14.118147  0.029891905 
number of iterations: 1786 
   13800    43.212293      493          301          192 2.9662312e-13 1.8275638e-14          0.1 0.0090049153      14.3418  0.029891803 
number of iterations: 1784 
   13900    43.393639      497          305          192 3.0055402e-13 1.8444614e-14          0.1  0.009004968    14.568422  0.029891716 
number of iterations: 1803 
   14000    43.638277      500          306          194 3.0453702e-13 1.8615728e-14          0.1 0.0090050316    14.798049   0.02989161 
number of iterations: 1798 
   14100    43.833885      502          307          195 3.085728e-13 1.8789005e-14          0.1 0.0090050983    15.030725  0.029891498 
number of iterations: 1778 
   14200    44.038758      507          309          198 3.1266206e-13 1.8964466e-14          0.1 0.0090051643    15.266487  0.029891388 
number of iterations: 1808 
   14300    44.223701      515          316          199 3.1680551e-13 1.9142138e-14          0.1 0.0090052274    15.505378  0.029891283 
number of iterations: 1849 
   14400    44.423381      520          317          203 3.2100387e-13 1.9322043e-14          0.1 0.0090053008    15.747438  0.029891161 
number of iterations: 1806 
   14500    44.611802      523          318          205 3.2525787e-13 1.9504206e-14          0.1 0.0090053712     15.99271  0.029891043 
number of iterations: 1837 
   14600    44.809566      526          319          207 3.2956825e-13 1.9688654e-14          0.1   0.00900544    16.241237  0.029890929 
number of iterations: 1882 
   14700    45.007471      536          329          207 3.3393574e-13 1.9875413e-14          0.1 0.0090055305    16.493063  0.029890778 
number of iterations: 1880 
   14800     45.20695      539          330          209 3.3836112e-13 2.0064506e-14          0.1 0.0090056089     16.74823  0.029890647 
number of iterations: 1825 
   14900    45.396175      550          335          215 3.4284514e-13 2.025596e-14          0.1 0.0090056823    17.006785  0.029890525 
number of iterations: 1844 
   15000    45.595582      553          336          217 3.4738858e-13 2.0449801e-14          0.1 0.0090057506     17.26877  0.029890411 
number of iterations: 1837 
   15100    45.836308      561          342          219 3.5199223e-13 2.0646055e-14          0.1 0.0090058186    17.534234  0.029890297 
number of iterations: 1845 
   15200    46.027644      572          347          225 3.5665689e-13 2.084475e-14          0.1 0.0090058902     17.80322  0.029890178 
number of iterations: 1871 
   15300    46.215975      581          354          227 3.6138337e-13 2.1045913e-14          0.1  0.009005965    18.075775  0.029890053 
number of iterations: 1792 
   15400    46.412417      587          360          227 3.6617249e-13 2.1249576e-14          0.1 0.0090060293    18.351947  0.029889946 
number of iterations: 1849 
   15500    46.683592      593          365          228 3.7102507e-13 2.1455763e-14          0.1 0.0090061019    18.631785  0.029889825 
number of iterations: 1791 
   15600    46.884385      599          369          230 3.7594195e-13 2.1664502e-14          0.1 0.0090061738    18.915336  0.029889705 
number of iterations: 1862 
   15700    47.078895      604          371          233  3.80924e-13 2.1875823e-14          0.1 0.0090062499    19.202651  0.029889578 
number of iterations: 1784 
   15800    47.289042      613          377          236 3.8597207e-13 2.2089754e-14          0.1 0.0090063129    19.493779  0.029889473 
number of iterations: 1815 
   15900    47.484417      619          382          237 3.9108703e-13 2.2306326e-14          0.1 0.0090063951    19.788771  0.029889336 
number of iterations: 1833 
   16000      47.7143      629          388          241 3.9626978e-13 2.2525568e-14          0.1 0.0090064751    20.087678  0.029889203 
number of iterations: 1891 
   16100    47.899248      633          391          242 4.0152122e-13 2.274751e-14          0.1 0.0090065637    20.390554  0.029889055 
number of iterations: 1860 
   16200    48.097782      640          396          244 4.0684224e-13 2.2972182e-14          0.1 0.0090066551     20.69745  0.029888902 
number of iterations: 1842 
   16300    48.289966      643          399          244 4.1223378e-13 2.3199615e-14          0.1 0.0090067305    21.008419  0.029888777 
number of iterations: 1872 
   16400    48.516663      652          406          246 4.1769677e-13 2.3429842e-14          0.1 0.0090068279    21.323515  0.029888615 
number of iterations: 1837 
   16500    48.710423      663          414          249 4.2323216e-13 2.3662895e-14          0.1 0.0090069081    21.642794  0.029888481 
number of iterations: 1885 
   16600    48.929064      679          422          257 4.288409e-13 2.3898803e-14          0.1  0.009007012    21.966311  0.029888307 
number of iterations: 1872 
   16700    49.129697      688          426          262 4.3452397e-13 2.4137601e-14          0.1 0.0090070989    22.294124  0.029888163 
number of iterations: 1886 
   16800    49.324623      698          432          266 4.4028235e-13 2.4379322e-14          0.1 0.0090071771    22.626286  0.029888032 
number of iterations: 1938 
   16900    49.528736      707          437          270 4.4611704e-13   2.4624e-14          0.1 0.0090072747    22.962857  0.029887869 
number of iterations: 1867 
   17000    49.780354      718          444          274 4.5202905e-13 2.4871666e-14          0.1  0.009007366    23.303895  0.029887717 
number of iterations: 1917 
   17100    50.002582      728          451          277 4.5801941e-13 2.5122354e-14          0.1 0.0090074527     23.64946  0.029887573 
number of iterations: 1909 
   17200    50.221317      731          454          277 4.6408916e-13 2.5376101e-14          0.1 0.0090075466    23.999612  0.029887416 
number of iterations: 1902 
   17300    50.417509      741          460          281 4.7023934e-13 2.563294e-14          0.1 0.0090076431    24.354412  0.029887255 
number of iterations: 1956 
   17400    50.616998      750          466          284 4.7647103e-13 2.5892908e-14          0.1 0.0090077527    24.713922  0.029887072 
number of iterations: 1877 
   17500    50.811006      762          475          287 4.827853e-13 2.6156039e-14          0.1 0.0090078389    25.078203  0.029886929 
number of iterations: 1900 
   17600    51.018978      767          478          289 4.8918324e-13 2.6422372e-14          0.1 0.0090079516    25.447321  0.029886741 
number of iterations: 1924 
   17700    51.213553      777          485          292 4.9566598e-13 2.6691941e-14          0.1 0.0090080571    25.821338  0.029886565 
number of iterations: 1919 
   17800    51.462863      783          491          292 5.0223462e-13 2.6964785e-14          0.1 0.0090081695     26.20032  0.029886378 
number of iterations: 1912 
   17900    51.742604      794          500          294 5.0889031e-13 2.7240941e-14          0.1 0.0090082796    26.584334  0.029886194 
number of iterations: 1949 
   18000     52.01208      811          514          297 5.156342e-13 2.7520447e-14          0.1 0.0090083929    26.973445  0.029886005 
number of iterations: 1907 
   18100    52.220851      816          519          297 5.2246746e-13 2.7803341e-14          0.1 0.0090084889    27.367722  0.029885845 
number of iterations: 1936 
   18200    52.422516      829          528          301 5.2939128e-13 2.8089662e-14          0.1 0.0090086179    27.767232   0.02988563 
number of iterations: 1887 
   18300    52.633593      837          535          302 5.3640685e-13 2.837945e-14          0.1  0.009008728    28.172046  0.029885446 
number of iterations: 1920 
   18400    52.858863      849          544          305 5.435154e-13 2.8672745e-14          0.1 0.0090088276    28.582234   0.02988528 
number of iterations: 1967 
   18500     53.06413      858          551          307 5.5071815e-13 2.8969587e-14          0.1 0.0090089528    28.997867  0.029885072 
number of iterations: 1903 
   18600     53.26625      872          562          310 5.5801634e-13 2.9270017e-14          0.1 0.0090090701    29.419017  0.029884876 
number of iterations: 1938 
   18700    53.496198      884          570          314 5.6541126e-13 2.9574078e-14          0.1 0.0090091983    29.845757  0.029884662 
number of iterations: 1931 
   18800     53.69466      891          574          317 5.7290417e-13 2.988181e-14          0.1  0.009009304    30.278162  0.029884486 
number of iterations: 1929 
   18900    53.924579      904          583          321 5.8049638e-13 3.0193255e-14          0.1 0.0090094335    30.716308   0.02988427 
number of iterations: 1930 
   19000    54.124338      918          591          327 5.881892e-13 3.0508457e-14          0.1  0.009009526    31.160269  0.029884116 
number of iterations: 1974 
   19100    54.334722      928          599          329 5.9598397e-13 3.082746e-14          0.1 0.0090096534    31.610125  0.029883904 
number of iterations: 1949 
   19200    54.539887      934          601          333 6.0388204e-13 3.1150306e-14          0.1 0.0090097682    32.065952  0.029883712 
number of iterations: 1943 
   19300    54.750791      944          610          334 6.1188477e-13 3.147704e-14          0.1  0.009009897     32.52783  0.029883497 
number of iterations: 1985 
   19400    54.946597      962          622          340 6.1999355e-13 3.1807708e-14          0.1 0.0090100552    32.995839  0.029883234 
number of iterations: 1996 
   19500    55.160135      972          630          342 6.2820979e-13 3.2142354e-14          0.1 0.0090101844    33.470063  0.029883018 
number of iterations: 1974 
   19600    55.365437      982          635          347 6.3653492e-13 3.2481025e-14          0.1 0.0090103287    33.950582  0.029882778 
number of iterations: 1960 
   19700      55.5925      992          641          351 6.4497037e-13 3.2823768e-14          0.1   0.00901046     34.43748  0.029882559 
number of iterations: 2006 
   19800    55.815728     1001          650          351 6.535176e-13 3.317063e-14          0.1 0.0090106014    34.930842  0.029882323 
number of iterations: 1991 
   19900     56.08358     1012          656          356 6.6217811e-13 3.352166e-14          0.1 0.0090107427    35.430753  0.029882088 
number of iterations: 1939 
   20000    56.298818     1018          660          358 6.7095338e-13 3.3876903e-14          0.1 0.0090108858      35.9373  0.029881849 
number of iterations: 1927 
   20100    56.611512     1030          666          364 6.7984495e-13 3.4236411e-14          0.1 0.0090110169    36.450572   0.02988163 
number of iterations: 1950 
   20200    56.840809     1046          678          368 6.8885435e-13 3.4600233e-14          0.1 0.0090111545    36.970655  0.029881401 
number of iterations: 1984 
   20300    57.050687     1055          682          373 6.9798314e-13 3.4968417e-14          0.1 0.0090113122    37.497645  0.029881138 
number of iterations: 1943 
   20400    57.261125     1067          692          375 7.072329e-13 3.5341016e-14          0.1 0.0090114482    38.031631  0.029880911 
number of iterations: 1996 
   20500    57.494785     1073          697          376 7.1660525e-13 3.571808e-14          0.1 0.0090116095    38.572706  0.029880642 
number of iterations: 1990 
   20600      57.7176     1085          704          381 7.2610179e-13 3.6099661e-14          0.1 0.0090117589    39.120962  0.029880393 
number of iterations: 1999 
   20700    57.924723     1096          711          385 7.3572419e-13 3.6485811e-14          0.1 0.0090119257    39.676498  0.029880115 
number of iterations: 1984 
   20800    58.179838     1109          720          389 7.454741e-13 3.6876587e-14          0.1 0.0090120756     40.23941  0.029879865 
number of iterations: 2005 
   20900    58.401449     1131          735          396 7.5535322e-13 3.7272038e-14          0.1 0.0090122392    40.809796  0.029879592 
number of iterations: 1991 
   21000    58.618009     1144          746          398 7.6536326e-13 3.7672222e-14          0.1 0.0090124087    41.387752   0.02987931 
number of iterations: 1997 
   21100    58.880242     1163          759          404 7.7550595e-13 3.8077191e-14          0.1 0.0090125597    41.973381  0.029879058 
number of iterations: 2015 
   21200    59.125169     1174          766          408 7.8578305e-13 3.8487002e-14          0.1  0.009012716    42.566783  0.029878798 
number of iterations: 2048 
   21300    59.338976     1187          776          411 7.9619634e-13 3.8901711e-14          0.1 0.0090128899    43.168063  0.029878508 
number of iterations: 2025 
   21400    59.564647     1201          788          413 8.0674763e-13 3.9321374e-14          0.1 0.0090130648    43.777329  0.029878216 
number of iterations: 1989 
   21500    59.785587     1218          801          417 8.1743875e-13 3.974605e-14          0.1 0.0090132313    44.394684  0.029877938 
number of iterations: 1984 
   21600     60.01393     1238          817          421 8.2827155e-13 4.0175796e-14          0.1 0.0090134079    45.020232  0.029877644 
number of iterations: 1986 
   21700    60.246107     1251          823          428 8.392479e-13 4.0610675e-14          0.1 0.0090135646    45.654084  0.029877383 
number of iterations: 2027 
   21800     60.46928     1269          837          432 8.5036971e-13 4.1050743e-14          0.1 0.0090137347     46.29635  0.029877099 
number of iterations: 2019 
   21900    60.675172     1292          851          441 8.6163891e-13 4.1496061e-14          0.1 0.0090139157    46.947141  0.029876797 
number of iterations: 2012 
   22000    60.908546     1307          862          445 8.7305745e-13 4.1946691e-14          0.1 0.0090140822    47.606573   0.02987652 
number of iterations: 2027 
   22100    61.145795     1329          876          453 8.8462731e-13 4.2402694e-14          0.1 0.0090142675    48.274759  0.029876211 
number of iterations: 2049 
   22200    61.342187     1341          883          458 8.9635049e-13 4.2864133e-14          0.1 0.0090144641    48.951816  0.029875883 
number of iterations: 2048 
   22300    61.693214     1359          896          463 9.0822903e-13 4.3331073e-14          0.1 0.0090146747    49.637862  0.029875532 
number of iterations: 2028 
   22400    61.923946     1378          907          471 9.2026498e-13 4.3803576e-14          0.1 0.0090148661    50.333017  0.029875213 
number of iterations: 2049 
   22500    62.129555     1398          924          474 9.3246044e-13 4.4281708e-14          0.1 0.0090150515    51.037398  0.029874904 
number of iterations: 2048 
   22600    62.362017     1412          932          480 9.4481751e-13 4.4765534e-14          0.1 0.0090152727    51.751133  0.029874535 
number of iterations: 2055 
   22700    62.590276     1432          946          486 9.5733833e-13 4.5255121e-14          0.1 0.0090154704    52.474344  0.029874206 
number of iterations: 1978 
   22800    62.791428     1443          951          492 9.7002508e-13 4.5750536e-14          0.1 0.0090156623    53.207156  0.029873886 
number of iterations: 2092 
   22900    63.021779     1458          961          497 9.8287996e-13 4.6251848e-14          0.1 0.0090158753    53.949697  0.029873531 
number of iterations: 2073 
   23000     63.23972     1472          973          499 9.9590519e-13 4.6759125e-14          0.1 0.0090161094    54.702096   0.02987314 
number of iterations: 2048 
   23100    63.475454     1494          990          504 1.009103e-12 4.7272436e-14          0.1 0.0090163302    55.464484  0.029872772 
number of iterations: 2073 
   23200    63.721494     1522         1008          514 1.0224758e-12 4.7791852e-14          0.1 0.0090165708    56.236998  0.029872371 
number of iterations: 2057 
   23300     63.95699     1540         1022          518 1.0360257e-12 4.8317442e-14          0.1  0.009016793    57.019767  0.029872001 
number of iterations: 2078 
   23400    64.185587     1567         1042          525 1.0497552e-12 4.8849282e-14          0.1 0.0090170107    57.812929  0.029871638 
number of iterations: 2035 
   23500    64.403791     1585         1055          530 1.0636667e-12 4.9387444e-14          0.1 0.0090171896    58.616621  0.029871339 
number of iterations: 2094 
   23600    64.649563     1607         1070          537 1.0777625e-12 4.9932004e-14          0.1 0.0090174277    59.430981  0.029870943 
number of iterations: 2063 
   23700     64.89667     1619         1078          541 1.0920451e-12 5.0483033e-14          0.1 0.0090176543    60.256153  0.029870565 
number of iterations: 2071 
   23800    65.131457     1641         1093          548 1.106517e-12 5.1040608e-14          0.1 0.0090178755    61.092279  0.029870196 
number of iterations: 2079 
   23900    65.338025     1665         1114          551 1.1211807e-12 5.1604805e-14          0.1 0.0090181415    61.939503  0.029869753 
number of iterations: 2073 
   24000    65.616526     1684         1127          557 1.1360387e-12 5.2175702e-14          0.1 0.0090183797    62.797976  0.029869356 
number of iterations: 2068 
   24100    65.843354     1699         1137          562 1.1510935e-12 5.2753377e-14          0.1 0.0090186117    63.667845  0.029868969 
number of iterations: 2136 
   24200    66.082732     1714         1150          564 1.1663479e-12 5.333791e-14          0.1 0.0090188624    64.549262  0.029868551 
number of iterations: 2120 
   24300    66.306553     1741         1169          572 1.1818045e-12 5.3929382e-14          0.1 0.0090191287     65.44238  0.029868107 
number of iterations: 2090 
   24400    66.547722     1756         1182          574 1.1974659e-12 5.4527873e-14          0.1 0.0090193774    66.347356  0.029867693 
number of iterations: 2111 
   24500     66.81439     1784         1200          584 1.2133348e-12 5.5133465e-14          0.1 0.0090196538     67.26435  0.029867232 
number of iterations: 2103 
   24600    67.022268     1807         1216          591 1.229414e-12 5.5746243e-14          0.1  0.009019918    68.193519  0.029866792 
number of iterations: 2081 
   24700    67.250306     1827         1231          596 1.2457063e-12 5.6366288e-14          0.1 0.0090201941    69.135023  0.029866331 
number of iterations: 2090 
   24800    67.462171     1855         1244          611 1.2622145e-12 5.6993687e-14          0.1 0.0090204495    70.089026  0.029865906 
number of iterations: 2107 
   24900    67.696579     1871         1254          617 1.2789414e-12 5.7628527e-14          0.1 0.0090206994    71.055695  0.029865489 
number of iterations: 2108 
   25000    67.933652     1896         1269          627 1.2958901e-12 5.8270894e-14          0.1 0.0090209617    72.035193  0.029865052 
number of iterations: 2127 
   25100    68.165125     1929         1293          636 1.3130633e-12 5.8920876e-14          0.1 0.0090212425    73.027692  0.029864584 
number of iterations: 2148 
   25200    68.397746     1956         1313          643 1.3304641e-12 5.9578563e-14          0.1 0.0090215583    74.033366  0.029864057 
number of iterations: 2084 
   25300    68.831403     1975         1330          645 1.3480955e-12 6.0244044e-14          0.1 0.0090218245    75.052389  0.029863613 
number of iterations: 2150 
   25400    69.075217     1994         1342          652 1.3659606e-12 6.0917412e-14          0.1 0.0090221322    76.084941    0.0298631 
number of iterations: 2153 
   25500    69.315101     2011         1352          659 1.3840624e-12 6.1598758e-14          0.1 0.0090224473    77.131201  0.029862575 
number of iterations: 2107 
   25600    69.556452     2040         1374          666 1.4024041e-12 6.2288175e-14          0.1 0.0090227297     78.19135  0.029862105 
number of iterations: 2123 
   25700    69.798585     2062         1390          672 1.4209888e-12 6.298576e-14          0.1 0.0090230116    79.265572  0.029861635 
number of iterations: 2148 
   25800    70.027465     2088         1412          676 1.4383514e-12 6.3691606e-14          0.1 0.0090233266    80.352931  0.029861109 
number of iterations: 2110 
   25900    70.282934     2113         1431          682 1.4574126e-12 6.440581e-14          0.1 0.0090236172    81.454729  0.029860625 
number of iterations: 2159 
   26000    70.515799     2140         1452          688 1.4767263e-12 6.5128471e-14          0.1 0.0090239187    82.571154  0.029860122 
number of iterations: 2181 
   26100    70.766802     2163         1469          694 1.4962959e-12 6.5859686e-14          0.1 0.0090242442    83.702404   0.02985958 
number of iterations: 2113 
   26200     71.02523     2196         1494          702 1.5161249e-12 6.6599558e-14          0.1 0.0090245439    84.848672   0.02985908 
number of iterations: 2144 
   26300     71.26627     2225         1516          709 1.5362167e-12 6.7348187e-14          0.1 0.0090248699    86.010156  0.029858537 
number of iterations: 2166 
   26400    71.521893     2250         1534          716 1.5565747e-12 6.8105676e-14          0.1 0.0090251989    87.187057  0.029857988 
number of iterations: 2210 
   26500    71.835309     2293         1563          730 1.5772025e-12 6.8872131e-14          0.1 0.0090255614     88.37958  0.029857384 
number of iterations: 2161 
   26600     72.06481     2319         1584          735 1.5981037e-12 6.9647654e-14          0.1 0.0090258706    89.587936  0.029856868 
number of iterations: 2170 
   26700    72.286667     2342         1604          738 1.6192819e-12 7.0432353e-14          0.1 0.0090262301    90.812327  0.029856269 
number of iterations: 2168 
   26800    72.516624     2367         1619          748 1.6407407e-12 7.1226335e-14          0.1 0.0090266072    92.052973  0.029855641 
number of iterations: 2156 
   26900    72.753283     2381         1626          755 1.6624838e-12 7.202971e-14          0.1 0.0090269504    93.310086  0.029855069 
number of iterations: 2178 
   27000    73.039039     2412         1650          762 1.6845151e-12 7.2842586e-14          0.1 0.0090273116    94.583887  0.029854467 
number of iterations: 2131 
   27100    73.275231     2446         1672          774 1.705861e-12 7.3665076e-14          0.1 0.0090276543    95.873852  0.029853895 
number of iterations: 2184 
   27200    73.507369     2484         1699          785 1.7284672e-12 7.4497291e-14          0.1 0.0090280299    97.180944  0.029853269 
number of iterations: 2151 
   27300    73.734088     2514         1717          797 1.7513729e-12 7.5339347e-14          0.1  0.009028405    98.505388  0.029852644 
number of iterations: 2174 
   27400    73.979246     2553         1748          805 1.7745821e-12 7.6191358e-14          0.1 0.0090287726    99.847413  0.029852031 
number of iterations: 2166 
   27500    74.210375     2597         1779          818 1.7980989e-12 7.7053442e-14          0.1  0.009029147    101.20726  0.029851407 
number of iterations: 2196 
   27600    74.447521     2623         1795          828 1.8219274e-12 7.7925717e-14          0.1 0.0090295171    102.58515   0.02985079 
number of iterations: 2179 
   27700    74.682565     2649         1813          836 1.8460716e-12 7.8808303e-14          0.1 0.0090299238    103.98133  0.029850112 
number of iterations: 2204 
   27800    74.955672     2679         1835          844 1.8705358e-12 7.970132e-14          0.1 0.0090303235    105.39605  0.029849446 
number of iterations: 2158 
   27900     75.17853     2717         1859          858 1.8942613e-12 8.0604891e-14          0.1 0.0090307018    106.82873  0.029848815 
number of iterations: 2177 
   28000    75.433023     2753         1885          868 1.9193641e-12 8.1519138e-14          0.1 0.0090310833    108.28044  0.029848179 
number of iterations: 2175 
   28100    75.710322     2795         1918          877 1.9447995e-12 8.2444186e-14          0.1 0.0090314909    109.75142    0.0298475 
number of iterations: 2197 
   28200    75.969604     2849         1955          894 1.970572e-12 8.3380163e-14          0.1 0.0090318835    111.24192  0.029846845 
number of iterations: 2227 
   28300    76.245587     2888         1984          904 1.9966861e-12 8.4327197e-14          0.1  0.009032325    112.75222  0.029846109 
number of iterations: 2188 
   28400    76.540307     2929         2013          916 2.0231462e-12 8.5285419e-14          0.1 0.0090327198    114.28256  0.029845451 
number of iterations: 2179 
   28500    76.855957     2965         2038          927 2.0499569e-12 8.6254961e-14          0.1 0.0090331307    115.83322  0.029844766 
number of iterations: 2221 
   28600    77.112579     3000         2065          935 2.077123e-12 8.7235955e-14          0.1 0.0090335668    117.40447  0.029844039 
number of iterations: 2209 
   28700      77.3644     3043         2098          945 2.104649e-12 8.8228537e-14          0.1 0.0090339982    118.99657   0.02984332 
number of iterations: 2182 
   28800    77.618395     3075         2120          955 2.1325398e-12 8.9232839e-14          0.1 0.0090344064    120.60981  0.029842639 
number of iterations: 2228 
   28900    77.873946     3109         2145          964 2.1608003e-12 9.0249001e-14          0.1 0.0090348731    122.24446  0.029841861 
number of iterations: 2224 
   29000     78.10887     3135         2163          972 2.1894352e-12 9.1277163e-14          0.1 0.0090353116    123.90082   0.02984113 
number of iterations: 2217 
   29100    78.337935     3170         2187          983 2.2184496e-12 9.2317465e-14          0.1 0.0090357636    125.57917  0.029840377 
number of iterations: 2202 
   29200    78.587128     3201         2203          998 2.2478484e-12 9.337005e-14          0.1 0.0090362433     127.2798  0.029839577 
number of iterations: 2180 
   29300    78.854593     3241         2234         1007 2.2776369e-12 9.4435063e-14          0.1  0.009036683    129.00299  0.029838844 
number of iterations: 2233 
   29400    79.118153     3280         2263         1017 2.3078201e-12 9.5512649e-14          0.1 0.0090371708    130.74906  0.029838031 
number of iterations: 2238 
   29500    79.352052     3317         2289         1028 2.3384033e-12 9.6602957e-14          0.1 0.0090376397    132.51831   0.02983725 
number of iterations: 2214 
   29600    79.608984     3363         2326         1037 2.3693918e-12 9.7706136e-14          0.1 0.0090381196    134.31105   0.02983645 
number of iterations: 2232 
   29700    79.846592     3407         2356         1051 2.4007909e-12 9.8822337e-14          0.1 0.0090386467    136.12759  0.029835571 
number of iterations: 2211 
   29800    80.098132     3452         2392         1060 2.4326062e-12 9.9951713e-14          0.1 0.0090391408    137.96825  0.029834747 
number of iterations: 2245 
   29900    80.338464     3487         2415         1072 2.464843e-12 1.0109442e-13          0.1 0.0090397042    139.83334  0.029833808 
number of iterations: 2237 
   30000    80.593283     3539         2446         1093 2.4975071e-12 1.0225061e-13          0.1  0.009040225     141.7232   0.02983294 
number of iterations: 2242 
   30100    80.867175     3577         2477         1100 2.5306039e-12 1.0342045e-13          0.1  0.009040759    143.63813   0.02983205 
number of iterations: 2272 
   30200     81.17809     3633         2522         1111 2.5641394e-12 1.046041e-13          0.1 0.0090413249    145.57847  0.029831107 
number of iterations: 2269 
   30300     81.41717     3667         2544         1123  2.59708e-12 1.0580171e-13          0.1 0.0090418588    147.54378  0.029830217 
number of iterations: 2212 
   30400    81.689561     3725         2591         1134 2.6314964e-12 1.0701345e-13          0.1 0.0090423832    149.53517  0.029829343 
number of iterations: 2274 
   30500    81.962197     3774         2626         1148 2.6663689e-12 1.0823949e-13          0.1 0.0090429429      151.553   0.02982841 
number of iterations: 2250 
   30600    82.207392     3816         2650         1166 2.7017035e-12   1.0948e-13          0.1 0.0090434794    153.59762  0.029827515 
number of iterations: 2280 
   30700    82.463017     3864         2683         1181 2.7375063e-12 1.1073514e-13          0.1 0.0090440869    155.66938  0.029826503 
number of iterations: 2273 
   30800    82.725956     3920         2720         1200 2.772901e-12 1.1200509e-13          0.1   0.00904466    157.76796  0.029825547 
number of iterations: 2281 
   30900     83.00244     3965         2756         1209 2.8096473e-12 1.1329002e-13          0.1 0.0090452659    159.89439  0.029824538 
number of iterations: 2299 
   31000    83.272221     4019         2796         1223 2.8457149e-12 1.1459011e-13          0.1 0.0090458637    162.04815  0.029823541 
number of iterations: 2299 
   31100    83.537069     4080         2839         1241 2.8809409e-12 1.1590554e-13          0.1 0.0090464376     164.2286  0.029822584 
number of iterations: 2293 
   31200    83.794268     4130         2874         1256 2.9191189e-12 1.1723648e-13          0.1 0.0090470496      166.438  0.029821564 
number of iterations: 2269 
   31300    84.065844     4189         2916         1273 2.9578029e-12 1.1858312e-13          0.1 0.0090476823    168.67673   0.02982051 
number of iterations: 2291 
   31400    84.324118     4249         2966         1283 2.9969995e-12 1.1994564e-13          0.1  0.009048349    170.94517  0.029819398 
number of iterations: 2288 
   31500    84.585563     4301         3001         1300 3.0367155e-12 1.2132423e-13          0.1 0.0090489687    173.24373  0.029818365 
number of iterations: 2298 
   31600    84.844818     4351         3040         1311 3.0769579e-12 1.2271908e-13          0.1  0.009049645     175.5728  0.029817238 
number of iterations: 2292 
   31700    85.121508     4398         3075         1323 3.1177335e-12 1.2413038e-13          0.1 0.0090502804    177.93279  0.029816179 
number of iterations: 2261 
   31800    85.384363     4449         3116         1333 3.1576807e-12 1.2555832e-13          0.1 0.0090509163    180.32305  0.029815119 
number of iterations: 2283 
   31900    85.671751     4505         3157         1348 3.199526e-12 1.270031e-13          0.1   0.00905154    182.74504  0.029814079 
number of iterations: 2346 
   32000    85.966718     4554         3185         1369 3.2419259e-12 1.2846492e-13          0.1 0.0090523163    185.19918  0.029812785 
number of iterations: 2320 
   32100    86.236204     4605         3222         1383 3.2848876e-12 1.2994398e-13          0.1 0.0090530151    187.68589  0.029811621 
number of iterations: 2301 
   32200    86.508505     4660         3262         1398 3.3270085e-12 1.3144048e-13          0.1 0.0090536762    190.20453  0.029810519 
number of iterations: 2258 
   32300    86.808212     4723         3311         1412 3.3698065e-12 1.3295462e-13          0.1 0.0090543009    192.75562  0.029809477 
number of iterations: 2308 
   32400       87.083     4781         3357         1424 3.4131926e-12 1.3448661e-13          0.1 0.0090549737    195.33962  0.029808356 
number of iterations: 2309 
   32500    87.352996     4834         3397         1437 3.4569473e-12 1.3603666e-13          0.1 0.0090556933    197.95679  0.029807156 
number of iterations: 2296 
   32600    87.604585     4904         3448         1456 3.5027584e-12 1.3760499e-13          0.1 0.0090564778     200.6087  0.029805849 
number of iterations: 2345 
   32700    87.874419     4976         3501         1475 3.5477179e-12 1.3919181e-13          0.1 0.0090572299    203.29469  0.029804595 
number of iterations: 2348 
   32800    88.130278     5058         3566         1492 3.5947319e-12 1.4079734e-13          0.1  0.009057994    206.01634  0.029803321 
number of iterations: 2346 
   32900    88.396988     5112         3610         1502 3.6412501e-12 1.4242179e-13          0.1 0.0090587924    208.77328  0.029801991 
number of iterations: 2339 
   33000    88.646838     5178         3651         1527 3.6895035e-12 1.4406539e-13          0.1 0.0090595643    211.56682  0.029800704 
number of iterations: 2322 
   33100    88.972604     5240         3699         1541 3.7383964e-12 1.4572836e-13          0.1 0.0090603161    214.39743  0.029799451 
number of iterations: 2305 
   33200    89.248992     5297         3740         1557 3.7868137e-12 1.4741094e-13          0.1   0.00906106    217.26476  0.029798211 
number of iterations: 2305 
   33300     89.52828     5359         3781         1578 3.8359013e-12 1.4911335e-13          0.1 0.0090618512     220.1693  0.029796892 
number of iterations: 2340 
   33400    89.852311     5426         3829         1597 3.8854949e-12 1.5083583e-13          0.1 0.0090626759    223.11145  0.029795517 
number of iterations: 2369 
   33500    90.141632     5493         3880         1613 3.9347994e-12 1.5257861e-13          0.1 0.0090634542    226.09098   0.02979422 
number of iterations: 2340 
   33600    90.440312     5556         3928         1628 3.985806e-12 1.5434193e-13          0.1 0.0090642776     229.1092  0.029792847 
number of iterations: 2339 
   33700    90.774421     5623         3978         1645 4.0375957e-12 1.5612604e-13          0.1 0.0090650908    232.16669  0.029791492 
number of iterations: 2326 
   33800    91.067548     5697         4033         1664 4.0901639e-12 1.5793117e-13          0.1 0.0090659058    235.26406  0.029790133 
number of iterations: 2346 
   33900     91.34442     5779         4099         1680 4.143184e-12 1.5975758e-13          0.1 0.0090667712    238.40164  0.029788691 
number of iterations: 2338 
   34000    91.638895     5846         4142         1704 4.197056e-12 1.6160551e-13          0.1 0.0090676089    241.58009  0.029787294 
number of iterations: 2347 
   34100    92.025944     5929         4202         1727 4.2516532e-12 1.6347522e-13          0.1 0.0090685022    244.79994  0.029785806 
number of iterations: 2378 
   34200    92.302448     6006         4257         1749 4.3067633e-12 1.6536696e-13          0.1 0.0090693788     248.0616  0.029784344 
number of iterations: 2366 
   34300    92.586468     6083         4311         1772 4.3638358e-12  1.67281e-13          0.1 0.0090702638    251.36655  0.029782869 
number of iterations: 2320 
   34400    92.875516     6148         4349         1799 4.4160777e-12 1.6921759e-13          0.1 0.0090711186     254.7111  0.029781444 
number of iterations: 2364 
   34500     93.15827     6228         4409         1819 4.4745988e-12 1.7117702e-13          0.1 0.0090720772    258.10005  0.029779847 
number of iterations: 2377 
   34600    93.448983     6301         4464         1837 4.5326137e-12 1.7315953e-13          0.1 0.0090730219      261.533  0.029778272 
number of iterations: 2352 
   34700    93.729493     6367         4511         1856 4.5906168e-12 1.7516541e-13          0.1 0.0090739317    265.00995  0.029776755 
number of iterations: 2384 
   34800    94.030116     6442         4562         1880 4.6514508e-12 1.7719492e-13          0.1 0.0090749672    268.53305   0.02977503 
number of iterations: 2401 
   34900    94.315417     6537         4625         1912 4.7122467e-12 1.7924835e-13          0.1 0.0090759973    272.10227  0.029773313 
number of iterations: 2359 
   35000    94.616164     6618         4684         1934 4.7735508e-12 1.8132599e-13          0.1 0.0090769366    275.71802  0.029771747 
Loop time of 94.6162 on 32 procs for 35000 steps with 6618 atoms

Performance: 319606841.098 tau/day, 369.915 timesteps/s
91.9% CPU use with 32 MPI tasks x no OpenMP threads

MPI task timing breakdown:
Section |  min time  |  avg time  |  max time  |%varavg| %total
---------------------------------------------------------------
Pair    | 0.0027041  | 0.091149   | 0.18012    |  15.5 |  0.10
Neigh   | 0.0027137  | 0.029485   | 0.05397    |   8.1 |  0.03
Comm    | 0.062311   | 0.18663    | 0.27895    |  13.0 |  0.20
Output  | 23.891     | 23.892     | 23.9       |   0.0 | 25.25
Modify  | 69.984     | 70.052     | 70.108     |   0.4 | 74.04
Other   |            | 0.3654     |            |       |  0.39

Nlocal:    206.812 ave 365 max 3 min
Histogram: 3 0 1 4 6 4 5 2 2 5
Nghost:    110.969 ave 245 max 37 min
Histogram: 4 4 5 7 6 2 1 1 1 1
Neighs:    801.656 ave 1530 max 14 min
Histogram: 3 1 1 5 7 4 3 2 3 3

Total # of neighbors = 25653
Ave neighs/atom = 3.87625
Neighbor list builds = 671
Dangerous builds = 0
Total wall time: 0:01:34
