 NUFEB Simulation

     50 atoms 
     2 atom types 
     4 nutrients 

  0.0e-4   1.00e-04  xlo xhi 
  0.0e-4   1.00e-04  ylo yhi 
  0.0e-4   5.00e-05  zlo zhi 

 Atoms 

     1 1 1.57e-06  370 6.37e-05 6.65e-05 3.54e-05 1.57e-06 
     2 1 1.77e-06  370 4.31e-05 5.41e-06 3.96e-05 1.77e-06 
     3 1 1.70e-06  370 8.56e-05 4.21e-05 4.46e-05 1.70e-06 
     4 1 1.49e-06  370 5.41e-05 1.28e-05 3.25e-05 1.49e-06 
     5 1 1.55e-06  370 5.40e-05 8.08e-05 3.33e-05 1.55e-06 
     6 1 1.79e-06  370 8.08e-05 6.37e-06 1.39e-05 1.79e-06 
     7 1 1.65e-06  370 2.25e-05 7.44e-05 3.53e-05 1.65e-06 
     8 1 1.50e-06  370 9.16e-06 5.77e-06 1.40e-05 1.50e-06 
     9 1 1.87e-06  370 1.38e-05 8.45e-05 7.17e-06 1.87e-06 
     10 1 1.92e-06  370 4.86e-05 2.18e-05 3.47e-05 1.92e-06 
     11 1 1.57e-06  370 5.27e-05 5.21e-05 2.21e-05 1.57e-06 
     12 1 1.54e-06  370 5.85e-05 4.27e-05 5.43e-06 1.54e-06 
     13 1 1.72e-06  370 3.95e-05 3.10e-05 4.67e-05 1.72e-06 
     14 1 1.45e-06  370 1.32e-05 3.72e-05 3.74e-06 1.45e-06 
     15 1 1.48e-06  370 6.45e-05 7.20e-05 1.68e-05 1.48e-06 
     16 1 1.63e-06  370 4.42e-05 2.94e-05 1.07e-05 1.63e-06 
     17 1 1.86e-06  370 3.48e-05 8.40e-05 2.53e-05 1.86e-06 
     18 1 1.39e-06  370 7.68e-05 1.96e-05 4.80e-05 1.39e-06 
     19 1 1.58e-06  370 7.61e-05 6.42e-05 6.54e-06 1.58e-06 
     20 1 1.91e-06  370 6.84e-05 5.05e-05 2.30e-05 1.91e-06 
     21 1 1.60e-06  370 4.22e-05 3.10e-05 4.82e-05 1.60e-06 
     22 1 1.72e-06  370 3.26e-05 5.40e-05 2.39e-05 1.72e-06 
     23 1 1.74e-06  370 8.51e-05 2.72e-05 3.60e-05 1.74e-06 
     24 1 1.53e-06  370 4.69e-05 7.74e-05 3.38e-05 1.53e-06 
     25 1 1.51e-06  370 7.88e-05 2.81e-05 3.39e-05 1.51e-06 
     26 1 1.51e-06  370 8.43e-05 9.58e-05 1.92e-05 1.51e-06 
     27 1 1.47e-06  370 4.28e-05 8.85e-05 1.47e-06 1.47e-06 
     28 1 1.77e-06  370 4.13e-05 8.78e-05 2.79e-05 1.77e-06 
     29 1 1.69e-06  370 4.26e-06 8.70e-05 1.62e-05 1.69e-06 
     30 1 1.86e-06  370 4.10e-06 8.46e-05 3.04e-05 1.86e-06 
     31 1 1.46e-06  370 7.10e-05 4.63e-05 1.60e-05 1.46e-06 
     32 1 1.44e-06  370 5.86e-05 9.73e-05 1.03e-05 1.44e-06 
     33 1 1.75e-06  370 8.01e-05 4.30e-05 4.13e-05 1.75e-06 
     34 1 1.75e-06  370 4.86e-05 5.17e-05 2.05e-05 1.75e-06 
     35 1 1.61e-06  370 5.59e-05 3.52e-05 3.41e-05 1.61e-06 
     36 1 1.41e-06  370 4.14e-05 6.34e-05 2.87e-05 1.41e-06 
     37 1 1.42e-06  370 6.50e-05 5.70e-05 3.81e-05 1.42e-06 
     38 1 1.62e-06  370 4.94e-05 7.10e-05 9.23e-06 1.62e-06 
     39 1 1.84e-06  370 1.76e-05 2.71e-05 1.07e-05 1.84e-06 
     40 1 1.60e-06  370 2.12e-05 9.51e-05 2.42e-05 1.60e-06 
     41 1 1.63e-06  370 2.22e-05 4.19e-05 8.77e-06 1.63e-06 
     42 1 1.72e-06  370 8.10e-05 9.11e-06 2.05e-05 1.72e-06 
     43 1 1.82e-06  370 6.28e-05 8.40e-06 6.95e-06 1.82e-06 
     44 1 1.63e-06  370 4.92e-05 4.83e-05 1.85e-05 1.63e-06 
     45 1 1.62e-06  370 2.68e-05 8.31e-05 4.38e-05 1.62e-06 
     46 1 1.60e-06  370 8.09e-05 5.17e-05 1.23e-05 1.60e-06 
     47 1 1.70e-06  370 7.93e-05 6.08e-05 4.25e-05 1.70e-06 
     48 1 1.81e-06  370 7.54e-05 3.40e-05 4.74e-05 1.81e-06 
     49 1 1.70e-06  370 4.07e-05 7.23e-05 3.81e-05 1.70e-06 
     50 1 1.41e-06  370 2.14e-05 8.13e-05 2.73e-05 1.41e-06 

 Nutrients 

     1 sub g nn nn nn 1.00e-01 1.00e-01 
     2 o2 l nn nn nd 9.00e-03 9.00e-03 
     3 suc l nn nn nn 3.42e-20 3.42e-20 
     4 co2 l nn nn nd 2.99e-02 2.99e-02 

 Type Name 

     1 cyano  
     2 ecw  

 Diffusion Coeffs 

     sub 0 
     o2 2.3e-09 
     suc 5.2e-10 
     co2 1.9e-09 

 Growth Rate 

     cyano 2.047e-05 
     ecw 6.71e-05 

 Ks 

     cyano 0.00035 0.0002 0.01 0.000138 
     ecw 0 0.001 3.6 0.05 

 Yield 

     cyano 0.55 
     ecw 0.43 

 Maintenance 

     cyano 0 
     ecw 9.5e-07 

 Decay 

     cyano 0 
     ecw 0 



